Title
81358
    1CHL1    C3    1   3.410   1.897  10.250 -0.5255 -0.2281 -1.1531
    1CHL1    H3    2   3.517   1.872  10.236 -0.5174 -0.9393  0.0107
    1CHL1    O3    3   3.393   1.872  10.394 -0.4033  0.0948 -0.0153
    1CHL1   H3'    4   3.299   1.883  10.405 -0.7499  0.2633 -2.5997
    1CHL1    C4    5   3.366   2.038  10.219  0.2021  0.3092  0.0096
    1CHL1   H4A    6   3.256   2.028  10.232  0.2827 -0.4873  0.1463
    1CHL1   H4B    7   3.408   2.116  10.285  3.2417 -0.2407 -1.1077
    1CHL1    C5    8   3.398   2.072  10.074 -0.2160 -0.2198 -0.1900
    1CHL1    C6    9   3.467   2.185  10.035 -0.1358 -0.5464 -0.5133
    1CHL1    H6   10   3.504   2.257  10.109 -1.8744 -0.6654  0.5139
    1CHL1    C7   11   3.499   2.217   9.893 -0.1538 -0.3469 -0.0349
    1CHL1   H7A   12   3.465   2.323   9.890 -2.2597 -0.9622  0.5287
    1CHL1   H7B   13   3.607   2.199   9.873 -0.3306 -0.0019 -1.3887
    1CHL1    C8   14   3.424   2.136   9.790 -0.1191  0.6272  0.1610
    1CHL1    H8   15   3.322   2.179   9.783 -0.4769 -0.2494 -0.1387
    1CHL1   C14   16   3.486   2.148   9.650  0.3904  0.4723 -0.1904
    1CHL1   H14   17   3.590   2.118   9.674 -0.1800 -1.1499  0.3767
    1CHL1   C15   18   3.492   2.287   9.592  0.0523 -0.3906  0.1908
    1CHL1  H15A   19   3.405   2.355   9.593  0.8452  0.7879 -2.1584
    1CHL1  H15B   20   3.564   2.354   9.643  0.3657 -0.3780 -0.2581
    1CHL1   C16   21   3.544   2.255   9.447 -0.2855  0.2448  0.3299
    1CHL1  H16A   22   3.481   2.304   9.370 -1.4181  0.1518  1.1773
    1CHL1  H16B   23   3.651   2.280   9.428 -0.5306  0.9519 -0.1768
    1CHL1   C17   24   3.531   2.099   9.430 -0.1650 -0.7822 -1.0876
    1CHL1   H17   25   3.628   2.049   9.455 -0.4948 -1.8628 -1.9157
    1CHL1   C13   26   3.439   2.060   9.544  0.1204  0.1400 -0.3343
    1CHL1   C18   27   3.290   2.085   9.501 -0.2877 -0.6750  0.6130
    1CHL1  H18A   28   3.276   2.175   9.439 -1.6091 -0.4827  1.1565
    1CHL1  H18B   29   3.244   2.002   9.444 -2.1639  0.4916  0.3702
    1CHL1  H18C   30   3.232   2.111   9.592  0.7995 -0.1024  1.1616
    1CHL1   C12   31   3.445   1.917   9.596  0.1387 -1.2161  0.0868
    1CHL1  H12A   32   3.418   1.838   9.523  1.1921 -0.4991 -1.1241
    1CHL1  H12B   33   3.550   1.901   9.628  0.1945 -1.1754 -0.0751
    1CHL1   C11   34   3.353   1.897   9.718 -0.1844  0.1542  0.2247
    1CHL1  H11A   35   3.245   1.915   9.695 -0.3222  0.5431  1.1437
    1CHL1  H11B   36   3.366   1.796   9.762  0.2908  1.0263  2.2036
    1CHL1    C9   37   3.408   1.987   9.835 -0.0407  0.3297  0.4572
    1CHL1    H9   38   3.516   1.965   9.848  0.1348  1.5316  1.2528
    1CHL1   C10   39   3.345   1.970   9.973 -0.0363 -0.8318  0.6238
    1CHL1   C19   40   3.194   1.974   9.957 -0.0048 -0.1467  0.3532
    1CHL1  H19A   41   3.147   1.970  10.058  1.3543  0.0529  1.0222
    1CHL1  H19B   42   3.149   2.053   9.893 -1.0352  1.2744  2.6776
    1CHL1  H19C   43   3.154   1.875   9.927 -0.1907  0.6846 -2.4358
    1CHL1    C1   44   3.380   1.821  10.013 -0.0220 -0.1279 -0.1580
    1CHL1   H1A   45   3.322   1.744   9.958 -1.1281 -0.7745  1.8187
    1CHL1   H1B   46   3.488   1.797  10.001 -0.4278 -1.7462 -0.9755
    1CHL1    C2   47   3.344   1.794  10.163 -0.4900 -0.1584  0.9006
    1CHL1   H2A   48   3.388   1.697  10.194 -1.2884 -1.3945 -1.5433
    1CHL1   H2B   49   3.233   1.792  10.165 -0.5311  0.3318 -0.1734
    1CHL1   C20   50   3.496   2.058   9.283 -0.2390 -0.4545 -0.0680
    1CHL1   H20   51   3.404   2.110   9.249  0.7421  2.1796  1.0737
    1CHL1   C21   52   3.470   1.908   9.270 -0.1122 -0.0088  0.2158
    1CHL1  H21A   53   3.548   1.855   9.329  0.5873  0.0421 -0.6526
    1CHL1  H21B   54   3.485   1.881   9.163  2.6512  0.6367  0.3604
    1CHL1  H21C   55   3.369   1.880   9.307  0.5207 -1.4233  0.9777
    1CHL1   C22   56   3.607   2.107   9.186 -0.0507  0.1725  0.1745
    1CHL1  H22A   57   3.631   2.214   9.206 -2.1383  1.2728 -2.6316
    1CHL1  H22B   58   3.686   2.030   9.186 -2.6812 -2.7198 -0.1647
    1CHL1   C23   59   3.562   2.114   9.043 -0.4946  0.1877  0.3886
    1CHL1  H23A   60   3.560   2.015   8.992  1.1548  0.2729  0.1297
    1CHL1  H23B   61   3.456   2.146   9.034  0.0118  2.2205  1.2088
    1CHL1   C24   62   3.653   2.207   8.965  0.2867 -0.1646  0.2765
    1CHL1  H24A   63   3.671   2.295   9.030 -1.1220 -0.0459  0.5397
    1CHL1  H24B   64   3.745   2.147   8.947  0.6958  0.5733 -0.1592
    1CHL1   C25   65   3.593   2.260   8.834  0.1680 -0.3328 -0.0717
    1CHL1   H25   66   3.493   2.300   8.858  0.7933  3.1107 -2.5395
    1CHL1   C26   67   3.690   2.365   8.770  0.7693  0.0306  0.3710
    1CHL1  H26A   68   3.703   2.447   8.844 -1.4473 -1.2134  2.2868
    1CHL1  H26B   69   3.788   2.318   8.744  0.2135 -0.7189 -0.4475
    1CHL1  H26C   70   3.643   2.409   8.680  0.4025 -1.2387 -0.0843
    1CHL1   C27   71   3.582   2.141   8.738  0.5220  0.2236 -0.6331
    1CHL1  H27A   72   3.659   2.061   8.742  0.1062 -0.1524  0.0728
    1CHL1  H27B   73   3.486   2.088   8.758  0.4607  0.9734  1.3144
    1CHL1  H27C   74   3.600   2.174   8.634 -0.2757  1.3890 -0.4195
    2CHL1    C3   75   3.414   6.340  10.185 -0.7102  0.5445 -0.1583
    2CHL1    H3   76   3.520   6.368  10.163 -0.0375  1.0292  3.2559
    2CHL1    O3   77   3.415   6.317  10.326  0.3465  0.6935  0.5592
    2CHL1   H3'   78   3.323   6.305  10.353  0.3263 -1.1401 -0.1802
    2CHL1    C4   79   3.314   6.458  10.153  0.1649 -0.7179  0.3883
    2CHL1   H4A   80   3.215   6.429  10.195  0.0355 -0.5719  0.1824
    2CHL1   H4B   81   3.348   6.540  10.220 -0.8442 -0.8982  1.1411
    2CHL1    C5   82   3.318   6.481  10.002  0.3153  0.8103  0.5966
    2CHL1    C6   83   3.361   6.599   9.951  0.0301 -0.1398  0.2696
    2CHL1    H6   84   3.399   6.677  10.018 -0.8135  1.2459 -0.8234
    2CHL1    C7   85   3.366   6.629   9.808 -0.2808  0.6530 -0.5772
    2CHL1   H7A   86   3.330   6.732   9.787 -1.4014  0.2711 -0.5912
    2CHL1   H7B   87   3.475   6.630   9.786 -0.2779 -1.6361 -0.9281
    2CHL1    C8   88   3.288   6.526   9.728 -0.2805 -0.1024 -0.0578
    2CHL1    H8   89   3.181   6.554   9.734 -0.0830  0.5384  0.6283
    2CHL1   C14   90   3.330   6.530   9.584 -0.0684  0.3324  0.1353
    2CHL1   H14   91   3.432   6.488   9.580  0.8492  2.4685 -0.2157
    2CHL1   C15   92   3.354   6.668   9.533 -0.2504 -0.7447  0.5256
    2CHL1  H15A   93   3.269   6.736   9.557 -0.0059 -0.3584  0.3111
    2CHL1  H15B   94   3.448   6.716   9.567  0.3791 -2.1174  0.7742
    2CHL1   C16   95   3.362   6.648   9.378 -0.9238  0.4913  0.3486
    2CHL1  H16A   96   3.277   6.707   9.337 -0.7385 -0.4316 -1.4794
    2CHL1  H16B   97   3.462   6.671   9.335 -0.5502 -1.0237  0.3281
    2CHL1   C17   98   3.320   6.498   9.353 -0.6778 -0.0859 -0.0436
    2CHL1   H17   99   3.411   6.435   9.368 -2.2956 -2.2734  1.2149
    2CHL1   C13  100   3.254   6.448   9.486  0.4262  0.3727  0.2220
    2CHL1   C18  101   3.105   6.488   9.481 -0.1933  0.1753  0.7291
    2CHL1  H18A  102   3.089   6.584   9.427  1.8275 -0.8494 -1.8869
    2CHL1  H18B  103   3.040   6.412   9.432  0.4874 -0.6138  1.0353
    2CHL1  H18C  104   3.059   6.501   9.582 -0.7104  0.6708  0.4357
    2CHL1   C12  105   3.272   6.299   9.524 -0.0907 -0.3886  0.3263
    2CHL1  H12A  106   3.210   6.229   9.465 -2.1797  0.4620  1.4243
    2CHL1  H12B  107   3.379   6.279   9.500 -0.9417 -1.7846 -2.7380
    2CHL1   C11  108   3.241   6.279   9.674 -0.2578  0.0590  0.5982
    2CHL1  H11A  109   3.131   6.296   9.672 -0.2101  0.6573 -2.6227
    2CHL1  H11B  110   3.273   6.176   9.698  1.1531  0.4705  0.5533
    2CHL1    C9  111   3.308   6.380   9.770 -0.7809 -0.0244  0.1052
    2CHL1    H9  112   3.416   6.362   9.749 -0.5615  0.7853  0.4763
    2CHL1   C10  113   3.283   6.354   9.920  0.4626 -0.9188 -0.9386
    2CHL1   C19  114   3.136   6.324   9.946  0.2946  0.3878  1.1479
    2CHL1  H19A  115   3.073   6.407   9.908  1.3322 -0.1626 -2.0925
    2CHL1  H19B  116   3.097   6.237   9.889  0.2791  1.1795 -0.0661
    2CHL1  H19C  117   3.109   6.296  10.050 -0.2375 -1.7772  0.4820
    2CHL1    C1  118   3.368   6.236   9.970  0.5729  0.0410  0.0309
    2CHL1   H1A  119   3.338   6.145   9.915 -0.2821  1.2961 -1.6676
    2CHL1   H1B  120   3.471   6.251   9.932  0.3881  0.0593 -0.4673
    2CHL1    C2  121   3.365   6.211  10.119  0.2264  0.2549  0.5414
    2CHL1   H2A  122   3.432   6.126  10.143 -0.7125 -0.1141  1.9814
    2CHL1   H2B  123   3.269   6.185  10.167  0.6865  0.0025  1.3392
    2CHL1   C20  124   3.266   6.461   9.213  0.3735 -0.7722 -0.3856
    2CHL1   H20  125   3.184   6.535   9.201  1.7383  0.4179 -3.2924
    2CHL1   C21  126   3.194   6.320   9.198 -0.2619  0.4953 -0.0693
    2CHL1  H21A  127   3.254   6.229   9.219 -0.9133 -0.0553 -0.5318
    2CHL1  H21B  128   3.145   6.318   9.098  1.1931 -1.5616 -0.8170
    2CHL1  H21C  129   3.125   6.294   9.281 -2.0162 -0.2198 -1.6699
    2CHL1   C22  130   3.365   6.465   9.099 -0.3064 -0.0674  0.4753
    2CHL1  H22A  131   3.447   6.392   9.116 -2.1491 -2.6045 -0.8477
    2CHL1  H22B  132   3.315   6.414   9.014 -0.5303 -3.4606  2.4704
    2CHL1   C23  133   3.410   6.594   9.048  0.2401 -0.1803 -0.2687
    2CHL1  H23A  134   3.332   6.670   9.026 -1.0148 -1.5135 -0.5669
    2CHL1  H23B  135   3.481   6.634   9.124  0.0155 -2.2277  1.0861
    2CHL1   C24  136   3.477   6.582   8.908 -0.0275 -0.3993  0.5561
    2CHL1  H24A  137   3.568   6.523   8.933 -0.9707 -0.9119  3.0667
    2CHL1  H24B  138   3.403   6.531   8.843  2.0437 -0.6756 -1.7093
    2CHL1   C25  139   3.534   6.711   8.837  0.4242 -0.0657 -0.1486
    2CHL1   H25  140   3.444   6.773   8.813 -0.2855 -0.0190  2.2848
    2CHL1   C26  141   3.623   6.796   8.930  0.2119  0.2132 -0.6702
    2CHL1  H26A  142   3.673   6.881   8.878  1.6138 -1.6935 -2.5676
    2CHL1  H26B  143   3.565   6.840   9.014  0.2999  1.1321 -1.0739
    2CHL1  H26C  144   3.712   6.736   8.958  0.6363  0.6891 -0.9749
    2CHL1   C27  145   3.598   6.679   8.702  0.1430 -0.2583  0.1529
    2CHL1  H27A  146   3.625   6.772   8.647  0.8553 -0.5473  0.0055
    2CHL1  H27B  147   3.696   6.633   8.726  0.8420  1.5048  0.8948
    2CHL1  H27C  148   3.537   6.618   8.632 -0.9008  2.7052 -1.7162
    3CHL1    C3  149   4.724   5.595  10.340 -0.3656 -0.1429  0.5615
    3CHL1    H3  150   4.678   5.497  10.314 -1.9918  0.3633  1.3653
    3CHL1    O3  151   4.762   5.587  10.475 -0.8370 -0.2264  0.3070
    3CHL1   H3'  152   4.850   5.548  10.475 -0.0523  1.4904  0.2569
    3CHL1    C4  153   4.842   5.619  10.253  0.6161 -0.4527  0.4659
    3CHL1   H4A  154   4.868   5.719  10.293 -0.6953 -0.2706  0.9330
    3CHL1   H4B  155   4.916   5.538  10.269  0.9758 -0.3136 -0.4553
    3CHL1    C5  156   4.797   5.642  10.104  1.1176 -0.2443 -0.5304
    3CHL1    C6  157   4.838   5.561  10.003 -0.1961  0.2674 -0.7654
    3CHL1    H6  158   4.909   5.479  10.020  0.9621  1.1080 -1.4228
    3CHL1    C7  159   4.791   5.577   9.866  1.2253  0.1403  0.5237
    3CHL1   H7A  160   4.865   5.570   9.784 -0.2585  2.2578 -1.1270
    3CHL1   H7B  161   4.698   5.518   9.846  0.6213  1.5781 -1.0734
    3CHL1    C8  162   4.728   5.720   9.834  0.0387 -0.5056 -0.5334
    3CHL1    H8  163   4.819   5.784   9.836  1.1837 -2.0842  1.7255
    3CHL1   C14  164   4.661   5.724   9.699 -0.0831 -0.4201  0.0570
    3CHL1   H14  165   4.571   5.660   9.712  0.3382 -1.2153 -0.7630
    3CHL1   C15  166   4.731   5.663   9.573 -0.6392 -0.5249 -0.1529
    3CHL1  H15A  167   4.836   5.696   9.587 -1.7002  2.1144  2.8161
    3CHL1  H15B  168   4.746   5.553   9.572  2.3973 -0.2179  1.8025
    3CHL1   C16  169   4.655   5.722   9.449 -0.9809  0.4239  0.1154
    3CHL1  H16A  170   4.729   5.758   9.374  1.6072 -1.7966  1.4177
    3CHL1  H16B  171   4.591   5.645   9.402  1.5917 -1.1105 -1.0779
    3CHL1   C17  172   4.557   5.825   9.518 -0.7446  0.0205  0.7861
    3CHL1   H17  173   4.466   5.765   9.538  0.7142 -3.4482 -1.9099
    3CHL1   C13  174   4.610   5.860   9.657  0.3882  0.0342 -0.2425
    3CHL1   C18  175   4.721   5.968   9.644  0.5357 -0.4949 -0.3433
    3CHL1  H18A  176   4.673   6.066   9.621 -1.2807 -0.6511  2.3216
    3CHL1  H18B  177   4.768   5.991   9.742 -1.2746 -0.9511  0.6970
    3CHL1  H18C  178   4.800   5.940   9.572  0.0934 -1.9707 -0.2796
    3CHL1   C12  179   4.504   5.890   9.772 -0.3146  0.0195  0.4271
    3CHL1  H12A  180   4.449   5.979   9.736  2.9414  2.0876  0.1363
    3CHL1  H12B  181   4.433   5.805   9.784 -0.4412  0.3099  2.0730
    3CHL1   C11  182   4.566   5.902   9.908  0.0842  0.1047 -0.3512
    3CHL1  H11A  183   4.643   5.982   9.913  1.7384 -1.5163  2.2761
    3CHL1  H11B  184   4.487   5.922   9.983  0.8989 -0.7860  0.7779
    3CHL1    C9  185   4.634   5.768   9.946 -0.1772  0.2846  0.5346
    3CHL1    H9  186   4.552   5.694   9.939 -0.9570  1.1997 -0.2977
    3CHL1   C10  187   4.697   5.756  10.084 -0.1937  0.2442 -0.2047
    3CHL1   C19  188   4.785   5.881  10.113  0.5251 -0.6685  0.4227
    3CHL1  H19A  189   4.730   5.977  10.102  0.6280 -0.5458  0.9146
    3CHL1  H19B  190   4.805   5.889  10.223 -0.8380  1.2123  0.5753
    3CHL1  H19C  191   4.880   5.893  10.057  0.5896 -1.6272  0.3132
    3CHL1    C1  192   4.585   5.743  10.183 -0.1483 -0.0529  0.5069
    3CHL1   H1A  193   4.537   5.844  10.185  0.1351  0.2373 -2.6088
    3CHL1   H1B  194   4.505   5.677  10.144  0.8276 -2.0863  1.8199
    3CHL1    C2  195   4.631   5.717  10.328 -0.0986  0.5695 -0.4888
    3CHL1   H2A  196   4.551   5.691  10.400  0.9834 -0.7413  0.2822
    3CHL1   H2B  197   4.677   5.810  10.365  0.7408 -0.2467  0.5921
    3CHL1   C20  198   4.515   5.942   9.427 -0.0881 -0.5621 -0.0289
    3CHL1   H20  199   4.488   6.019   9.502 -0.8984 -0.4075 -0.4627
    3CHL1   C21  200   4.387   5.898   9.350  0.3746  0.5080  0.3784
    3CHL1  H21A  201   4.398   5.827   9.265 -0.1411  0.6184  0.2176
    3CHL1  H21B  202   4.355   5.992   9.300 -1.2427  0.8713  1.9754
    3CHL1  H21C  203   4.309   5.883   9.428  0.2206  1.2909  0.3906
    3CHL1   C22  204   4.620   5.991   9.331 -0.1999 -0.4913  0.8020
    3CHL1  H22A  205   4.723   6.005   9.371  0.8029 -1.5405 -1.2409
    3CHL1  H22B  206   4.626   5.923   9.244  2.7470  0.7608 -0.1009
    3CHL1   C23  207   4.589   6.126   9.261  0.5033  0.3740  1.0596
    3CHL1  H23A  208   4.542   6.110   9.162  0.0255 -2.0180  1.6128
    3CHL1  H23B  209   4.520   6.178   9.331 -0.4590 -0.8621  1.0763
    3CHL1   C24  210   4.716   6.218   9.244  1.0592  0.4559 -0.5569
    3CHL1  H24A  211   4.680   6.323   9.233  0.9515  0.4142 -0.6042
    3CHL1  H24B  212   4.774   6.216   9.339 -1.7012 -2.1163  1.2607
    3CHL1   C25  213   4.809   6.183   9.129 -0.2394  0.0150 -0.1058
    3CHL1   H25  214   4.818   6.072   9.125  0.5003 -0.2621  4.0654
    3CHL1   C26  215   4.745   6.231   9.002 -0.0384 -0.4252  0.4214
    3CHL1  H26A  216   4.659   6.169   8.970  0.9756 -1.6629  0.0105
    3CHL1  H26B  217   4.720   6.337   9.024 -0.5552 -0.8376  1.9427
    3CHL1  H26C  218   4.818   6.222   8.918 -0.6639  1.3374 -0.3567
    3CHL1   C27  219   4.951   6.244   9.154 -0.0204 -0.3613  0.0900
    3CHL1  H27A  220   5.015   6.210   9.070  1.2593 -4.1481  2.3331
    3CHL1  H27B  221   4.949   6.355   9.146 -1.9293 -0.5045 -4.8775
    3CHL1  H27C  222   5.002   6.211   9.247  0.4997 -1.3808 -0.5430
    4CHL1    C3  223   4.082   1.324  10.517  0.1902  0.0954  0.3876
    4CHL1    H3  224   3.980   1.351  10.481  0.5554 -0.4935 -1.1447
    4CHL1    O3  225   4.058   1.233  10.622 -0.6540  0.8265  0.1685
    4CHL1   H3'  226   4.144   1.230  10.665  1.0392  2.1181 -2.8567
    4CHL1    C4  227   4.156   1.255  10.401 -0.3352 -0.2059 -0.2162
    4CHL1   H4A  228   4.251   1.228  10.453 -0.7482  1.5336  1.5413
    4CHL1   H4B  229   4.092   1.170  10.369 -1.0640  1.3125 -3.1185
    4CHL1    C5  230   4.174   1.343  10.282 -0.6204  0.2785  0.4621
    4CHL1    C6  231   4.139   1.294  10.161 -0.4448 -0.2120  0.0026
    4CHL1    H6  232   4.101   1.192  10.145 -0.1705 -0.2223 -0.5929
    4CHL1    C7  233   4.162   1.384  10.041  0.5128  0.7832  0.0495
    4CHL1   H7A  234   4.208   1.330   9.955  1.4888  0.9085  0.4809
    4CHL1   H7B  235   4.063   1.415  10.000 -0.5613 -1.8795  0.4623
    4CHL1    C8  236   4.242   1.510  10.068 -0.5129  0.5326  0.2661
    4CHL1    H8  237   4.346   1.473  10.082 -0.6747 -0.6109 -1.3047
    4CHL1   C14  238   4.223   1.605   9.953 -0.2111  0.2869 -0.3679
    4CHL1   H14  239   4.119   1.647   9.955 -0.8118 -1.1967  1.2840
    4CHL1   C15  240   4.230   1.543   9.813  0.0347  0.2882  0.0549
    4CHL1  H15A  241   4.327   1.492   9.793  0.0684  1.1833 -2.3765
    4CHL1  H15B  242   4.156   1.464   9.785 -0.2347 -0.2019  1.9795
    4CHL1   C16  243   4.239   1.665   9.725  0.2813 -0.4291 -0.4627
    4CHL1  H16A  244   4.302   1.638   9.638 -0.2161 -1.8171 -0.4249
    4CHL1  H16B  245   4.136   1.701   9.702  0.7269  0.5848 -0.8980
    4CHL1   C17  246   4.295   1.782   9.813  0.1260  0.3939 -0.0613
    4CHL1   H17  247   4.219   1.862   9.828 -0.8556  0.1748 -3.1487
    4CHL1   C13  248   4.324   1.719   9.952  0.0999  0.3167 -0.0307
    4CHL1   C18  249   4.467   1.667   9.949 -0.0189 -0.4545 -0.3316
    4CHL1  H18A  250   4.488   1.599  10.034 -0.1918  0.4224  0.4412
    4CHL1  H18B  251   4.489   1.614   9.854 -1.1795 -1.7229  0.0709
    4CHL1  H18C  252   4.537   1.751   9.970 -1.4588  0.2246  2.3050
    4CHL1   C12  253   4.289   1.806  10.075  0.8254 -0.6548 -0.7255
    4CHL1  H12A  254   4.366   1.881  10.101  1.1970 -0.4934 -2.1844
    4CHL1  H12B  255   4.186   1.846  10.069  1.5545  1.2647 -1.4763
    4CHL1   C11  256   4.286   1.717  10.202 -0.2499  0.0292  1.0249
    4CHL1  H11A  257   4.393   1.689  10.212  0.7276  2.7622 -0.6786
    4CHL1  H11B  258   4.265   1.770  10.297  0.4683  1.1085  0.6005
    4CHL1    C9  259   4.203   1.583  10.187 -1.0824  0.7686 -0.6533
    4CHL1    H9  260   4.099   1.623  10.186 -1.3872  0.0361  0.1603
    4CHL1   C10  261   4.217   1.493  10.311 -0.2118  0.2135 -0.5069
    4CHL1   C19  262   4.366   1.488  10.353  0.2080 -0.0628 -0.1517
    4CHL1  H19A  263   4.374   1.427  10.446 -2.2694  1.7583  1.3817
    4CHL1  H19B  264   4.432   1.457  10.270 -0.5267 -0.0488 -0.7547
    4CHL1  H19C  265   4.398   1.589  10.388 -0.8391 -0.8873  3.7227
    4CHL1    C1  266   4.141   1.545  10.436  0.0679  0.5609  0.0315
    4CHL1   H1A  267   4.169   1.652  10.449 -0.1942  0.6042  0.2540
    4CHL1   H1B  268   4.033   1.550  10.411  0.6647  2.0277 -2.6194
    4CHL1    C2  269   4.140   1.455  10.561  0.3035  0.7728  0.7041
    4CHL1   H2A  270   4.067   1.499  10.633 -2.4104 -1.0013 -0.7980
    4CHL1   H2B  271   4.239   1.455  10.610 -0.4029  1.4130  2.1968
    4CHL1   C20  272   4.408   1.856   9.746  0.1011  0.0825 -0.3379
    4CHL1   H20  273   4.498   1.792   9.736  0.3424  0.0717  1.6103
    4CHL1   C21  274   4.431   1.985   9.830  0.4963  0.4313  0.2213
    4CHL1  H21A  275   4.347   2.056   9.845  0.7980  0.7857  0.2340
    4CHL1  H21B  276   4.509   2.049   9.783  1.2777 -0.9613 -0.4432
    4CHL1  H21C  277   4.466   1.953   9.930  0.9639 -2.1464 -0.6836
    4CHL1   C22  278   4.379   1.902   9.602 -0.4881 -0.5513  0.0037
    4CHL1  H22A  279   4.326   1.824   9.545  0.6276 -1.0546 -0.3808
    4CHL1  H22B  280   4.318   1.995   9.606 -0.1446 -0.3646  1.3895
    4CHL1   C23  281   4.492   1.927   9.503 -0.1007 -0.0423 -0.2035
    4CHL1  H23A  282   4.457   1.975   9.409 -0.8216  0.7228  0.4383
    4CHL1  H23B  283   4.573   1.982   9.557 -0.7892  1.5326 -0.7195
    4CHL1   C24  284   4.548   1.789   9.462  0.1611 -0.7293  0.2296
    4CHL1  H24A  285   4.589   1.739   9.553  1.2080 -1.3226 -0.5578
    4CHL1  H24B  286   4.478   1.726   9.404 -1.4589  0.6230  0.6186
    4CHL1   C25  287   4.662   1.809   9.357 -0.0021  0.2995  0.4391
    4CHL1   H25  288   4.737   1.875   9.404  0.4774  0.2659 -0.2569
    4CHL1   C26  289   4.741   1.672   9.347  0.2164 -0.0184  0.2095
    4CHL1  H26A  290   4.677   1.588   9.312 -0.4161  0.1662  0.9028
    4CHL1  H26B  291   4.825   1.686   9.275 -0.6372 -0.6133 -0.9517
    4CHL1  H26C  292   4.771   1.631   9.445 -1.2510 -1.6741  0.0057
    4CHL1   C27  293   4.611   1.855   9.219 -0.1943  0.7136  0.1741
    4CHL1  H27A  294   4.541   1.941   9.225 -2.8203 -1.2688 -0.5082
    4CHL1  H27B  295   4.706   1.881   9.166  1.4670 -1.0754  2.0928
    4CHL1  H27C  296   4.561   1.771   9.167 -0.1433  1.5838 -1.3411
    5CHL1    C3  297   5.327   5.827  10.129 -0.1991 -0.0283  0.7670
    5CHL1    H3  298   5.384   5.734  10.108  1.2706  0.5971  1.8164
    5CHL1    O3  299   5.339   5.844  10.268 -0.1579  0.2539 -0.1133
    5CHL1   H3'  300   5.268   5.907  10.284 -2.2719 -1.7976 -0.8545
    5CHL1    C4  301   5.393   5.944  10.053 -1.0446  0.9101 -0.0818
    5CHL1   H4A  302   5.366   6.041  10.099  1.0335  1.2061  0.6366
    5CHL1   H4B  303   5.501   5.927  10.075 -0.8083  3.3995  1.0544
    5CHL1    C5  304   5.370   5.921   9.903  0.2836  0.0131 -0.6347
    5CHL1    C6  305   5.478   5.912   9.818  0.6973  0.6381 -0.0704
    5CHL1    H6  306   5.574   5.934   9.868  1.3698 -0.1288 -0.9811
    5CHL1    C7  307   5.470   5.921   9.672 -0.2404 -0.3298  0.3232
    5CHL1   H7A  308   5.521   6.014   9.639  1.1836 -0.6883  1.4080
    5CHL1   H7B  309   5.522   5.835   9.624  2.2896  1.4247 -0.2778
    5CHL1    C8  310   5.323   5.926   9.619  0.3900 -0.4498 -0.0410
    5CHL1    H8  311   5.292   6.032   9.618 -2.3321 -1.1767 -0.9518
    5CHL1   C14  312   5.312   5.875   9.478  0.5349 -0.7775  0.5644
    5CHL1   H14  313   5.336   5.767   9.470 -0.7697 -0.9421 -2.2414
    5CHL1   C15  314   5.413   5.924   9.370  0.3644  0.1964  0.6454
    5CHL1  H15A  315   5.404   6.035   9.363 -0.8826  0.0360 -0.9061
    5CHL1  H15B  316   5.521   5.900   9.375  0.7531  2.0976  3.0284
    5CHL1   C16  317   5.359   5.860   9.244 -0.3236 -0.4993  0.1234
    5CHL1  H16A  318   5.367   5.939   9.166 -1.0781 -0.6108 -0.0797
    5CHL1  H16B  319   5.411   5.770   9.206  1.0616  0.6865 -0.9525
    5CHL1   C17  320   5.205   5.826   9.273  0.2416  0.9207  0.3692
    5CHL1   H17  321   5.203   5.716   9.287 -1.6236  1.0249  1.2482
    5CHL1   C13  322   5.176   5.884   9.409  0.1080 -1.0993 -0.0968
    5CHL1   C18  323   5.135   6.032   9.393  0.1389 -0.0489  0.3227
    5CHL1  H18A  324   5.146   6.088   9.488  0.8706 -0.3729  0.4343
    5CHL1  H18B  325   5.191   6.084   9.312 -1.8091  0.2577 -0.9134
    5CHL1  H18C  326   5.028   6.038   9.362  0.2521 -0.7432 -0.2477
    5CHL1   C12  327   5.079   5.807   9.498  0.2347 -0.2762 -0.1749
    5CHL1  H12A  328   4.977   5.825   9.458  0.9542  1.4317 -1.3570
    5CHL1  H12B  329   5.105   5.699   9.505  1.1542  0.0240  1.3988
    5CHL1   C11  330   5.079   5.864   9.643 -0.8376  0.1771 -0.0519
    5CHL1  H11A  331   5.044   5.970   9.638 -0.6270  0.3098  1.0652
    5CHL1  H11B  332   4.997   5.814   9.700 -0.9450 -0.5972 -0.8793
    5CHL1    C9  333   5.222   5.854   9.704  0.2021  0.1924  0.4365
    5CHL1    H9  334   5.256   5.749   9.707  0.7899  0.4028  2.0155
    5CHL1   C10  335   5.221   5.901   9.854  0.1495  0.1348  0.0224
    5CHL1   C19  336   5.146   6.034   9.866 -0.4789 -1.1984 -0.2451
    5CHL1  H19A  337   5.036   6.034   9.851 -0.9188  0.9840  2.1348
    5CHL1  H19B  338   5.162   6.082   9.965  1.0227 -2.1259 -0.0075
    5CHL1  H19C  339   5.188   6.104   9.791  1.9384 -1.7665  0.4833
    5CHL1    C1  340   5.162   5.780   9.940 -0.4860  0.5415  0.4325
    5CHL1   H1A  341   5.055   5.762   9.920 -0.3171  1.1482 -1.1543
    5CHL1   H1B  342   5.216   5.684   9.930 -0.4001  0.8036 -2.3857
    5CHL1    C2  343   5.176   5.812  10.090  0.0785 -0.0352 -0.0118
    5CHL1   H2A  344   5.140   5.741  10.167  1.0091 -1.4751 -0.8555
    5CHL1   H2B  345   5.115   5.903  10.112  2.5655  1.5188  0.8695
    5CHL1   C20  346   5.113   5.862   9.151 -0.0558 -0.6639 -1.1777
    5CHL1   H20  347   5.125   5.972   9.148  2.9635 -0.7959  0.9813
    5CHL1   C21  348   4.959   5.825   9.178 -0.4928 -0.2053 -0.2195
    5CHL1  H21A  349   4.925   5.878   9.270 -0.2271 -2.5353  1.3142
    5CHL1  H21B  350   4.944   5.718   9.201  0.2350 -0.4204 -0.7325
    5CHL1  H21C  351   4.893   5.866   9.099 -0.4772 -0.5881 -0.4275
    5CHL1   C22  352   5.167   5.789   9.028 -0.7952 -0.2974 -0.2659
    5CHL1  H22A  353   5.274   5.813   9.010 -1.2364  2.3272  0.2106
    5CHL1  H22B  354   5.157   5.680   9.048  0.3160 -0.5738 -1.1338
    5CHL1   C23  355   5.076   5.815   8.904 -0.0093 -0.1308 -0.8469
    5CHL1  H23A  356   4.986   5.755   8.933  1.3203 -1.8841 -0.1607
    5CHL1  H23B  357   5.042   5.920   8.913 -1.3974 -0.6935  1.3901
    5CHL1   C24  358   5.135   5.776   8.768 -0.2541  0.7266 -0.0985
    5CHL1  H24A  359   5.068   5.822   8.692  1.2199 -0.8855 -2.5063
    5CHL1  H24B  360   5.239   5.807   8.745 -0.6324  1.1256 -1.3500
    5CHL1   C25  361   5.130   5.629   8.743 -0.1928 -0.4786  0.2362
    5CHL1   H25  362   5.051   5.586   8.808 -0.2912 -2.0930 -0.8856
    5CHL1   C26  363   5.097   5.586   8.595  0.3721 -0.0147 -0.2338
    5CHL1  H26A  364   5.185   5.595   8.528  0.0469 -0.8874 -0.7841
    5CHL1  H26B  365   5.049   5.486   8.600 -2.4543  1.2488 -0.3834
    5CHL1  H26C  366   5.021   5.648   8.543 -0.0497  0.2841  0.7127
    5CHL1   C27  367   5.266   5.562   8.783 -0.7972 -0.6620 -0.3765
    5CHL1  H27A  368   5.291   5.579   8.889  1.8369  1.3247 -1.1973
    5CHL1  H27B  369   5.261   5.453   8.762  2.1277 -0.8070 -0.7884
    5CHL1  H27C  370   5.355   5.595   8.725 -0.2553 -0.6403  0.4567
    6CHL1    C3  371   3.228   2.657  10.507 -0.0828 -0.8396 -0.4566
    6CHL1    H3  372   3.196   2.761  10.482  2.4983  0.4740  1.2502
    6CHL1    O3  373   3.249   2.655  10.643 -0.1095  0.0247  0.3550
    6CHL1   H3'  374   3.192   2.719  10.687 -3.5641 -1.5199 -1.4263
    6CHL1    C4  375   3.111   2.562  10.474 -0.2331 -0.9529  0.5181
    6CHL1   H4A  376   3.142   2.461  10.509  1.0443 -1.1473 -1.0619
    6CHL1   H4B  377   3.018   2.579  10.532  0.3941  1.1690  0.9831
    6CHL1    C5  378   3.087   2.558  10.324  0.0724  0.2001  0.9716
    6CHL1    C6  379   2.963   2.592  10.279 -0.3440  0.2605 -0.7960
    6CHL1    H6  380   2.892   2.599  10.362  1.0946 -0.2576  0.5242
    6CHL1    C7  381   2.924   2.602  10.137  0.5190  0.1305  0.0717
    6CHL1   H7A  382   2.830   2.548  10.114  0.6029  0.4036 -0.9550
    6CHL1   H7B  383   2.906   2.706  10.104 -0.3597  0.2724  0.9563
    6CHL1    C8  384   3.035   2.549  10.042  0.1296 -0.2010  0.1384
    6CHL1    H8  385   3.027   2.439  10.052  2.1052 -0.3698  0.3349
    6CHL1   C14  386   3.012   2.613   9.905 -0.6698  0.9014 -0.2901
    6CHL1   H14  387   3.042   2.718   9.923 -0.8183  1.1859 -1.5936
    6CHL1   C15  388   2.870   2.607   9.841  0.2036 -0.2274 -0.1019
    6CHL1  H15A  389   2.831   2.508   9.874 -0.4362 -0.1286 -0.5412
    6CHL1  H15B  390   2.794   2.679   9.877  1.3685  0.5104  0.9303
    6CHL1   C16  391   2.897   2.612   9.689 -0.1524 -0.0622 -0.2894
    6CHL1  H16A  392   2.859   2.517   9.643 -1.0370  0.2787 -0.2929
    6CHL1  H16B  393   2.853   2.700   9.637 -2.8232 -1.2299 -0.1761
    6CHL1   C17  394   3.056   2.620   9.671  0.5895 -0.7082 -0.0691
    6CHL1   H17  395   3.070   2.729   9.688 -0.0444 -0.7711  0.9346
    6CHL1   C13  396   3.111   2.558   9.802  0.1306  0.1772  0.6411
    6CHL1   C18  397   3.114   2.404   9.783  0.1480 -0.5813 -0.3664
    6CHL1  H18A  398   3.202   2.370   9.725 -1.0050 -1.0266 -1.8874
    6CHL1  H18B  399   3.124   2.348   9.879 -1.5994 -0.4557 -0.0817
    6CHL1  H18C  400   3.028   2.372   9.721 -0.6065 -2.2036  1.3933
    6CHL1   C12  401   3.254   2.592   9.838 -0.0038  0.3143  0.5621
    6CHL1  H12A  402   3.315   2.546   9.757 -1.0420  0.7308 -0.4781
    6CHL1  H12B  403   3.289   2.698   9.844  2.5079 -0.4626  0.6572
    6CHL1   C11  404   3.289   2.547   9.982  0.0349 -0.8435  0.0379
    6CHL1  H11A  405   3.309   2.438   9.974  3.0205 -0.3262 -1.1743
    6CHL1  H11B  406   3.386   2.593  10.012 -0.5402  1.3662 -1.2969
    6CHL1    C9  407   3.179   2.582  10.087  0.0227 -0.1710 -0.1120
    6CHL1    H9  408   3.174   2.693  10.080  0.3756 -0.1564 -0.1343
    6CHL1   C10  409   3.211   2.540  10.236  0.0368 -0.0244  0.1250
    6CHL1   C19  410   3.228   2.385  10.244 -0.4320  0.3244  0.2877
    6CHL1  H19A  411   3.255   2.355  10.348  0.3056  0.7678  0.2368
    6CHL1  H19B  412   3.140   2.328  10.207 -1.6659  1.3434  1.5217
    6CHL1  H19C  413   3.313   2.349  10.182 -1.1372 -0.8110 -0.0410
    6CHL1    C1  414   3.335   2.615  10.278 -0.7190 -0.8658 -0.2222
    6CHL1   H1A  415   3.417   2.567  10.221 -0.2443  0.2216 -0.4784
    6CHL1   H1B  416   3.325   2.722  10.251 -0.1355 -0.8223 -0.2739
    6CHL1    C2  417   3.354   2.618  10.429 -0.0766  0.0859 -0.0162
    6CHL1   H2A  418   3.433   2.692  10.453 -1.0930  1.0384  0.4994
    6CHL1   H2B  419   3.389   2.521  10.471 -0.8756 -0.1710  0.0929
    6CHL1   C20  420   3.118   2.587   9.537 -0.5128 -0.6012  0.1474
    6CHL1   H20  421   3.177   2.494   9.555  0.9956  0.0230 -1.2693
    6CHL1   C21  422   3.225   2.689   9.503 -0.6273 -0.0950 -0.0203
    6CHL1  H21A  423   3.297   2.655   9.426 -0.8508 -0.2465 -0.1642
    6CHL1  H21B  424   3.291   2.698   9.592  0.2863 -0.0003 -0.7015
    6CHL1  H21C  425   3.178   2.787   9.480  0.1628 -0.0566 -1.6360
    6CHL1   C22  426   3.023   2.561   9.417 -0.5187  0.3300  0.1764
    6CHL1  H22A  427   2.968   2.465   9.430 -0.1916  0.0743 -0.3109
    6CHL1  H22B  428   2.959   2.651   9.405 -0.8811 -0.1053 -1.3996
    6CHL1   C23  429   3.098   2.526   9.285 -0.0370 -0.0047 -0.0312
    6CHL1  H23A  430   3.147   2.624   9.263 -2.8990  1.2754 -1.2322
    6CHL1  H23B  431   3.170   2.445   9.306 -0.5240 -1.3624 -3.0476
    6CHL1   C24  432   3.005   2.493   9.165  0.3557 -0.6570 -0.0183
    6CHL1  H24A  433   2.906   2.541   9.176 -0.6227 -2.5186 -0.3714
    6CHL1  H24B  434   3.046   2.538   9.072 -2.0427 -0.0951 -0.8589
    6CHL1   C25  435   2.990   2.344   9.139 -0.2909 -0.0321  0.3828
    6CHL1   H25  436   2.984   2.283   9.231 -0.2549 -0.3464  0.1782
    6CHL1   C26  437   2.864   2.316   9.060 -0.4098 -0.1179  0.0207
    6CHL1  H26A  438   2.867   2.376   8.967 -3.0056 -0.9315 -0.6936
    6CHL1  H26B  439   2.854   2.206   9.047  0.3787 -0.4478  1.8659
    6CHL1  H26C  440   2.784   2.352   9.129  1.2318  1.7110  1.0741
    6CHL1   C27  441   3.117   2.292   9.055 -0.2500 -0.0677 -0.2320
    6CHL1  H27A  442   3.198   2.277   9.129 -0.9335 -0.9453  0.3500
    6CHL1  H27B  443   3.092   2.195   9.008  0.3625  0.3497 -1.4684
    6CHL1  H27C  444   3.148   2.362   8.974  0.4378 -1.6173 -1.3599
    7CHL1    C3  445   6.166   0.274  10.516 -0.6298  0.5249 -0.4675
    7CHL1    H3  446   6.232   0.363  10.526  1.7551 -1.2970  1.2375
    7CHL1    O3  447   6.141   0.234  10.646  0.4535 -0.1507  0.0548
    7CHL1   H3'  448   6.116   0.318  10.686 -0.7787 -0.7265  0.5515
    7CHL1    C4  449   6.041   0.315  10.441 -0.1659 -0.1257 -0.2314
    7CHL1   H4A  450   5.968   0.233  10.456 -1.3828  0.0037 -4.1751
    7CHL1   H4B  451   5.991   0.394  10.501  0.6813  0.2150  0.0454
    7CHL1    C5  452   6.060   0.351  10.298 -0.2119 -0.7262 -0.1227
    7CHL1    C6  453   6.030   0.469  10.242 -0.1436  0.0689 -0.2435
    7CHL1    H6  454   5.994   0.549  10.307  2.0175 -0.3475  1.6029
    7CHL1    C7  455   6.050   0.512  10.104 -0.1476 -0.7022  0.1012
    7CHL1   H7A  456   5.958   0.566  10.071  1.4815  1.2869 -1.4204
    7CHL1   H7B  457   6.131   0.588  10.106 -1.1723  0.5161  3.2984
    7CHL1    C8  458   6.080   0.396  10.014 -0.1105  0.5685 -0.0044
    7CHL1    H8  459   5.983   0.344  10.002  0.4359 -0.8146  1.1975
    7CHL1   C14  460   6.125   0.441   9.875  0.1277 -0.1095 -0.2237
    7CHL1   H14  461   6.221   0.495   9.887 -0.2292  0.3697  0.5870
    7CHL1   C15  462   6.035   0.537   9.803  0.1245 -0.2278  0.8036
    7CHL1  H15A  463   5.929   0.518   9.828  0.0232  0.4876  0.9434
    7CHL1  H15B  464   6.059   0.643   9.828 -0.6736 -0.2831  1.8689
    7CHL1   C16  465   6.082   0.523   9.653  0.5742 -0.2849 -0.0596
    7CHL1  H16A  466   5.998   0.498   9.585  0.5813 -1.2143  0.2541
    7CHL1  H16B  467   6.125   0.621   9.623  0.0748 -0.5408 -1.6691
    7CHL1   C17  468   6.178   0.404   9.643  0.0880  0.8335  0.6361
    7CHL1   H17  469   6.282   0.444   9.644  0.5548 -0.2966  0.0525
    7CHL1   C13  470   6.148   0.328   9.773 -0.1397  0.1171  0.5800
    7CHL1   C18  471   6.018   0.250   9.743  0.6440 -0.3116 -0.3211
    7CHL1  H18A  472   5.969   0.220   9.838 -2.4059  0.7087 -1.4464
    7CHL1  H18B  473   5.938   0.310   9.694 -2.1431 -1.2959  2.6161
    7CHL1  H18C  474   6.048   0.159   9.688 -0.1910 -0.1069 -1.1368
    7CHL1   C12  475   6.265   0.244   9.829  0.0677 -0.1514 -0.3124
    7CHL1  H12A  476   6.311   0.164   9.768 -0.7296  0.0089 -1.1520
    7CHL1  H12B  477   6.350   0.316   9.839  0.6433 -0.9644  0.7742
    7CHL1   C11  478   6.239   0.192   9.973  0.4492 -0.0931  0.8013
    7CHL1  H11A  479   6.174   0.102   9.959  0.3224  0.0323  0.5808
    7CHL1  H11B  480   6.326   0.151  10.029 -0.3417 -2.2378  0.5519
    7CHL1    C9  481   6.182   0.296  10.078  0.0800  0.1341  0.8249
    7CHL1    H9  482   6.273   0.350  10.112  2.0395 -1.7274 -1.1137
    7CHL1   C10  483   6.134   0.249  10.212 -0.1199  0.2547 -0.1532
    7CHL1   C19  484   6.042   0.132  10.192 -0.2713  0.2487  0.3674
    7CHL1  H19A  485   5.995   0.089  10.283  0.7537 -2.7708 -0.4278
    7CHL1  H19B  486   5.963   0.156  10.117 -0.1193 -1.3951 -0.3582
    7CHL1  H19C  487   6.105   0.057  10.140 -0.1125  1.4825 -1.3202
    7CHL1    C1  488   6.254   0.193  10.297  0.1720  0.0921  0.2356
    7CHL1   H1A  489   6.316   0.116  10.246  0.2054  0.6717 -0.6226
    7CHL1   H1B  490   6.320   0.281  10.310 -1.1151  1.2758 -0.9547
    7CHL1    C2  491   6.233   0.157  10.443  0.2035  0.7163 -0.0771
    7CHL1   H2A  492   6.334   0.155  10.487  0.0473  0.0279  0.2630
    7CHL1   H2B  493   6.189   0.055  10.459  0.0548  0.9390  1.0235
    7CHL1   C20  494   6.166   0.330   9.507  0.5267  0.3479 -0.2529
    7CHL1   H20  495   6.074   0.268   9.502  0.2147  0.6914  1.0137
    7CHL1   C21  496   6.284   0.236   9.483 -0.4596 -0.0316  0.1342
    7CHL1  H21A  497   6.375   0.294   9.509 -0.3732 -0.2157  0.2350
    7CHL1  H21B  498   6.304   0.202   9.379  3.5639 -0.8894  1.0483
    7CHL1  H21C  499   6.265   0.142   9.539  1.9230 -1.6664 -1.6299
    7CHL1   C22  500   6.155   0.427   9.384  0.4898 -0.4235  0.4594
    7CHL1  H22A  501   6.084   0.509   9.410  1.0711  0.1922  0.1536
    7CHL1  H22B  502   6.258   0.470   9.382  0.8099 -1.1960 -0.1718
    7CHL1   C23  503   6.127   0.360   9.252 -0.1384  0.0869  0.6100
    7CHL1  H23A  504   6.215   0.303   9.215 -0.3401  0.5699 -0.6768
    7CHL1  H23B  505   6.042   0.290   9.256 -1.9209  2.1793  1.5424
    7CHL1   C24  506   6.103   0.456   9.132 -0.0206 -0.0393 -0.1008
    7CHL1  H24A  507   6.002   0.499   9.147  0.0913 -0.5861  2.7859
    7CHL1  H24B  508   6.180   0.535   9.144 -0.3151  0.0839  1.1348
    7CHL1   C25  509   6.113   0.394   8.991  0.6131 -0.5928  0.4354
    7CHL1   H25  510   6.215   0.351   8.980  0.7035 -0.0482 -0.9673
    7CHL1   C26  511   6.011   0.281   8.978  0.0466  0.8459  0.3537
    7CHL1  H26A  512   5.907   0.317   8.968  0.0329  0.5958 -0.4904
    7CHL1  H26B  513   6.047   0.229   8.886 -0.8834  2.9006 -1.2325
    7CHL1  H26C  514   6.007   0.210   9.064  0.0881 -0.4020 -0.6393
    7CHL1   C27  515   6.098   0.502   8.877  0.6734  0.3157 -0.2824
    7CHL1  H27A  516   6.123   0.458   8.778 -1.3205 -0.2285 -0.5994
    7CHL1  H27B  517   5.993   0.540   8.870  0.0476 -0.9270  1.5319
    7CHL1  H27C  518   6.153   0.596   8.900  0.0050  0.7187 -0.2735
    8CHL1    C3  519   0.009   1.405  10.538  0.6905 -0.2254 -0.4058
    8CHL1    H3  520   0.120   1.415  10.538  0.9037 -2.1178 -1.5120
    8CHL1    O3  521  -0.040   1.380  10.672 -0.1613  0.2809  0.1520
    8CHL1   H3'  522  -0.001   1.295  10.694  2.6514  1.4807  0.2185
    8CHL1    C4  523  -0.064   1.538  10.485  0.8470 -0.4297 -0.2315
    8CHL1   H4A  524  -0.173   1.538  10.507  0.0788 -1.3566 -3.4244
    8CHL1   H4B  525  -0.019   1.618  10.547 -0.4114  1.5322 -1.7133
    8CHL1    C5  526  -0.032   1.568  10.342  0.0330 -0.3655  0.4050
    8CHL1    C6  527   0.031   1.686  10.307 -0.5958  0.0104 -0.2709
    8CHL1    H6  528   0.064   1.755  10.385  1.4883  1.7960 -2.5709
    8CHL1    C7  529   0.071   1.730  10.170 -0.2437  0.2497 -0.9420
    8CHL1   H7A  530   0.051   1.839  10.163  0.3089  0.4961  0.7580
    8CHL1   H7B  531   0.182   1.726  10.162 -0.1683  1.2456 -0.5651
    8CHL1    C8  532   0.006   1.635  10.064 -0.2916 -0.1209  0.0240
    8CHL1    H8  533  -0.100   1.666  10.065 -0.2954 -0.1291 -0.0684
    8CHL1   C14  534   0.069   1.657   9.928  0.0183 -0.1765 -0.1373
    8CHL1   H14  535   0.171   1.614   9.937 -1.1335 -3.1559  0.0668
    8CHL1   C15  536   0.093   1.801   9.886  0.0787 -0.6471 -0.1394
    8CHL1  H15A  537  -0.007   1.849   9.897  0.7652  0.4967  1.5643
    8CHL1  H15B  538   0.170   1.858   9.942 -1.0793  0.4647  0.3721
    8CHL1   C16  539   0.125   1.781   9.738 -0.3488 -0.2441 -0.5930
    8CHL1  H16A  540   0.045   1.841   9.690 -2.9615 -0.8565  2.6831
    8CHL1  H16B  541   0.226   1.812   9.702  0.5446 -0.8456  1.2919
    8CHL1   C17  542   0.107   1.626   9.703  0.3857  0.3194  0.1108
    8CHL1   H17  543   0.207   1.579   9.718  0.8105  1.0943 -0.2331
    8CHL1   C13  544   0.010   1.570   9.810  0.3682 -0.8954 -0.1978
    8CHL1   C18  545  -0.143   1.614   9.785 -0.0256 -0.0294 -0.0033
    8CHL1  H18A  546  -0.196   1.625   9.882  0.3749  0.5191  0.1556
    8CHL1  H18B  547  -0.149   1.705   9.721 -1.8481  1.2413  1.8531
    8CHL1  H18C  548  -0.187   1.530   9.727 -0.6238 -0.3267  0.8713
    8CHL1   C12  549   0.029   1.418   9.856  0.1115  0.2397 -0.4843
    8CHL1  H12A  550  -0.002   1.340   9.783 -1.2672 -0.5034  0.8305
    8CHL1  H12B  551   0.135   1.386   9.863 -0.4293 -1.4020  1.1130
    8CHL1   C11  552  -0.040   1.392   9.992  0.0556  0.9107 -0.2533
    8CHL1  H11A  553  -0.151   1.403   9.990 -0.0882 -0.4554 -1.5034
    8CHL1  H11B  554  -0.013   1.288  10.019  0.9773  0.4546 -2.6396
    8CHL1    C9  555   0.012   1.485  10.103  0.2226  0.0703 -1.4633
    8CHL1    H9  556   0.117   1.459  10.128  0.3121  1.8509  0.3057
    8CHL1   C10  557  -0.061   1.456  10.240 -0.1179  0.1657  0.2973
    8CHL1   C19  558  -0.207   1.456  10.224 -0.2422 -0.0848  1.0383
    8CHL1  H19A  559  -0.242   1.369  10.165  1.1469 -0.1091  0.1770
    8CHL1  H19B  560  -0.252   1.448  10.324 -0.6611 -0.0109  0.8567
    8CHL1  H19C  561  -0.249   1.548  10.178 -0.8929 -1.3077 -0.9696
    8CHL1    C1  562  -0.007   1.321  10.297  0.5588  0.6070  0.4202
    8CHL1   H1A  563  -0.052   1.234  10.245 -0.1905  0.9147  0.5380
    8CHL1   H1B  564   0.100   1.328  10.268  0.4899  0.7987  0.2120
    8CHL1    C2  565  -0.035   1.283  10.446 -0.2646  1.1598  0.7898
    8CHL1   H2A  566   0.026   1.202  10.492  1.4520  1.4078 -0.9391
    8CHL1   H2B  567  -0.145   1.270  10.458 -0.6063  1.2348 -1.6656
    8CHL1   C20  568   0.072   1.603   9.557 -0.6599  0.0346 -0.1978
    8CHL1   H20  569  -0.025   1.654   9.540 -0.3086  0.0675 -2.3222
    8CHL1   C21  570   0.076   1.451   9.535  0.1709 -0.0672 -0.1773
    8CHL1  H21A  571   0.178   1.416   9.561  1.9973  2.1227 -3.6325
    8CHL1  H21B  572   0.064   1.432   9.426  2.8353 -1.3933 -0.3352
    8CHL1  H21C  573  -0.005   1.406   9.597  0.7252  0.2502  0.7847
    8CHL1   C22  574   0.171   1.675   9.463 -0.0104 -0.5103  0.3038
    8CHL1  H22A  575   0.166   1.782   9.491 -1.5412 -0.1969 -0.9861
    8CHL1  H22B  576   0.272   1.636   9.488 -0.1349 -2.2144 -1.5391
    8CHL1   C23  577   0.126   1.684   9.315  0.2341  0.5197  0.0937
    8CHL1  H23A  578   0.077   1.587   9.290  3.1826 -1.2329  0.5838
    8CHL1  H23B  579   0.054   1.767   9.301 -0.3470  0.0045  0.0010
    8CHL1   C24  580   0.244   1.700   9.222 -0.2306 -0.2286 -0.1705
    8CHL1  H24A  581   0.287   1.802   9.235  3.3118 -1.3722 -1.6019
    8CHL1  H24B  582   0.323   1.625   9.246 -0.4166 -0.9139 -1.5670
    8CHL1   C25  583   0.189   1.671   9.081  0.3449  0.0000 -0.7521
    8CHL1   H25  584   0.139   1.572   9.078 -1.0671  0.6965 -1.0273
    8CHL1   C26  585   0.097   1.778   9.020  0.1386  0.1787  0.1821
    8CHL1  H26A  586   0.132   1.873   9.066  0.1278 -0.3938  1.4274
    8CHL1  H26B  587   0.097   1.781   8.909  0.2555  1.5679  0.1955
    8CHL1  H26C  588  -0.008   1.765   9.056  0.2585  1.0784  0.8982
    8CHL1   C27  589   0.307   1.648   8.980 -0.1278 -0.4512  0.0096
    8CHL1  H27A  590   0.349   1.749   8.963 -0.6071 -0.0055  1.3732
    8CHL1  H27B  591   0.383   1.590   9.037 -0.0751  0.5040  0.9570
    8CHL1  H27C  592   0.286   1.611   8.878 -4.2657  1.5104 -0.0289
    9CHL1    C3  593   2.366   3.879  10.208  0.1778  0.1820 -0.5139
    9CHL1    H3  594   2.255   3.875  10.206  0.0203 -0.3505  2.9021
    9CHL1    O3  595   2.407   3.875  10.346  0.4236  0.6121  1.3403
    9CHL1   H3'  596   2.501   3.889  10.334 -0.0617  1.7057 -2.4622
    9CHL1    C4  597   2.433   3.761  10.135  0.4087  0.5617  0.4167
    9CHL1   H4A  598   2.543   3.760  10.151  0.4330  1.1786  0.2987
    9CHL1   H4B  599   2.399   3.665  10.179 -2.5282  0.9382 -0.8192
    9CHL1    C5  600   2.405   3.762   9.984 -0.3818 -0.4132 -0.4277
    9CHL1    C6  601   2.345   3.653   9.924  0.1334  0.0343 -0.0523
    9CHL1    H6  602   2.320   3.568   9.990 -0.8041 -0.1970 -0.6881
    9CHL1    C7  603   2.315   3.647   9.776 -0.6135 -0.5218  0.1180
    9CHL1   H7A  604   2.338   3.547   9.733 -2.0407  0.0102 -2.0093
    9CHL1   H7B  605   2.206   3.655   9.757 -0.9220 -1.3951  1.3745
    9CHL1    C8  606   2.394   3.759   9.701  0.8744 -0.0419  0.2945
    9CHL1    H8  607   2.501   3.729   9.689  1.8349  1.8966  2.8900
    9CHL1   C14  608   2.339   3.770   9.554  0.9629 -0.4318 -0.3209
    9CHL1   H14  609   2.233   3.802   9.552 -0.1140 -3.6086  0.4719
    9CHL1   C15  610   2.334   3.635   9.474  0.7141  0.5437  0.4923
    9CHL1  H15A  611   2.417   3.565   9.499 -0.3213 -0.8372  0.1532
    9CHL1  H15B  612   2.243   3.582   9.509  0.3640 -0.6446 -1.9861
    9CHL1   C16  613   2.309   3.689   9.321 -0.0346 -0.8689 -0.0382
    9CHL1  H16A  614   2.385   3.653   9.247 -1.7939 -0.1809 -2.2792
    9CHL1  H16B  615   2.207   3.662   9.286  0.0586  1.6968 -2.7501
    9CHL1   C17  616   2.326   3.846   9.331  0.3246  0.2696 -0.5757
    9CHL1   H17  617   2.230   3.894   9.358  1.4488  1.3155  1.9440
    9CHL1   C13  618   2.403   3.869   9.461 -0.0031  0.1090  0.4872
    9CHL1   C18  619   2.549   3.835   9.436  0.0244  0.7451  0.0008
    9CHL1  H18A  620   2.606   3.916   9.386 -1.7277  0.4086 -2.7608
    9CHL1  H18B  621   2.607   3.824   9.530  0.1382  0.9386 -0.0439
    9CHL1  H18C  622   2.570   3.743   9.377 -0.3198 -0.3727  1.5598
    9CHL1   C12  623   2.389   4.010   9.529  0.7200  0.3896  0.0861
    9CHL1  H12A  624   2.440   4.087   9.468 -0.0702 -2.2846 -4.3271
    9CHL1  H12B  625   2.285   4.048   9.525  0.2153 -0.8486  0.7658
    9CHL1   C11  626   2.442   4.015   9.680  0.1083 -0.6172 -0.1149
    9CHL1  H11A  627   2.552   4.004   9.676  0.2292 -0.5172  1.8014
    9CHL1  H11B  628   2.425   4.108   9.739 -2.3228 -0.9175 -0.2249
    9CHL1    C9  629   2.392   3.899   9.772  0.5584  0.7050 -0.1114
    9CHL1    H9  630   2.285   3.927   9.770  0.1263 -0.8686 -0.7462
    9CHL1   C10  631   2.435   3.897   9.915 -0.6671  0.2170  0.0519
    9CHL1   C19  632   2.584   3.912   9.914 -0.4372 -0.4071  0.0194
    9CHL1  H19A  633   2.616   4.009   9.872 -0.3293  0.6798  2.4105
    9CHL1  H19B  634   2.629   3.910  10.016  1.8050  0.5227 -0.8831
    9CHL1  H19C  635   2.636   3.833   9.855 -0.3930  0.3687 -0.9953
    9CHL1    C1  636   2.368   4.009   9.994  0.4003 -0.5971  0.4928
    9CHL1   H1A  637   2.416   4.102   9.958  1.0421 -0.4524  1.6763
    9CHL1   H1B  638   2.257   4.016   9.994  0.4736  2.2575 -1.8762
    9CHL1    C2  639   2.405   4.012  10.143  0.3383  0.0626 -0.1885
    9CHL1   H2A  640   2.348   4.092  10.196 -0.3473 -1.5867  1.6532
    9CHL1   H2B  641   2.514   4.026  10.159  0.4038 -0.5105 -0.1214
    9CHL1   C20  642   2.377   3.917   9.209 -0.1072  0.3347  0.1067
    9CHL1   H20  643   2.470   3.867   9.174 -0.8892 -1.2140  0.1822
    9CHL1   C21  644   2.400   4.069   9.218  0.3048  0.7781 -0.0304
    9CHL1  H21A  645   2.316   4.124   9.264  1.0173  0.2955  1.9558
    9CHL1  H21B  646   2.393   4.117   9.118 -2.1283 -2.3955 -1.5569
    9CHL1  H21C  647   2.494   4.102   9.267 -0.6825  1.3268  1.5503
    9CHL1   C22  648   2.277   3.888   9.090  0.0093 -0.4933 -0.3725
    9CHL1  H22A  649   2.306   3.950   9.002  0.2459 -0.2579 -0.1309
    9CHL1  H22B  650   2.304   3.784   9.063 -0.2736 -1.0163  1.2724
    9CHL1   C23  651   2.125   3.893   9.120  0.2117 -0.0511 -0.1803
    9CHL1  H23A  652   2.086   3.807   9.178  1.6802  0.8461  2.2520
    9CHL1  H23B  653   2.103   3.983   9.179 -3.4328 -2.5847  2.7672
    9CHL1   C24  654   2.042   3.904   8.991  0.9518  0.9138  0.1321
    9CHL1  H24A  655   2.059   4.002   8.942  1.3084  0.7556 -0.0643
    9CHL1  H24B  656   2.068   3.817   8.926  2.9812  0.8447  0.9679
    9CHL1   C25  657   1.884   3.895   9.012 -0.0825 -0.4641  0.8745
    9CHL1   H25  658   1.865   3.804   9.073  0.3783 -0.2501  1.3495
    9CHL1   C26  659   1.837   4.019   9.091 -0.9814  0.5819 -0.1280
    9CHL1  H26A  660   1.892   4.110   9.059 -0.1763  0.1097 -0.1060
    9CHL1  H26B  661   1.732   4.039   9.062 -0.7070  1.4413 -0.5546
    9CHL1  H26C  662   1.856   4.004   9.200  3.4422  0.4133 -0.7307
    9CHL1   C27  663   1.821   3.879   8.870  0.7789  0.8404  0.6219
    9CHL1  H27A  664   1.868   3.791   8.821  0.5238 -0.1499  2.0943
    9CHL1  H27B  665   1.710   3.877   8.872  0.6546  2.7440 -1.2735
    9CHL1  H27C  666   1.836   3.967   8.804 -3.0749  1.1719 -0.0294
   10CHL1    C3  667   1.761   2.369  10.116 -0.3189 -0.8284  0.4408
   10CHL1    H3  668   1.677   2.312  10.071 -0.1752 -1.5500  1.0615
   10CHL1    O3  669   1.728   2.414  10.245 -0.2223 -0.4943  0.3992
   10CHL1   H3'  670   1.670   2.490  10.244 -0.7284 -0.8800 -0.5047
   10CHL1    C4  671   1.884   2.283  10.120 -0.0120 -0.1547 -0.5196
   10CHL1   H4A  672   1.960   2.341  10.178  1.2479 -1.3036 -0.9755
   10CHL1   H4B  673   1.860   2.192  10.178  0.6521  1.3506  2.3245
   10CHL1    C5  674   1.928   2.248   9.976 -0.4910 -0.5591 -0.3250
   10CHL1    C6  675   1.941   2.123   9.942  0.1907  0.5761  0.6164
   10CHL1    H6  676   1.927   2.038  10.011  1.0011  0.3098  0.4594
   10CHL1    C7  677   1.986   2.073   9.810  0.9190 -0.1287 -0.6209
   10CHL1   H7A  678   2.068   1.999   9.822 -0.2663 -1.5809 -1.0892
   10CHL1   H7B  679   1.910   2.006   9.764  0.3622 -1.1910  1.7091
   10CHL1    C8  680   2.036   2.187   9.721  0.7503  0.7987 -0.4270
   10CHL1    H8  681   2.143   2.212   9.736  0.8533  1.0218 -1.4428
   10CHL1   C14  682   2.028   2.147   9.572 -0.3765  0.3659 -0.0515
   10CHL1   H14  683   1.917   2.146   9.565 -0.6360  0.0930  2.8970
   10CHL1   C15  684   2.085   2.004   9.536 -0.0258  0.0320  0.1507
   10CHL1  H15A  685   2.191   1.996   9.568 -0.1295 -0.1496  0.4571
   10CHL1  H15B  686   2.020   1.925   9.581 -2.0945  1.6948  0.2358
   10CHL1   C16  687   2.067   2.008   9.382 -0.3666 -0.0717  0.3815
   10CHL1  H16A  688   2.167   1.986   9.340 -0.8260  0.4286 -1.0703
   10CHL1  H16B  689   1.983   1.943   9.349 -1.3168  0.6237  1.3436
   10CHL1   C17  690   2.036   2.161   9.342  0.1571 -0.5212  0.0017
   10CHL1   H17  691   1.926   2.166   9.332  0.0704 -0.1157  0.9702
   10CHL1   C13  692   2.072   2.243   9.473 -0.6619  0.3751  0.2923
   10CHL1   C18  693   2.230   2.272   9.479  0.0397  0.4549 -0.6199
   10CHL1  H18A  694   2.287   2.184   9.440 -0.6922 -0.3773  0.1453
   10CHL1  H18B  695   2.257   2.363   9.422  3.5949 -0.0398  0.0040
   10CHL1  H18C  696   2.261   2.291   9.584 -0.0694  1.4895 -0.7658
   10CHL1   C12  697   1.987   2.373   9.484 -0.5078  1.0412  0.3620
   10CHL1  H12A  698   2.031   2.449   9.416  0.8561  0.2386  0.3063
   10CHL1  H12B  699   1.886   2.344   9.449  0.1340 -0.7354 -0.1265
   10CHL1   C11  700   1.991   2.421   9.629  0.5301  0.3391  0.2368
   10CHL1  H11A  701   2.090   2.468   9.646  2.0229 -1.4168 -2.6564
   10CHL1  H11B  702   1.911   2.496   9.647 -1.3446 -1.3435 -0.6171
   10CHL1    C9  703   1.952   2.316   9.732  0.3321  0.2501  0.6747
   10CHL1    H9  704   1.852   2.283   9.699  0.6002  0.8384 -0.8004
   10CHL1   C10  705   1.936   2.366   9.880 -0.4240 -0.9992  0.3371
   10CHL1   C19  706   2.062   2.437   9.905  0.4804 -0.8120 -0.6741
   10CHL1  H19A  707   2.156   2.381   9.887  0.9848 -0.2392  0.0850
   10CHL1  H19B  708   2.055   2.533   9.849  2.2846  0.1128  0.5718
   10CHL1  H19C  709   2.061   2.471  10.011  0.2027  0.4780 -1.0642
   10CHL1    C1  710   1.827   2.479   9.895  0.2275 -0.5083  1.2020
   10CHL1   H1A  711   1.840   2.575   9.842 -3.0015  0.3796  1.8033
   10CHL1   H1B  712   1.737   2.436   9.846  0.4046  0.9552 -0.5288
   10CHL1    C2  713   1.794   2.500  10.042  0.0909 -0.0945  0.6135
   10CHL1   H2A  714   1.706   2.568  10.041 -0.6505 -0.9657  2.2755
   10CHL1   H2B  715   1.883   2.547  10.090  2.1755 -2.4521 -0.6845
   10CHL1   C20  716   2.105   2.210   9.212  0.2106 -0.6063 -0.3898
   10CHL1   H20  717   2.214   2.194   9.226  0.1924 -0.1513  0.3493
   10CHL1   C21  718   2.080   2.357   9.177 -0.1309  0.1715 -0.4065
   10CHL1  H21A  719   2.133   2.427   9.245 -0.2454 -0.1074 -0.0285
   10CHL1  H21B  720   1.969   2.363   9.188 -0.0602 -0.2319  0.6046
   10CHL1  H21C  721   2.103   2.376   9.070 -0.4727 -1.6627 -0.8337
   10CHL1   C22  722   2.069   2.117   9.088  0.1684  0.1981 -0.3769
   10CHL1  H22A  723   2.070   2.012   9.127  0.3733  1.0341  2.0846
   10CHL1  H22B  724   1.968   2.139   9.048 -0.2153  2.2395  1.5203
   10CHL1   C23  725   2.169   2.135   8.965  0.3985 -0.8998 -1.0191
   10CHL1  H23A  726   2.121   2.085   8.878 -2.3825 -0.5996  0.2337
   10CHL1  H23B  727   2.178   2.244   8.943  0.8331 -0.6240  0.4372
   10CHL1   C24  728   2.308   2.065   8.990  0.5677  0.1489  0.4525
   10CHL1  H24A  729   2.349   2.094   9.089  0.4503 -0.1335  0.5859
   10CHL1  H24B  730   2.303   1.955   9.004 -1.0754  0.1359  0.0317
   10CHL1   C25  731   2.412   2.093   8.880 -0.5929 -0.0755  0.5089
   10CHL1   H25  732   2.405   2.203   8.862  0.8573 -0.1073 -0.4172
   10CHL1   C26  733   2.548   2.050   8.935 -0.1984  0.0219 -0.0835
   10CHL1  H26A  734   2.549   1.939   8.939  0.7574  0.0330  0.2367
   10CHL1  H26B  735   2.628   2.076   8.861 -1.5208  1.9365 -0.9303
   10CHL1  H26C  736   2.565   2.087   9.038  0.5463  0.8229 -0.4776
   10CHL1   C27  737   2.387   2.030   8.738 -0.7128  0.0582  0.0476
   10CHL1  H27A  738   2.309   2.066   8.669 -0.2449 -0.9662 -1.0521
   10CHL1  H27B  739   2.479   2.027   8.676  0.1334  1.4740  1.1615
   10CHL1  H27C  740   2.353   1.928   8.765 -1.1880  0.1351 -0.2581
   11CHL1    C3  741   3.721   5.120  10.096  0.0703 -0.0754  0.4331
   11CHL1    H3  742   3.637   5.049  10.080  1.6992 -1.9724 -0.1037
   11CHL1    O3  743   3.761   5.111  10.233 -0.3496 -0.3422  0.9843
   11CHL1   H3'  744   3.847   5.152  10.243 -1.0870  0.9009  2.5872
   11CHL1    C4  745   3.839   5.072  10.003 -0.8867  0.1568  0.1022
   11CHL1   H4A  746   3.932   5.120  10.038 -0.6745 -0.5271  0.4998
   11CHL1   H4B  747   3.851   4.964  10.028 -0.2082  0.1836 -0.0899
   11CHL1    C5  748   3.811   5.089   9.857  0.0052  0.5264  0.2438
   11CHL1    C6  749   3.821   4.989   9.767  0.1959 -0.3717 -0.0805
   11CHL1    H6  750   3.864   4.892   9.793  0.6970 -0.4317 -1.0922
   11CHL1    C7  751   3.797   5.008   9.620  0.1838 -0.3490 -0.2828
   11CHL1   H7A  752   3.875   4.955   9.561  0.4472 -0.0197 -0.2362
   11CHL1   H7B  753   3.701   4.959   9.593  0.6014 -1.2477 -0.1641
   11CHL1    C8  754   3.788   5.155   9.573  0.5756 -0.2774  0.1860
   11CHL1    H8  755   3.886   5.203   9.550 -0.2697  1.2513 -0.2924
   11CHL1   C14  756   3.718   5.170   9.437  0.7223 -0.2095 -0.1126
   11CHL1   H14  757   3.615   5.130   9.449  1.1026 -1.4748 -0.8638
   11CHL1   C15  758   3.759   5.092   9.316 -0.3079 -0.1148  0.1915
   11CHL1  H15A  759   3.868   5.101   9.296  0.3372 -1.8373  2.4197
   11CHL1  H15B  760   3.752   4.982   9.330  0.0731 -0.3494 -1.2738
   11CHL1   C16  761   3.675   5.153   9.199  0.2076  0.3892 -0.3963
   11CHL1  H16A  762   3.734   5.151   9.105  0.7910 -1.4087 -0.0272
   11CHL1  H16B  763   3.581   5.094   9.189  0.5510 -0.0333 -1.2043
   11CHL1   C17  764   3.627   5.291   9.248  0.0077 -0.1303  0.0187
   11CHL1   H17  765   3.522   5.275   9.280  0.6513 -0.6371  2.0162
   11CHL1   C13  766   3.698   5.316   9.385  0.4338 -0.0887 -0.4611
   11CHL1   C18  767   3.826   5.395   9.352 -0.4125 -0.3419  0.0362
   11CHL1  H18A  768   3.901   5.395   9.434  0.5272 -2.1166 -0.7775
   11CHL1  H18B  769   3.879   5.364   9.260 -0.4362  2.3029 -0.9676
   11CHL1  H18C  770   3.804   5.501   9.325 -2.0825 -0.5721  0.3859
   11CHL1   C12  771   3.613   5.381   9.488  0.4705  0.8206 -0.1609
   11CHL1  H12A  772   3.592   5.486   9.457 -0.8742  0.4542 -0.5727
   11CHL1  H12B  773   3.512   5.335   9.491  0.0429  1.6444 -1.1783
   11CHL1   C11  774   3.678   5.386   9.629  0.6637  0.1767 -0.0075
   11CHL1  H11A  775   3.768   5.448   9.614 -1.5875  3.1686 -2.5937
   11CHL1  H11B  776   3.609   5.439   9.698  0.3733 -0.5746  0.2938
   11CHL1    C9  777   3.712   5.238   9.681 -0.0172  0.5259  0.2272
   11CHL1    H9  778   3.609   5.195   9.683  0.2914 -0.3323  3.3317
   11CHL1   C10  779   3.760   5.232   9.823  0.2817 -0.9413  0.0749
   11CHL1   C19  780   3.884   5.322   9.846 -0.4924  0.0417  0.0454
   11CHL1  H19A  781   3.871   5.430   9.825 -1.1666  0.2925  1.6290
   11CHL1  H19B  782   3.919   5.314   9.951  0.5828 -3.0304 -0.4384
   11CHL1  H19C  783   3.963   5.284   9.777  0.5533 -1.0930  1.7995
   11CHL1    C1  784   3.647   5.273   9.920  0.2300  0.2905  0.6368
   11CHL1   H1A  785   3.618   5.379   9.901  1.0171  0.3028 -0.6098
   11CHL1   H1B  786   3.557   5.213   9.896  0.8427  0.4797 -2.6198
   11CHL1    C2  787   3.686   5.256  10.067  0.0700  0.2460  0.3230
   11CHL1   H2A  788   3.613   5.301  10.137 -0.3664  1.1179 -0.6604
   11CHL1   H2B  789   3.778   5.319  10.075 -0.0807  0.4644  0.3595
   11CHL1   C20  790   3.613   5.394   9.141 -0.1701 -0.4096  0.0136
   11CHL1   H20  791   3.716   5.422   9.110  0.2162 -1.8571 -0.0862
   11CHL1   C21  792   3.548   5.526   9.182  0.4141 -0.5370 -0.2193
   11CHL1  H21A  793   3.605   5.567   9.268  0.0471  0.6620 -0.5272
   11CHL1  H21B  794   3.444   5.502   9.213  0.2725 -0.3895 -0.5755
   11CHL1  H21C  795   3.544   5.604   9.104  1.9087  0.8589  1.0264
   11CHL1   C22  796   3.539   5.339   9.015  0.7452  0.0187  0.9011
   11CHL1  H22A  797   3.574   5.235   8.997  1.6718  0.4657  0.0247
   11CHL1  H22B  798   3.430   5.340   9.034  0.1883 -1.4945 -1.8120
   11CHL1   C23  799   3.566   5.413   8.876  0.2311  0.6545  0.2253
   11CHL1  H23A  800   3.483   5.485   8.860  1.8062  2.7775  1.1548
   11CHL1  H23B  801   3.654   5.478   8.899  2.8582 -1.7443 -2.2258
   11CHL1   C24  802   3.593   5.318   8.758 -1.0302  0.1373  0.2588
   11CHL1  H24A  803   3.650   5.231   8.797 -1.9549 -0.2670  0.7523
   11CHL1  H24B  804   3.495   5.286   8.717 -0.7533  0.4630 -0.6672
   11CHL1   C25  805   3.672   5.384   8.636  0.5335  0.1503  1.3891
   11CHL1   H25  806   3.626   5.482   8.610 -1.7992 -0.6142  2.3248
   11CHL1   C26  807   3.816   5.422   8.674  0.2472  0.0537 -0.3189
   11CHL1  H26A  808   3.887   5.337   8.672  1.2885  0.7803  1.9210
   11CHL1  H26B  809   3.854   5.490   8.595 -0.9948  1.6540  0.4155
   11CHL1  H26C  810   3.834   5.468   8.774  0.2361 -2.0089  0.6863
   11CHL1   C27  811   3.653   5.315   8.492  0.0532  0.2038 -0.6155
   11CHL1  H27A  812   3.723   5.229   8.498 -0.6599 -0.2612  2.7363
   11CHL1  H27B  813   3.551   5.280   8.465 -0.0356 -0.1725  0.1990
   11CHL1  H27C  814   3.694   5.381   8.412  0.4539 -1.9123 -2.2660
   12CHL1    C3  815   0.529   1.220  10.464  0.5865  0.1817 -0.5155
   12CHL1    H3  816   0.440   1.155  10.449 -0.1651  0.0564  3.3948
   12CHL1    O3  817   0.551   1.234  10.603 -0.7117  0.5758  0.6601
   12CHL1   H3'  818   0.631   1.286  10.610  0.6851 -0.8828 -2.5853
   12CHL1    C4  819   0.653   1.167  10.407 -0.2678 -0.3920 -0.8883
   12CHL1   H4A  820   0.736   1.235  10.433 -0.9891 -0.2618  1.3159
   12CHL1   H4B  821   0.687   1.077  10.463 -0.2751 -0.2274 -0.6167
   12CHL1    C5  822   0.651   1.149  10.255 -0.1310 -0.2756  0.0061
   12CHL1    C6  823   0.667   1.026  10.202 -0.1461 -0.1308 -0.3497
   12CHL1    H6  824   0.688   0.938  10.264 -0.0388  0.6432  0.7406
   12CHL1    C7  825   0.671   1.004  10.053  0.1909  0.6106  0.4093
   12CHL1   H7A  826   0.767   0.959  10.020 -0.6904 -0.6153 -0.5777
   12CHL1   H7B  827   0.597   0.927  10.023  1.3477  0.1265 -1.3838
   12CHL1    C8  828   0.645   1.128   9.966  0.5341  0.1984 -0.1154
   12CHL1    H8  829   0.731   1.195   9.942 -0.0986  2.1109  2.4326
   12CHL1   C14  830   0.608   1.092   9.821  0.3852  0.3885 -0.3089
   12CHL1   H14  831   0.526   1.018   9.813  1.1432 -0.4106 -1.0745
   12CHL1   C15  832   0.704   1.003   9.753 -0.5417  0.1130 -0.1516
   12CHL1  H15A  833   0.804   1.038   9.785 -1.3283  1.4330  1.0146
   12CHL1  H15B  834   0.687   0.901   9.792 -0.9682  0.2311 -0.0147
   12CHL1   C16  835   0.668   1.019   9.605 -0.1718  0.2416  0.2569
   12CHL1  H16A  836   0.752   1.059   9.544 -0.4962 -0.6191 -0.7763
   12CHL1  H16B  837   0.626   0.926   9.562 -0.1592  0.6358 -0.6408
   12CHL1   C17  838   0.548   1.124   9.597  0.1480  0.0072  0.8312
   12CHL1   H17  839   0.456   1.062   9.601 -0.2236  0.4247 -0.4517
   12CHL1   C13  840   0.572   1.204   9.729 -0.2606  0.2534  0.0730
   12CHL1   C18  841   0.693   1.305   9.714 -0.9476  0.4783 -0.1170
   12CHL1  H18A  842   0.667   1.398   9.659  1.9202  1.5399  0.1345
   12CHL1  H18B  843   0.730   1.339   9.813 -0.2448 -0.3926 -0.0634
   12CHL1  H18C  844   0.772   1.245   9.662  0.4681  1.2561  1.0562
   12CHL1   C12  845   0.446   1.275   9.794  0.6999 -0.3056  0.2054
   12CHL1  H12A  846   0.396   1.351   9.732 -1.2964 -2.1182 -0.5354
   12CHL1  H12B  847   0.372   1.193   9.806 -0.6551  0.7485 -0.6760
   12CHL1   C11  848   0.477   1.330   9.937 -0.3756 -0.5154 -0.2503
   12CHL1  H11A  849   0.546   1.417   9.935 -0.1009 -0.7261 -0.0191
   12CHL1  H11B  850   0.381   1.374   9.973 -1.5500  0.5719 -4.2050
   12CHL1    C9  851   0.540   1.222  10.032 -0.7120  0.4259  0.1644
   12CHL1    H9  852   0.455   1.156  10.058 -0.3641 -0.4305 -0.7893
   12CHL1   C10  853   0.598   1.272  10.170  0.1793 -0.7512 -0.5788
   12CHL1   C19  854   0.732   1.359  10.149  0.0841 -0.3561 -0.8522
   12CHL1  H19A  855   0.775   1.386  10.248 -1.4873  0.2977 -0.3127
   12CHL1  H19B  856   0.802   1.295  10.092 -0.2703  0.8092 -2.6719
   12CHL1  H19C  857   0.704   1.450  10.093 -0.2098 -0.2133 -0.4753
   12CHL1    C1  858   0.481   1.347  10.250  0.0193  1.0461  0.7342
   12CHL1   H1A  859   0.468   1.447  10.204 -1.4867  0.8107  0.5925
   12CHL1   H1B  860   0.385   1.292  10.240  1.0250 -1.4034  3.2843
   12CHL1    C2  861   0.496   1.355  10.400 -0.5363  0.3715 -0.2987
   12CHL1   H2A  862   0.400   1.399  10.436  0.0445  1.0986  0.3714
   12CHL1   H2B  863   0.583   1.418  10.428 -1.4768  1.5349  0.1031
   12CHL1   C20  864   0.550   1.211   9.468  0.4598  1.0676 -0.3874
   12CHL1   H20  865   0.634   1.284   9.471  0.1742  1.3786  1.7168
   12CHL1   C21  866   0.415   1.289   9.443  0.8204  0.1517 -0.5487
   12CHL1  H21A  867   0.334   1.227   9.397  0.4181  1.4437 -1.6411
   12CHL1  H21B  868   0.431   1.370   9.368 -1.9532  0.5268 -0.8415
   12CHL1  H21C  869   0.384   1.344   9.535 -1.4092 -1.7436 -0.0595
   12CHL1   C22  870   0.581   1.126   9.338  0.0165  0.1225 -0.9744
   12CHL1  H22A  871   0.649   1.039   9.345  1.2288  0.6150 -4.5635
   12CHL1  H22B  872   0.486   1.081   9.302  0.9341 -1.4941 -1.4577
   12CHL1   C23  873   0.623   1.212   9.222 -0.3628 -0.4182 -0.0524
   12CHL1  H23A  874   0.534   1.277   9.206  0.4150  0.2211 -2.0698
   12CHL1  H23B  875   0.709   1.274   9.254 -1.4470  0.2356  1.7850
   12CHL1   C24  876   0.638   1.130   9.089  0.5638  0.4122  0.2267
   12CHL1  H24A  877   0.680   1.028   9.109 -1.0998 -0.2570  0.4535
   12CHL1  H24B  878   0.536   1.108   9.051  0.2021  0.1791  1.2822
   12CHL1   C25  879   0.715   1.198   8.981 -0.1515 -0.3873  0.5726
   12CHL1   H25  880   0.806   1.240   9.029 -0.0343  0.7974 -0.6227
   12CHL1   C26  881   0.761   1.109   8.872 -1.1761 -0.4446  0.0967
   12CHL1  H26A  882   0.804   1.018   8.917  0.3670 -0.6529 -1.6833
   12CHL1  H26B  883   0.673   1.075   8.813 -0.9058 -1.9814  0.5504
   12CHL1  H26C  884   0.832   1.162   8.804 -2.3823  1.3131  0.1197
   12CHL1   C27  885   0.635   1.324   8.929  0.4362 -0.2208 -0.2127
   12CHL1  H27A  886   0.543   1.291   8.877 -0.8769  2.5280  0.2090
   12CHL1  H27B  887   0.628   1.410   9.000  1.6706  1.2158 -1.7390
   12CHL1  H27C  888   0.681   1.377   8.843  0.1145  0.6406  0.1296
   13CHL1    C3  889   6.732   2.848   9.925 -0.3971  0.1028  0.2050
   13CHL1    H3  890   6.641   2.783   9.923 -0.4925  0.2462 -0.2485
   13CHL1    O3  891   6.736   2.878  10.064  0.4442  0.2293 -0.9211
   13CHL1   H3'  892   6.728   2.974  10.068 -1.0556  0.1115 -0.5801
   13CHL1    C4  893   6.852   2.774   9.875 -0.5546 -0.0238  0.3803
   13CHL1   H4A  894   6.941   2.840   9.869 -1.1636  0.8764  0.9939
   13CHL1   H4B  895   6.892   2.686   9.928  1.1881  0.5857  0.1409
   13CHL1    C5  896   6.834   2.730   9.724 -0.1149 -0.1215 -0.4084
   13CHL1    C6  897   6.834   2.601   9.685 -0.0370 -0.1530  0.6738
   13CHL1    H6  898   6.854   2.521   9.757 -0.1959  0.1349  1.0451
   13CHL1    C7  899   6.818   2.554   9.545  0.3527 -0.3631 -0.4047
   13CHL1   H7A  900   6.903   2.490   9.514  1.4733  0.7590  0.2559
   13CHL1   H7B  901   6.721   2.504   9.525 -0.6441  2.1983 -2.5998
   13CHL1    C8  902   6.812   2.669   9.435 -0.3745  0.3542 -0.1530
   13CHL1    H8  903   6.916   2.699   9.411  0.0714 -0.6213  0.4476
   13CHL1   C14  904   6.748   2.621   9.306 -0.1295 -0.7103  0.8707
   13CHL1   H14  905   6.641   2.604   9.332  0.1626 -0.1031  2.6365
   13CHL1   C15  906   6.803   2.495   9.233 -0.0028 -0.2747 -0.5241
   13CHL1  H15A  907   6.914   2.499   9.224  0.0295 -0.1445 -0.0797
   13CHL1  H15B  908   6.776   2.397   9.279 -1.7447  0.2788 -0.3118
   13CHL1   C16  909   6.738   2.492   9.100  0.3016  0.6339  0.1457
   13CHL1  H16A  910   6.812   2.474   9.019  0.9956 -2.2514  1.3020
   13CHL1  H16B  911   6.655   2.419   9.105  1.7970 -1.3634 -1.8070
   13CHL1   C17  912   6.675   2.639   9.083  0.2242  0.1531 -0.0934
   13CHL1   H17  913   6.569   2.615   9.106 -0.4239  2.1043 -0.7983
   13CHL1   C13  914   6.739   2.723   9.195 -0.0508 -0.1797 -0.2094
   13CHL1   C18  915   6.887   2.765   9.155 -0.2525 -0.1044 -0.0261
   13CHL1  H18A  916   6.878   2.842   9.075 -0.5682  1.3782  1.3702
   13CHL1  H18B  917   6.960   2.804   9.229  0.3433 -0.0741 -0.6169
   13CHL1  H18C  918   6.938   2.674   9.117  0.1706  0.1252 -0.0130
   13CHL1   C12  919   6.659   2.851   9.241 -0.9529 -0.2444 -1.0210
   13CHL1  H12A  920   6.668   2.934   9.167 -0.3549  1.5281  0.9269
   13CHL1  H12B  921   6.552   2.825   9.249 -0.7637 -1.3050 -1.8444
   13CHL1   C11  922   6.718   2.894   9.376 -0.2205 -0.5086  0.3734
   13CHL1  H11A  923   6.817   2.945   9.373  0.0156 -0.8316  1.9688
   13CHL1  H11B  924   6.645   2.964   9.421 -0.6099 -1.2078  0.8297
   13CHL1    C9  925   6.740   2.789   9.489 -0.5923 -0.8111  0.0236
   13CHL1    H9  926   6.637   2.753   9.510 -0.6878 -0.1789  0.6877
   13CHL1   C10  927   6.799   2.848   9.625 -0.2200  0.4805  0.0059
   13CHL1   C19  928   6.923   2.937   9.600  0.1721  0.0413 -0.3074
   13CHL1  H19A  929   6.998   2.891   9.532  1.9937 -0.1441  1.7119
   13CHL1  H19B  930   6.889   3.030   9.549  0.7901 -0.1335 -1.0700
   13CHL1  H19C  931   6.985   2.964   9.688  0.5479 -2.1049  0.1425
   13CHL1    C1  932   6.680   2.928   9.691  0.6677  0.1186 -0.0626
   13CHL1   H1A  933   6.634   3.001   9.621  1.5349  1.7648  1.0231
   13CHL1   H1B  934   6.595   2.857   9.694  1.0127 -0.5277 -2.6958
   13CHL1    C2  935   6.705   2.974   9.835 -0.3003  0.4349 -0.1328
   13CHL1   H2A  936   6.619   3.026   9.882  1.5057  1.4686  2.1886
   13CHL1   H2B  937   6.780   3.056   9.844 -0.4616  0.7747 -1.5772
   13CHL1   C20  938   6.679   2.694   8.938  0.1682  0.2323  0.3154
   13CHL1   H20  939   6.784   2.714   8.911  0.3376  0.6825  1.2704
   13CHL1   C21  940   6.600   2.828   8.918 -1.0033  0.2992 -0.1484
   13CHL1  H21A  941   6.658   2.917   8.949  1.0787 -1.2638  0.6525
   13CHL1  H21B  942   6.518   2.815   8.993 -0.7455 -1.6965 -0.1475
   13CHL1  H21C  943   6.571   2.844   8.812  3.9359 -0.1376 -1.7992
   13CHL1   C22  944   6.622   2.585   8.843 -0.3240  0.8449  0.3460
   13CHL1  H22A  945   6.679   2.491   8.857 -0.6379  0.7635  1.1383
   13CHL1  H22B  946   6.515   2.567   8.869 -0.4333 -0.9751 -1.1304
   13CHL1   C23  947   6.636   2.631   8.695  0.2730 -0.2477  0.2614
   13CHL1  H23A  948   6.582   2.722   8.663  0.8796  0.1506  0.3540
   13CHL1  H23B  949   6.745   2.648   8.686  0.5239 -1.4090  0.8907
   13CHL1   C24  950   6.604   2.512   8.598  0.1467  0.8856 -0.1138
   13CHL1  H24A  951   6.652   2.418   8.632  2.4817  2.2392  0.5462
   13CHL1  H24B  952   6.494   2.496   8.591  0.5868 -2.9162 -0.7387
   13CHL1   C25  953   6.667   2.545   8.463  0.7342  0.2144  0.1042
   13CHL1   H25  954   6.778   2.546   8.466  0.7558  2.1090 -0.0527
   13CHL1   C26  955   6.642   2.424   8.367  0.3064 -0.1270 -0.2218
   13CHL1  H26A  956   6.534   2.398   8.370  0.5626 -1.1145  1.3691
   13CHL1  H26B  957   6.675   2.440   8.262 -0.5779  0.8049 -0.3654
   13CHL1  H26C  958   6.695   2.333   8.401  0.3445 -0.1389 -0.3127
   13CHL1   C27  959   6.613   2.684   8.407  0.3566 -0.1659  0.2612
   13CHL1  H27A  960   6.503   2.691   8.416  0.4332  0.1839  1.0676
   13CHL1  H27B  961   6.665   2.769   8.456  0.3015  0.5355 -0.8634
   13CHL1  H27C  962   6.637   2.687   8.299 -0.1617  5.7001 -0.0444
   14CHL1    C3  963   6.367   6.600  10.359  0.5718 -0.4229 -0.2487
   14CHL1    H3  964   6.405   6.692  10.311 -0.6730 -0.9125 -2.2830
   14CHL1    O3  965   6.313   6.617  10.492  0.3861  0.1410 -1.0111
   14CHL1   H3'  966   6.217   6.628  10.485  0.5462  1.0428 -2.1407
   14CHL1    C4  967   6.252   6.543  10.270 -0.4641  1.1236 -0.8321
   14CHL1   H4A  968   6.203   6.459  10.322 -0.0848  0.6994 -1.1475
   14CHL1   H4B  969   6.167   6.614  10.264 -1.5393 -0.0658 -0.0476
   14CHL1    C5  970   6.294   6.511  10.130 -0.1274 -0.0424 -0.5750
   14CHL1    C6  971   6.244   6.568  10.020 -0.0318  0.1623 -0.2976
   14CHL1    H6  972   6.160   6.636  10.041  0.2843  0.2721  0.6605
   14CHL1    C7  973   6.284   6.530   9.881 -0.1744  0.4385 -0.5105
   14CHL1   H7A  974   6.183   6.506   9.840  0.3249 -0.6855 -1.1502
   14CHL1   H7B  975   6.327   6.610   9.818 -0.6559  0.8282 -0.3476
   14CHL1    C8  976   6.365   6.397   9.892  0.3755 -0.2786 -0.4412
   14CHL1    H8  977   6.295   6.318   9.925  0.2490  0.0230  0.0226
   14CHL1   C14  978   6.429   6.376   9.758  0.3124  0.1653 -0.5050
   14CHL1   H14  979   6.506   6.457   9.753  0.9730 -0.2679  1.5837
   14CHL1   C15  980   6.336   6.390   9.638  0.2111 -0.7136  0.1532
   14CHL1  H15A  981   6.246   6.328   9.656 -0.6343  0.9820  2.2712
   14CHL1  H15B  982   6.292   6.491   9.620 -2.0855 -1.4377  1.2643
   14CHL1   C16  983   6.410   6.326   9.518  0.1072  0.3359 -0.1757
   14CHL1  H16A  984   6.338   6.254   9.473 -1.0141  1.0627  0.3965
   14CHL1  H16B  985   6.434   6.398   9.438 -1.1348  0.7234 -0.2284
   14CHL1   C17  986   6.536   6.256   9.576 -0.2039 -0.1634  0.9180
   14CHL1   H17  987   6.626   6.321   9.566 -1.0239  0.8980  0.2502
   14CHL1   C13  988   6.506   6.239   9.728 -0.3859 -0.4228  0.6891
   14CHL1   C18  989   6.416   6.122   9.757  0.4232  0.3114 -0.0276
   14CHL1  H18A  990   6.463   6.025   9.729  2.4650  1.1185  0.4940
   14CHL1  H18B  991   6.379   6.112   9.861  2.8727  2.2214  1.1316
   14CHL1  H18C  992   6.326   6.141   9.694  0.4079  2.5848  0.5850
   14CHL1   C12  993   6.618   6.248   9.827  0.3242  0.5109  0.5485
   14CHL1  H12A  994   6.684   6.159   9.830  1.9322  1.5502 -1.4862
   14CHL1  H12B  995   6.683   6.332   9.797  0.0160  0.2105 -1.0508
   14CHL1   C11  996   6.568   6.270   9.970 -0.0233 -0.4761 -0.5467
   14CHL1  H11A  997   6.511   6.178   9.995  0.7850 -0.9268 -0.3211
   14CHL1  H11B  998   6.662   6.269  10.030 -1.1115  3.5448  1.6039
   14CHL1    C9  999   6.479   6.392   9.995  0.7516 -0.5709  0.1395
   14CHL1    H9 1000   6.541   6.481   9.971 -0.6827  0.4703  0.1073
   14CHL1   C10 1001   6.407   6.406  10.134  0.4793  1.0625 -0.0876
   14CHL1   C19 1002   6.346   6.267  10.179  0.2114 -0.1597 -0.1802
   14CHL1  H19A 1003   6.420   6.186  10.193 -0.7055 -0.9184  0.3427
   14CHL1  H19B 1004   6.295   6.276  10.277  0.9442 -0.1962  0.2066
   14CHL1  H19C 1005   6.277   6.231  10.100  1.4082 -2.1238 -0.4066
   14CHL1    C1 1006   6.519   6.433  10.244  0.7108  0.5131  0.2472
   14CHL1   H1A 1007   6.571   6.338  10.268 -0.9084 -0.0402  1.7698
   14CHL1   H1B 1008   6.585   6.505  10.191  0.2524  0.9457  0.2547
   14CHL1    C2 1009   6.473   6.484  10.373 -0.1050 -0.4838 -1.0356
   14CHL1   H2A 1010   6.561   6.524  10.427 -0.8951  0.8295 -0.6551
   14CHL1   H2B 1011   6.433   6.401  10.435  0.9111 -1.0628 -1.1364
   14CHL1   C20 1012   6.582   6.143   9.482  0.2395 -0.2214 -0.8078
   14CHL1   H20 1013   6.504   6.067   9.463 -0.0199  0.1635 -1.3046
   14CHL1   C21 1014   6.697   6.075   9.561  0.9679  0.3466  0.0583
   14CHL1  H21A 1015   6.652   6.020   9.647  1.6181 -0.4062 -0.0681
   14CHL1  H21B 1016   6.774   6.147   9.594  0.5386  1.4381 -1.2043
   14CHL1  H21C 1017   6.751   6.003   9.496  2.2028  0.2405  1.1726
   14CHL1   C22 1018   6.623   6.184   9.341 -0.0756 -0.5718 -0.5086
   14CHL1  H22A 1019   6.535   6.213   9.279 -0.3187 -1.4288 -0.5776
   14CHL1  H22B 1020   6.691   6.272   9.345  1.0337 -1.4386  1.2987
   14CHL1   C23 1021   6.690   6.075   9.252  0.2511  0.3005 -0.0459
   14CHL1  H23A 1022   6.793   6.072   9.296  0.4180  0.6210 -0.4104
   14CHL1  H23B 1023   6.638   5.978   9.264  0.2397  0.0160 -2.1215
   14CHL1   C24 1024   6.691   6.111   9.101 -0.3621 -0.0048 -0.6673
   14CHL1  H24A 1025   6.585   6.131   9.075 -0.8177  1.1519  1.7758
   14CHL1  H24B 1026   6.741   6.209   9.092 -1.7412  1.2509  3.3450
   14CHL1   C25 1027   6.736   5.995   9.007 -0.0297 -0.5867 -0.2552
   14CHL1   H25 1028   6.678   5.901   9.022 -1.2094  0.4520  2.2565
   14CHL1   C26 1029   6.719   6.040   8.859  0.3788  0.5020 -0.0847
   14CHL1  H26A 1030   6.762   5.962   8.792  1.5051  2.7513 -2.1589
   14CHL1  H26B 1031   6.609   6.043   8.848  0.1291 -1.4405  1.3906
   14CHL1  H26C 1032   6.779   6.134   8.856 -0.9281  1.3391 -1.6637
   14CHL1   C27 1033   6.889   5.952   9.029 -0.4767 -0.5246  0.0495
   14CHL1  H27A 1034   6.900   5.849   8.989  0.0921 -0.1737 -0.7026
   14CHL1  H27B 1035   6.955   6.018   8.970 -0.4273 -0.2931  0.3649
   14CHL1  H27C 1036   6.902   5.940   9.139  0.5422 -3.6830 -0.3278
   15CHL1    C3 1037   6.301   5.563  10.289 -0.2609 -0.5734 -0.5424
   15CHL1    H3 1038   6.362   5.470  10.293  1.0608  0.2033 -1.5082
   15CHL1    O3 1039   6.274   5.579  10.431  0.3555  0.0270  0.9431
   15CHL1   H3' 1040   6.310   5.663  10.459  0.1130  0.5780 -0.3190
   15CHL1    C4 1041   6.391   5.678  10.242  1.3577  0.9793  0.3673
   15CHL1   H4A 1042   6.355   5.778  10.275 -0.9539  0.0716  0.7874
   15CHL1   H4B 1043   6.490   5.672  10.292  2.2011 -0.4627 -1.3607
   15CHL1    C5 1044   6.421   5.669  10.094  0.4931 -0.8630  0.2456
   15CHL1    C6 1045   6.546   5.668  10.041 -0.3316 -0.4967 -0.0508
   15CHL1    H6 1046   6.638   5.679  10.100  0.9539 -3.9921 -1.1825
   15CHL1    C7 1047   6.575   5.664   9.898 -0.2192  0.2942  0.0463
   15CHL1   H7A 1048   6.647   5.743   9.865 -0.8846  1.0312  0.3154
   15CHL1   H7B 1049   6.620   5.568   9.866 -0.5270  0.7827 -2.0576
   15CHL1    C8 1050   6.452   5.687   9.800  0.6734 -0.5783  0.0870
   15CHL1    H8 1051   6.430   5.796   9.804  0.4837 -0.5904 -0.6225
   15CHL1   C14 1052   6.482   5.641   9.662  0.4027 -0.7634 -0.5166
   15CHL1   H14 1053   6.519   5.537   9.670 -1.5541 -1.4813 -0.2348
   15CHL1   C15 1054   6.597   5.712   9.588  0.4707  0.9046  0.0553
   15CHL1  H15A 1055   6.568   5.816   9.614 -3.7083 -0.1874  0.3936
   15CHL1  H15B 1056   6.697   5.685   9.628  0.4484  0.7140 -0.0147
   15CHL1   C16 1057   6.569   5.674   9.438 -0.3564 -0.0123  0.1866
   15CHL1  H16A 1058   6.560   5.762   9.372 -1.4257 -1.3402 -1.5170
   15CHL1  H16B 1059   6.647   5.606   9.398  0.0661  0.5530  0.0415
   15CHL1   C17 1060   6.433   5.596   9.430  0.4846 -0.2352 -0.0795
   15CHL1   H17 1061   6.457   5.489   9.446  0.2831 -0.1347  0.9390
   15CHL1   C13 1062   6.361   5.643   9.562 -0.0925 -0.2408  0.3324
   15CHL1   C18 1063   6.323   5.790   9.539 -0.0736 -0.3244 -0.1341
   15CHL1  H18A 1064   6.232   5.802   9.478 -0.2849 -1.6279 -0.1104
   15CHL1  H18B 1065   6.296   5.843   9.633  1.1592  1.4466 -0.7259
   15CHL1  H18C 1066   6.397   5.856   9.488 -0.1872  0.1367  0.2909
   15CHL1   C12 1067   6.248   5.559   9.611  0.7184  0.7756 -0.3277
   15CHL1  H12A 1068   6.158   5.579   9.549 -2.0820 -1.4195  2.6699
   15CHL1  H12B 1069   6.282   5.454   9.603  0.4776  0.6161  0.5497
   15CHL1   C11 1070   6.209   5.592   9.753  0.2201  0.0410 -0.6169
   15CHL1  H11A 1071   6.150   5.686   9.751  0.4166  0.1753 -0.2546
   15CHL1  H11B 1072   6.151   5.510   9.799  0.2421  1.5908  2.4122
   15CHL1    C9 1073   6.332   5.606   9.856  0.0817  0.6547  0.0704
   15CHL1    H9 1074   6.380   5.506   9.862 -0.2709  0.5639  2.0742
   15CHL1   C10 1075   6.299   5.641   9.998  0.2737 -0.0009 -0.4373
   15CHL1   C19 1076   6.216   5.777   9.991  0.1360  0.0308 -0.3946
   15CHL1  H19A 1077   6.196   5.819  10.092 -0.4540 -0.3549 -0.3455
   15CHL1  H19B 1078   6.283   5.851   9.943  0.0953 -0.5133 -1.3051
   15CHL1  H19C 1079   6.118   5.776   9.938 -0.1962  0.2176  0.1988
   15CHL1    C1 1080   6.202   5.537  10.058 -0.4823 -0.1425 -0.2256
   15CHL1   H1A 1081   6.103   5.548  10.009  0.0354 -2.1640 -1.8385
   15CHL1   H1B 1082   6.251   5.438  10.044  2.6695  0.9198  2.0534
   15CHL1    C2 1083   6.172   5.551  10.209  0.2979  0.8806 -0.3052
   15CHL1   H2A 1084   6.108   5.466  10.239  0.7151 -0.3167 -2.5908
   15CHL1   H2B 1085   6.111   5.643  10.224  0.1690  1.0567 -1.8233
   15CHL1   C20 1086   6.368   5.608   9.289  0.7450 -0.0882  0.0088
   15CHL1   H20 1087   6.334   5.711   9.265  0.7419 -0.1352 -0.1918
   15CHL1   C21 1088   6.254   5.505   9.295 -0.1053  0.9130 -0.2849
   15CHL1  H21A 1089   6.224   5.489   9.190 -2.4564  0.4156  0.4165
   15CHL1  H21B 1090   6.164   5.538   9.350  0.8062 -0.6601  2.3585
   15CHL1  H21C 1091   6.295   5.406   9.325 -0.5584  0.1900 -1.9662
   15CHL1   C22 1092   6.478   5.587   9.177 -0.4741 -0.4241  0.7146
   15CHL1  H22A 1093   6.533   5.682   9.161  2.5482 -2.1787 -0.1501
   15CHL1  H22B 1094   6.556   5.510   9.199  0.0088  0.6144  2.8699
   15CHL1   C23 1095   6.416   5.574   9.032 -0.4231  0.1162  0.1776
   15CHL1  H23A 1096   6.358   5.481   9.016 -0.6643  0.2554  0.2531
   15CHL1  H23B 1097   6.345   5.658   9.020 -1.0713 -0.5312 -0.6848
   15CHL1   C24 1098   6.518   5.607   8.924  0.2510  0.0242 -0.0675
   15CHL1  H24A 1099   6.547   5.713   8.941  0.2220 -0.0546  0.4800
   15CHL1  H24B 1100   6.613   5.553   8.943  1.2655  1.8689  0.3651
   15CHL1   C25 1101   6.471   5.585   8.787 -0.1066  0.6032  0.7986
   15CHL1   H25 1102   6.362   5.604   8.774  0.0474 -0.3089 -3.0403
   15CHL1   C26 1103   6.560   5.679   8.708  0.3964  0.3503  0.9635
   15CHL1  H26A 1104   6.542   5.693   8.599 -1.8228 -1.2341  1.0512
   15CHL1  H26B 1105   6.548   5.786   8.735 -2.1767  0.9021 -1.8715
   15CHL1  H26C 1106   6.668   5.658   8.717  0.8270  1.8266 -0.2424
   15CHL1   C27 1107   6.505   5.445   8.737 -0.0505  0.1626  0.5458
   15CHL1  H27A 1108   6.462   5.423   8.637 -2.9781  0.9854  1.4982
   15CHL1  H27B 1109   6.611   5.415   8.745 -0.7110 -2.4756  0.6083
   15CHL1  H27C 1110   6.468   5.365   8.806  0.8827  1.2517  2.4035
   16CHL1    C3 1111   0.878   5.537  10.287 -0.0927  0.4657 -0.3984
   16CHL1    H3 1112   0.953   5.457  10.272  0.3070  0.2173  2.4300
   16CHL1    O3 1113   0.868   5.592  10.418  0.6148 -0.0049 -0.0154
   16CHL1   H3' 1114   0.914   5.530  10.474 -1.0523 -0.9088  0.4080
   16CHL1    C4 1115   0.898   5.653  10.191  0.1716 -0.2583 -0.2884
   16CHL1   H4A 1116   0.819   5.729  10.211 -0.8421 -1.9324  2.6588
   16CHL1   H4B 1117   0.996   5.697  10.222 -0.7747  1.7154  0.0640
   16CHL1    C5 1118   0.900   5.617  10.043 -0.9234 -0.7707 -0.0610
   16CHL1    C6 1119   1.011   5.638   9.973 -0.7800 -0.3576 -0.2476
   16CHL1    H6 1120   1.100   5.691  10.008 -1.0922  0.5848 -0.8425
   16CHL1    C7 1121   1.018   5.599   9.828  0.4939  0.3677 -0.4355
   16CHL1   H7A 1122   1.071   5.672   9.763 -2.7601  1.5683 -1.9725
   16CHL1   H7B 1123   1.078   5.505   9.831 -1.7451 -1.1439 -0.8525
   16CHL1    C8 1124   0.884   5.551   9.760  0.3066  0.4725  0.2528
   16CHL1    H8 1125   0.832   5.645   9.732 -1.6174  0.1636  2.3951
   16CHL1   C14 1126   0.906   5.468   9.634  0.0269 -0.0604 -0.1656
   16CHL1   H14 1127   0.958   5.373   9.658 -0.4423  0.1265  1.7451
   16CHL1   C15 1128   0.986   5.538   9.525  0.7343 -0.3184  0.2955
   16CHL1  H15A 1129   0.955   5.641   9.497 -1.4008 -1.7484 -3.4251
   16CHL1  H15B 1130   1.095   5.537   9.546  0.5299  2.5196  1.9888
   16CHL1   C16 1131   0.945   5.459   9.396  1.1966  0.3679 -0.0762
   16CHL1  H16A 1132   0.909   5.526   9.315 -0.5607 -0.4665 -0.0294
   16CHL1  H16B 1133   1.027   5.392   9.361 -0.2857 -0.9948 -1.0860
   16CHL1   C17 1134   0.817   5.373   9.433 -0.1171 -0.4680  0.0539
   16CHL1   H17 1135   0.855   5.278   9.475 -0.3398 -1.3611 -1.6944
   16CHL1   C13 1136   0.775   5.445   9.562  0.7474  0.2132 -0.6953
   16CHL1   C18 1137   0.708   5.582   9.511 -0.1692  0.2225  0.3387
   16CHL1  H18A 1138   0.603   5.563   9.481 -0.3099 -0.4519  1.2346
   16CHL1  H18B 1139   0.696   5.653   9.595 -2.8986  1.0806 -0.6585
   16CHL1  H18C 1140   0.759   5.639   9.430 -0.6068  0.8144  0.4709
   16CHL1   C12 1141   0.682   5.366   9.658 -0.1758  0.4560 -0.9181
   16CHL1  H12A 1142   0.579   5.349   9.620 -0.4328  2.0024 -0.9523
   16CHL1  H12B 1143   0.729   5.267   9.677 -0.8369  0.5055  1.2449
   16CHL1   C11 1144   0.659   5.438   9.792 -0.1719  0.0996  0.7818
   16CHL1  H11A 1145   0.598   5.525   9.760 -0.9485  0.5527  3.2552
   16CHL1  H11B 1146   0.593   5.373   9.853  0.2659 -1.3394 -0.2214
   16CHL1    C9 1147   0.793   5.477   9.860 -0.1556 -0.2070  0.1964
   16CHL1    H9 1148   0.855   5.388   9.883  0.2544  0.2350  0.8298
   16CHL1   C10 1149   0.774   5.545   9.997  0.1952  0.7926  0.1543
   16CHL1   C19 1150   0.653   5.644  10.001  0.2122  0.0266  0.0296
   16CHL1  H19A 1151   0.664   5.729   9.930  0.5605 -1.1657 -1.3930
   16CHL1  H19B 1152   0.562   5.591   9.967  0.6278 -1.4354  1.0955
   16CHL1  H19C 1153   0.636   5.675  10.106  2.1029 -1.6712  0.9115
   16CHL1    C1 1154   0.729   5.435  10.098  0.0054  1.1147  0.3315
   16CHL1   H1A 1155   0.626   5.402  10.072  0.6385 -1.9721  1.2887
   16CHL1   H1B 1156   0.789   5.344  10.073 -2.8708 -0.5881 -0.9685
   16CHL1    C2 1157   0.740   5.482  10.248 -0.3029  1.4726 -0.7599
   16CHL1   H2A 1158   0.708   5.403  10.318  1.2930  0.8644 -0.6659
   16CHL1   H2B 1159   0.669   5.566  10.264  0.9710  2.4191  0.1782
   16CHL1   C20 1160   0.726   5.345   9.311 -0.1443  0.6401 -0.4599
   16CHL1   H20 1161   0.701   5.447   9.274  0.8140  1.4415  0.9751
   16CHL1   C21 1162   0.596   5.273   9.357 -0.7149 -0.3939  0.5671
   16CHL1  H21A 1163   0.606   5.179   9.415  0.5617 -2.1054 -2.2180
   16CHL1  H21B 1164   0.523   5.249   9.278 -0.0802 -1.8677  0.4022
   16CHL1  H21C 1165   0.541   5.342   9.424 -2.3835  1.5640 -2.5928
   16CHL1   C22 1166   0.793   5.277   9.187  0.1620  0.7023  0.4189
   16CHL1  H22A 1167   0.896   5.315   9.170  0.9448 -1.4612  0.0009
   16CHL1  H22B 1168   0.794   5.170   9.219  1.8916  0.7904  0.7715
   16CHL1   C23 1169   0.707   5.282   9.059 -0.1910 -0.4929  0.1461
   16CHL1  H23A 1170   0.604   5.243   9.070 -0.1569 -0.6851 -0.1866
   16CHL1  H23B 1171   0.705   5.389   9.030  1.1327 -0.5118 -0.0944
   16CHL1   C24 1172   0.765   5.203   8.936 -0.4281  0.8280 -0.9394
   16CHL1  H24A 1173   0.871   5.231   8.924 -0.1107 -0.2925 -0.8760
   16CHL1  H24B 1174   0.757   5.098   8.970 -1.5444  0.5048 -2.1047
   16CHL1   C25 1175   0.692   5.248   8.802  0.2453  0.3164 -1.0209
   16CHL1   H25 1176   0.695   5.359   8.789 -2.2777  0.4568 -0.8828
   16CHL1   C26 1177   0.760   5.186   8.677  0.9996 -0.2520 -0.1405
   16CHL1  H26A 1178   0.704   5.218   8.587 -0.8682 -0.9292  0.7240
   16CHL1  H26B 1179   0.860   5.233   8.670  0.7570  0.2185 -0.5229
   16CHL1  H26C 1180   0.762   5.075   8.675 -2.5812 -0.4442 -3.1857
   16CHL1   C27 1181   0.542   5.228   8.800  0.4193 -0.3043  0.1094
   16CHL1  H27A 1182   0.506   5.314   8.859  1.2589  1.0865 -1.3357
   16CHL1  H27B 1183   0.504   5.231   8.695  0.3022 -0.8912  0.1293
   16CHL1  H27C 1184   0.513   5.131   8.847  1.0237 -0.4680  0.1464
   17CHL1    C3 1185   3.411   3.691  10.606  0.1702  0.0351 -0.0004
   17CHL1    H3 1186   3.331   3.768  10.598  1.7434  1.9188  1.4707
   17CHL1    O3 1187   3.446   3.695  10.741 -0.3750  0.3289  0.0891
   17CHL1   H3' 1188   3.454   3.604  10.773  0.5281  0.5407  0.4753
   17CHL1    C4 1189   3.360   3.547  10.567 -0.3339  0.3663  0.1554
   17CHL1   H4A 1190   3.446   3.481  10.594  1.0144  1.7001 -0.7406
   17CHL1   H4B 1191   3.275   3.519  10.632 -1.1832 -0.8493 -1.3854
   17CHL1    C5 1192   3.330   3.539  10.418 -0.5758  0.0744  0.5079
   17CHL1    C6 1193   3.206   3.505  10.366 -0.0115  0.4207  0.3153
   17CHL1    H6 1194   3.121   3.467  10.426 -0.3471  2.3591  1.1627
   17CHL1    C7 1195   3.172   3.512  10.219  0.0525  0.1625  0.0438
   17CHL1   H7A 1196   3.102   3.431  10.189 -1.9369  1.3152  1.3748
   17CHL1   H7B 1197   3.127   3.610  10.190  1.4151  0.5478 -0.8978
   17CHL1    C8 1198   3.303   3.511  10.114 -0.2610 -0.0822 -0.8514
   17CHL1    H8 1199   3.347   3.410  10.127 -0.7993 -0.2540 -0.2446
   17CHL1   C14 1200   3.269   3.544   9.977  0.1977  0.1340  0.4928
   17CHL1   H14 1201   3.228   3.647   9.982 -2.4931 -0.8047 -0.5797
   17CHL1   C15 1202   3.163   3.463   9.906  0.3736  0.0209 -0.0230
   17CHL1  H15A 1203   3.183   3.354   9.913 -0.5678 -0.2550 -1.3357
   17CHL1  H15B 1204   3.065   3.495   9.948  1.4502 -0.1948  2.8595
   17CHL1   C16 1205   3.170   3.503   9.756  0.2325 -0.2830 -0.0146
   17CHL1  H16A 1206   3.163   3.410   9.695  0.1400 -1.1955  1.3358
   17CHL1  H16B 1207   3.085   3.570   9.729  0.2739  1.0519  2.8344
   17CHL1   C17 1208   3.308   3.576   9.745 -0.2402  0.0644 -0.1998
   17CHL1   H17 1209   3.289   3.685   9.751  0.9058  0.3784 -1.5683
   17CHL1   C13 1210   3.386   3.550   9.880  0.5814  1.0312  0.0442
   17CHL1   C18 1211   3.443   3.404   9.866  0.7575 -0.3822 -0.4737
   17CHL1  H18A 1212   3.469   3.350   9.960 -1.9085 -2.4603 -0.7876
   17CHL1  H18B 1213   3.376   3.328   9.821  2.4092 -0.3642 -3.1534
   17CHL1  H18C 1214   3.535   3.404   9.805  0.4844 -1.6073 -0.9199
   17CHL1   C12 1215   3.486   3.658   9.928  0.4477 -0.2655  0.8193
   17CHL1  H12A 1216   3.578   3.669   9.867  0.8308  1.5504  1.6701
   17CHL1  H12B 1217   3.446   3.760   9.913  0.6747  0.1856  2.9565
   17CHL1   C11 1218   3.517   3.644  10.079 -0.4065 -0.7193  0.0008
   17CHL1  H11A 1219   3.591   3.562  10.066  1.7775  1.5479 -3.1606
   17CHL1  H11B 1220   3.580   3.726  10.118  2.1854 -2.1237 -1.0051
   17CHL1    C9 1221   3.396   3.615  10.171  0.1708 -0.3102  0.0319
   17CHL1    H9 1222   3.334   3.708  10.169  0.4869 -0.1030 -0.2484
   17CHL1   C10 1223   3.440   3.587  10.320  0.5737 -0.2654 -0.3202
   17CHL1   C19 1224   3.540   3.477  10.332 -0.0045 -0.1938  0.6729
   17CHL1  H19A 1225   3.590   3.457  10.429  1.9035  0.0248 -0.2282
   17CHL1  H19B 1226   3.506   3.383  10.283 -1.3808  1.6143 -2.1124
   17CHL1  H19C 1227   3.633   3.511  10.282  0.3582 -3.5243 -1.2629
   17CHL1    C1 1228   3.496   3.719  10.374  0.2923 -0.4174 -0.1109
   17CHL1   H1A 1229   3.590   3.743  10.320 -0.3271  1.9502 -0.2342
   17CHL1   H1B 1230   3.420   3.796  10.353  1.8353  0.8866 -1.1389
   17CHL1    C2 1231   3.522   3.733  10.521  0.4892  0.2787 -0.0385
   17CHL1   H2A 1232   3.565   3.829  10.556  1.4010  0.3001 -1.1475
   17CHL1   H2B 1233   3.605   3.663  10.543 -1.6247 -2.0555  0.9680
   17CHL1   C20 1234   3.371   3.542   9.612  0.0792 -0.6085  0.6738
   17CHL1   H20 1235   3.397   3.434   9.609 -0.2936 -0.6783 -0.6592
   17CHL1   C21 1236   3.496   3.623   9.586  0.0158  0.3588 -0.3513
   17CHL1  H21A 1237   3.569   3.596   9.666 -1.2772  2.2079  1.5751
   17CHL1  H21B 1238   3.464   3.729   9.598  0.3353  0.5214 -0.9171
   17CHL1  H21C 1239   3.547   3.602   9.490 -0.1859  0.4582 -0.4803
   17CHL1   C22 1240   3.275   3.563   9.491 -0.5475  0.3946 -0.1281
   17CHL1  H22A 1241   3.182   3.505   9.508 -1.6132  1.8050 -0.9464
   17CHL1  H22B 1242   3.233   3.666   9.488 -1.1959  0.1436  0.2743
   17CHL1   C23 1243   3.333   3.523   9.353  0.2722  0.1942  0.9511
   17CHL1  H23A 1244   3.411   3.594   9.319 -1.3128  1.6435  0.1962
   17CHL1  H23B 1245   3.371   3.419   9.354 -0.4572 -0.1028  0.1137
   17CHL1   C24 1246   3.221   3.534   9.237 -0.6443  0.0766  0.5437
   17CHL1  H24A 1247   3.125   3.489   9.269 -1.7977  1.9838 -0.1167
   17CHL1  H24B 1248   3.203   3.643   9.224  1.5690  0.6149  1.3978
   17CHL1   C25 1249   3.257   3.470   9.104  0.0044  1.3612  0.2491
   17CHL1   H25 1250   3.164   3.465   9.043 -0.5179 -0.2927  1.1145
   17CHL1   C26 1251   3.368   3.540   9.029 -0.5458 -0.4335  0.4214
   17CHL1  H26A 1252   3.409   3.475   8.949  1.1300 -0.7139  1.4422
   17CHL1  H26B 1253   3.331   3.636   8.987 -1.2311 -0.3539  1.1937
   17CHL1  H26C 1254   3.452   3.571   9.096  0.0049 -1.8170  0.4068
   17CHL1   C27 1255   3.292   3.320   9.122  0.4253  0.0529 -0.1053
   17CHL1  H27A 1256   3.280   3.261   9.029 -1.5612  1.3023 -0.6999
   17CHL1  H27B 1257   3.396   3.304   9.157  0.1885  1.8107  1.5834
   17CHL1  H27C 1258   3.227   3.282   9.204  2.1323  1.6198  2.1200
   18CHL1    C3 1259   1.540   1.125  10.108  0.3319 -0.4645 -0.1165
   18CHL1    H3 1260   1.476   1.038  10.080  0.4275 -1.6188  2.9207
   18CHL1    O3 1261   1.558   1.113  10.247  0.1388  0.6651  0.0684
   18CHL1   H3' 1262   1.641   1.156  10.269  1.0482  0.3490 -2.4394
   18CHL1    C4 1263   1.677   1.113  10.043  0.2468  0.2246 -0.2231
   18CHL1   H4A 1264   1.738   1.197  10.084 -1.5554  1.8738 -0.7495
   18CHL1   H4B 1265   1.726   1.015  10.059 -0.4879 -0.0052  0.6851
   18CHL1    C5 1266   1.653   1.123   9.896  0.4867  0.6316  0.3286
   18CHL1    C6 1267   1.677   1.017   9.818  0.2838  0.2141 -0.1788
   18CHL1    H6 1268   1.714   0.924   9.864 -0.5724  0.1620  0.4234
   18CHL1    C7 1269   1.653   1.017   9.669  0.3881  0.3638 -0.5602
   18CHL1   H7A 1270   1.740   0.960   9.628  0.1896 -0.6115  0.3141
   18CHL1   H7B 1271   1.554   0.972   9.645  0.2649  1.1470 -1.5874
   18CHL1    C8 1272   1.639   1.161   9.616 -0.8690 -0.6390 -0.5064
   18CHL1    H8 1273   1.742   1.201   9.603 -1.1288  0.4264  0.5479
   18CHL1   C14 1274   1.599   1.156   9.467  0.3183 -0.5604  0.1431
   18CHL1   H14 1275   1.492   1.128   9.470 -0.5615  2.5424  1.1081
   18CHL1   C15 1276   1.667   1.053   9.369  0.4493  0.3267 -0.0401
   18CHL1  H15A 1277   1.776   1.062   9.387  0.4347  1.7236 -0.5162
   18CHL1  H15B 1278   1.619   0.953   9.383 -1.2839  1.1883  0.5026
   18CHL1   C16 1279   1.639   1.105   9.229  0.0995  0.3856 -0.2046
   18CHL1  H16A 1280   1.729   1.107   9.164  1.6169  0.8885  1.8087
   18CHL1  H16B 1281   1.571   1.031   9.181 -0.2834  0.9261 -0.4982
   18CHL1   C17 1282   1.567   1.246   9.249  0.1514  0.4491  0.5964
   18CHL1   H17 1283   1.458   1.229   9.256  0.1345  0.4002  0.2016
   18CHL1   C13 1284   1.605   1.293   9.397  0.0116  0.7787  0.7887
   18CHL1   C18 1285   1.748   1.360   9.396 -1.4948 -0.9677 -0.1951
   18CHL1  H18A 1286   1.825   1.292   9.354  0.6654  1.3244 -0.2037
   18CHL1  H18B 1287   1.740   1.452   9.333  0.0818  0.4134  1.4969
   18CHL1  H18C 1288   1.791   1.391   9.493  0.6957 -2.8418 -0.4972
   18CHL1   C12 1289   1.513   1.384   9.474 -0.5459 -0.4049  0.0255
   18CHL1  H12A 1290   1.502   1.486   9.431  0.7749 -0.0657  0.4431
   18CHL1  H12B 1291   1.414   1.335   9.456  0.2374 -1.0174 -3.5045
   18CHL1   C11 1292   1.537   1.405   9.624 -0.0457  0.1369  0.0754
   18CHL1  H11A 1293   1.620   1.477   9.633 -0.8267  1.0887 -0.1283
   18CHL1  H11B 1294   1.448   1.450   9.674  0.2860  0.0373  0.7678
   18CHL1    C9 1295   1.548   1.260   9.696 -0.0562  0.6117  0.8802
   18CHL1    H9 1296   1.446   1.218   9.684  1.0025 -1.5017 -1.7421
   18CHL1   C10 1297   1.590   1.257   9.842  0.0849 -0.0083 -0.6543
   18CHL1   C19 1298   1.713   1.361   9.849 -0.0481  0.2075  0.1927
   18CHL1  H19A 1299   1.673   1.464   9.844  0.3894  0.3233 -1.3131
   18CHL1  H19B 1300   1.755   1.351   9.951 -0.6633 -1.6846  0.3094
   18CHL1  H19C 1301   1.780   1.337   9.764  0.2632 -0.3855  0.5916
   18CHL1    C1 1302   1.465   1.291   9.931 -0.2786 -0.3372 -0.4531
   18CHL1   H1A 1303   1.433   1.395   9.910 -0.9777 -0.5897 -0.7037
   18CHL1   H1B 1304   1.381   1.226   9.898  0.4196 -1.1895 -0.5711
   18CHL1    C2 1305   1.483   1.265  10.079 -0.1995  0.7880 -0.4310
   18CHL1   H2A 1306   1.392   1.266  10.142 -0.7776 -1.2501 -1.1469
   18CHL1   H2B 1307   1.559   1.342  10.105  0.2909  0.6131 -1.3031
   18CHL1   C20 1308   1.618   1.336   9.130  0.1154  0.0881  0.0620
   18CHL1   H20 1309   1.723   1.368   9.145  0.4590 -0.6361 -0.6983
   18CHL1   C21 1310   1.540   1.470   9.128  0.4785  0.2602 -0.4398
   18CHL1  H21A 1311   1.545   1.521   9.227  1.7840  0.1155 -0.4161
   18CHL1  H21B 1312   1.434   1.455   9.098  0.4053  1.8326 -1.1028
   18CHL1  H21C 1313   1.584   1.540   9.054 -0.8347  1.3679 -0.2152
   18CHL1   C22 1314   1.613   1.263   8.992  0.6766 -0.0265  0.1687
   18CHL1  H22A 1315   1.687   1.180   8.984 -1.3616 -1.9033 -0.0289
   18CHL1  H22B 1316   1.508   1.232   8.980  0.7157 -0.5360  1.0906
   18CHL1   C23 1317   1.620   1.358   8.865  0.0255 -0.3107 -0.2414
   18CHL1  H23A 1318   1.560   1.451   8.873 -0.0903 -0.4275  0.2944
   18CHL1  H23B 1319   1.724   1.396   8.868 -0.0658 -0.1079  1.7765
   18CHL1   C24 1320   1.588   1.297   8.721  0.1491 -0.5247 -0.7580
   18CHL1  H24A 1321   1.655   1.212   8.696 -0.7034 -1.9935  1.6307
   18CHL1  H24B 1322   1.484   1.258   8.730 -0.6032  0.5272 -3.7062
   18CHL1   C25 1323   1.578   1.397   8.600  0.4229  0.1639 -0.1096
   18CHL1   H25 1324   1.556   1.498   8.640 -2.6603 -0.7725  0.8429
   18CHL1   C26 1325   1.714   1.418   8.533 -0.4980  0.0360  0.4652
   18CHL1  H26A 1326   1.700   1.501   8.460  0.3502 -0.6011 -0.4482
   18CHL1  H26B 1327   1.786   1.448   8.613  0.9698 -1.4954 -0.2192
   18CHL1  H26C 1328   1.747   1.326   8.480  1.7942  1.0259  0.0533
   18CHL1   C27 1329   1.478   1.350   8.495 -0.2427 -0.3275 -0.2979
   18CHL1  H27A 1330   1.480   1.416   8.406  1.8731  0.1980  0.0867
   18CHL1  H27B 1331   1.504   1.243   8.477  0.0191 -0.9046  2.7956
   18CHL1  H27C 1332   1.373   1.355   8.532 -1.0942  0.1169 -2.6100
   19CHL1    C3 1333   6.652   5.258  10.263 -0.5202  0.2102  0.3736
   19CHL1    H3 1334   6.623   5.365  10.258 -0.6938  0.3404  2.7886
   19CHL1    O3 1335   6.686   5.245  10.396  0.5386 -0.0685  0.1836
   19CHL1   H3' 1336   6.607   5.273  10.445 -0.7746 -1.3238 -1.1126
   19CHL1    C4 1337   6.541   5.157  10.223  0.3725  0.3400 -0.9469
   19CHL1   H4A 1338   6.572   5.052  10.237 -1.1668 -0.1607 -1.0542
   19CHL1   H4B 1339   6.453   5.166  10.291  0.0741 -0.3767 -1.2328
   19CHL1    C5 1340   6.508   5.164  10.077 -0.6159 -0.0140  0.1056
   19CHL1    C6 1341   6.388   5.203  10.032  0.6362  0.2089 -0.1173
   19CHL1    H6 1342   6.316   5.211  10.115 -0.1550 -2.2303 -0.4942
   19CHL1    C7 1343   6.331   5.194   9.890 -1.1420  0.2670  0.4107
   19CHL1   H7A 1344   6.237   5.135   9.892 -0.7910 -0.2979  0.4393
   19CHL1   H7B 1345   6.310   5.298   9.855  0.2180  1.0774  1.8609
   19CHL1    C8 1346   6.438   5.127   9.799  0.4479  0.1123 -0.6242
   19CHL1    H8 1347   6.433   5.017   9.813  1.0841  0.2165  0.6791
   19CHL1   C14 1348   6.399   5.156   9.647  0.6997 -0.5616  0.6068
   19CHL1   H14 1349   6.409   5.264   9.622 -0.1429 -0.6269 -0.0912
   19CHL1   C15 1350   6.260   5.128   9.584 -0.5306 -0.6736 -0.1700
   19CHL1  H15A 1351   6.244   5.020   9.603  0.0841 -1.0195 -1.5035
   19CHL1  H15B 1352   6.185   5.196   9.630 -0.3618 -1.4347  1.2938
   19CHL1   C16 1353   6.279   5.147   9.435 -0.5893  0.5211  0.3208
   19CHL1  H16A 1354   6.240   5.048   9.401  1.7552  0.2592 -1.9768
   19CHL1  H16B 1355   6.223   5.221   9.374 -0.0480  0.0119 -0.8230
   19CHL1   C17 1356   6.438   5.149   9.412 -0.1456 -0.1312  0.5783
   19CHL1   H17 1357   6.470   5.255   9.403  4.0475 -1.3266 -0.8849
   19CHL1   C13 1358   6.499   5.106   9.543 -0.8387 -0.1652 -0.4061
   19CHL1   C18 1359   6.511   4.945   9.550  0.0484  0.5140 -0.3513
   19CHL1  H18A 1360   6.420   4.893   9.514 -0.1231  1.8306 -1.9155
   19CHL1  H18B 1361   6.592   4.915   9.480  1.0260 -3.6377  2.2316
   19CHL1  H18C 1362   6.545   4.910   9.650 -0.5015 -0.2626 -0.4301
   19CHL1   C12 1363   6.635   5.176   9.580 -0.2603 -0.0720 -0.3592
   19CHL1  H12A 1364   6.721   5.146   9.516 -0.0147  0.9604 -0.5370
   19CHL1  H12B 1365   6.622   5.286   9.581 -0.5758 -0.1106  0.1053
   19CHL1   C11 1366   6.682   5.144   9.722 -0.5172 -0.0837 -0.4924
   19CHL1  H11A 1367   6.694   5.033   9.723 -4.7022 -0.6873  0.3237
   19CHL1  H11B 1368   6.779   5.195   9.739 -0.1686 -0.7253 -0.5294
   19CHL1    C9 1369   6.577   5.181   9.833  0.1386 -0.0182  0.6724
   19CHL1    H9 1370   6.572   5.292   9.829 -0.1150 -0.0166  0.9033
   19CHL1   C10 1371   6.630   5.149   9.975  0.0660  0.2845  0.1006
   19CHL1   C19 1372   6.689   5.005   9.979 -0.1105 -0.0901  0.2251
   19CHL1  H19A 1373   6.784   4.994   9.922  0.3590 -1.3302  1.1987
   19CHL1  H19B 1374   6.721   4.979  10.082  1.9844  2.0441  0.2056
   19CHL1  H19C 1375   6.619   4.931   9.934 -0.7423  0.4086  0.3713
   19CHL1    C1 1376   6.739   5.246  10.029  0.0765  0.3683 -0.1635
   19CHL1   H1A 1377   6.833   5.246   9.969  0.6135  1.5414  0.6457
   19CHL1   H1B 1378   6.691   5.344  10.014  0.0994  0.1936 -1.5169
   19CHL1    C2 1379   6.778   5.229  10.178  0.2645 -0.3810 -0.0195
   19CHL1   H2A 1380   6.856   5.302  10.208 -0.9877  1.6948 -1.5846
   19CHL1   H2B 1381   6.826   5.131  10.201 -1.6043 -1.1484  0.8688
   19CHL1   C20 1382   6.489   5.090   9.274  1.4287  0.0100  0.1125
   19CHL1   H20 1383   6.461   4.983   9.281  0.0692  0.3378  0.1460
   19CHL1   C21 1384   6.642   5.103   9.244 -0.1313 -0.9255 -0.4614
   19CHL1  H21A 1385   6.674   5.036   9.161  1.0556  2.5834 -3.1046
   19CHL1  H21B 1386   6.697   5.053   9.327 -1.5445  1.1817  1.8683
   19CHL1  H21C 1387   6.681   5.206   9.231 -1.3810 -0.2555  0.8812
   19CHL1   C22 1388   6.411   5.164   9.156  0.2547 -0.1489 -0.3183
   19CHL1  H22A 1389   6.301   5.168   9.168 -0.0037  2.9138 -2.4674
   19CHL1  H22B 1390   6.451   5.268   9.158 -0.0256  0.0255 -2.1345
   19CHL1   C23 1391   6.437   5.119   9.017 -0.1953 -0.2462 -0.2304
   19CHL1  H23A 1392   6.384   5.175   8.938 -1.1954  0.7320  1.0942
   19CHL1  H23B 1393   6.546   5.127   8.995 -0.2507 -1.1421 -0.8777
   19CHL1   C24 1394   6.405   4.966   9.007 -0.3041 -0.0211 -0.1377
   19CHL1  H24A 1395   6.469   4.907   9.075 -0.9563 -0.2281  0.3077
   19CHL1  H24B 1396   6.301   4.959   9.047 -0.3353  0.7954 -0.0756
   19CHL1   C25 1397   6.425   4.890   8.872 -0.2654 -0.7207  0.0864
   19CHL1   H25 1398   6.522   4.917   8.825  0.8151 -2.2594  1.3358
   19CHL1   C26 1399   6.405   4.737   8.890 -0.0276  0.0397  0.5190
   19CHL1  H26A 1400   6.493   4.690   8.939  1.5258  1.5083 -0.7550
   19CHL1  H26B 1401   6.306   4.714   8.936  1.0697 -0.7223  2.6181
   19CHL1  H26C 1402   6.407   4.691   8.789 -0.3759  3.6743 -1.3017
   19CHL1   C27 1403   6.326   4.933   8.778 -0.5446 -0.2806  0.8093
   19CHL1  H27A 1404   6.225   4.906   8.816 -0.5848 -1.4113 -0.0699
   19CHL1  H27B 1405   6.329   5.042   8.754 -1.4551 -0.5579 -0.7030
   19CHL1  H27C 1406   6.350   4.890   8.679  1.7841  1.5843  0.4663
   20CHL1    C3 1407   1.017   5.162  10.386  0.2810 -0.0344  0.6452
   20CHL1    H3 1408   0.953   5.244  10.346  1.6498  0.0101 -1.6582
   20CHL1    O3 1409   1.019   5.171  10.527 -0.9668  0.0433 -0.0849
   20CHL1   H3' 1410   1.072   5.092  10.541 -2.5682 -1.8194 -3.5512
   20CHL1    C4 1411   0.961   5.033  10.323  0.3379  0.3445 -0.5897
   20CHL1   H4A 1412   1.020   4.947  10.362 -0.0561  0.5129  0.4188
   20CHL1   H4B 1413   0.857   5.024  10.362  0.6825  1.7692  0.7539
   20CHL1    C5 1414   0.968   5.018  10.170 -0.3901 -0.2410  0.0463
   20CHL1    C6 1415   0.858   4.983  10.096  0.5607  0.3520 -0.5464
   20CHL1    H6 1416   0.762   4.957  10.142 -0.2548  0.6719 -2.0027
   20CHL1    C7 1417   0.862   4.973   9.942  0.1505 -0.2295  0.0903
   20CHL1   H7A 1418   0.810   4.879   9.913  0.5743  0.1554 -2.1009
   20CHL1   H7B 1419   0.809   5.063   9.905 -4.7971 -2.7097  0.3498
   20CHL1    C8 1420   1.004   4.986   9.879 -0.2855 -0.5978  0.5493
   20CHL1    H8 1421   1.052   4.889   9.905 -1.0213 -1.4417 -1.1188
   20CHL1   C14 1422   0.996   5.021   9.730 -1.4105 -0.8155 -0.6258
   20CHL1   H14 1423   0.950   5.122   9.720  0.1691  0.0069  0.0867
   20CHL1   C15 1424   0.912   4.933   9.638 -0.8001  0.0572 -0.3589
   20CHL1  H15A 1425   0.950   4.829   9.651  0.9986  0.1027 -3.9886
   20CHL1  H15B 1426   0.803   4.941   9.654 -0.7231 -0.5994  0.6090
   20CHL1   C16 1427   0.955   4.982   9.500  0.1999 -0.3692 -0.3211
   20CHL1  H16A 1428   0.959   4.889   9.440 -0.9988 -1.4502  1.1969
   20CHL1  H16B 1429   0.890   5.056   9.449  1.6175  1.2114  0.0637
   20CHL1   C17 1430   1.094   5.052   9.518  0.0566 -0.2355 -0.0755
   20CHL1   H17 1431   1.073   5.161   9.528  0.6661 -0.0583 -0.6797
   20CHL1   C13 1432   1.134   5.038   9.667 -0.3387 -0.1598 -0.1284
   20CHL1   C18 1433   1.214   4.902   9.678  0.4461 -0.7068  0.4226
   20CHL1  H18A 1434   1.317   4.916   9.639  0.7613 -1.6290  0.9025
   20CHL1  H18B 1435   1.219   4.867   9.783  3.0887  0.4979  0.7689
   20CHL1  H18C 1436   1.163   4.831   9.609 -2.3022 -1.7526  3.2855
   20CHL1   C12 1437   1.214   5.152   9.732  1.1300 -0.2671 -0.2702
   20CHL1  H12A 1438   1.317   5.156   9.690  1.6840  3.3421  1.0655
   20CHL1  H12B 1439   1.157   5.246   9.714  0.2822 -0.5823  0.6493
   20CHL1   C11 1440   1.221   5.136   9.886  0.0099 -0.3246 -0.4265
   20CHL1  H11A 1441   1.300   5.060   9.905  0.0321 -0.4302 -0.9464
   20CHL1  H11B 1442   1.257   5.233   9.928  0.3600 -0.6982  0.1536
   20CHL1    C9 1443   1.083   5.096   9.952  0.5529  0.5118  0.1723
   20CHL1    H9 1444   1.015   5.181   9.932 -0.6368 -0.3465  0.4735
   20CHL1   C10 1445   1.097   5.062  10.103 -0.6283  0.3673 -0.2664
   20CHL1   C19 1446   1.201   4.948  10.127 -0.3405  0.8272  0.6985
   20CHL1  H19A 1447   1.204   4.924  10.235  1.6819  3.6763  1.4005
   20CHL1  H19B 1448   1.182   4.852  10.074  0.5580 -0.9234  3.3324
   20CHL1  H19C 1449   1.307   4.970  10.100  0.0756 -1.0720  0.6639
   20CHL1    C1 1450   1.153   5.188  10.178 -0.2205  0.2730 -0.4158
   20CHL1   H1A 1451   1.256   5.209  10.144  0.3350  0.5908  1.3574
   20CHL1   H1B 1452   1.082   5.264  10.138  0.9300  1.1555 -0.8286
   20CHL1    C2 1453   1.153   5.186  10.328 -0.2920 -0.1037 -0.4142
   20CHL1   H2A 1454   1.183   5.281  10.377  1.0691 -1.0250  0.6196
   20CHL1   H2B 1455   1.219   5.108  10.371  2.2857  1.5774 -1.1246
   20CHL1   C20 1456   1.199   5.016   9.400 -1.2191 -0.4930 -0.3271
   20CHL1   H20 1457   1.231   4.909   9.393  2.9735  0.6944 -2.7762
   20CHL1   C21 1458   1.329   5.103   9.427 -0.1136  0.0963  0.7966
   20CHL1  H21A 1459   1.394   5.075   9.513  1.1488 -0.0532 -0.1764
   20CHL1  H21B 1460   1.297   5.207   9.447  2.6235  0.8814  1.5138
   20CHL1  H21C 1461   1.398   5.084   9.343  0.9931 -0.0102  1.7061
   20CHL1   C22 1462   1.131   5.049   9.264  1.1535 -0.2243  0.3630
   20CHL1  H22A 1463   1.041   4.984   9.262  0.3271  0.8719  0.6473
   20CHL1  H22B 1464   1.091   5.153   9.266  1.8592  0.0980 -0.9555
   20CHL1   C23 1465   1.222   5.038   9.144 -0.0119 -0.5123  0.1615
   20CHL1  H23A 1466   1.306   5.111   9.149  1.1658 -1.4814 -2.8350
   20CHL1  H23B 1467   1.267   4.937   9.130 -0.9938 -0.6382 -2.7189
   20CHL1   C24 1468   1.150   5.058   9.011 -0.2908 -0.3457  0.2070
   20CHL1  H24A 1469   1.092   4.964   8.998 -2.2611  0.8920 -0.3923
   20CHL1  H24B 1470   1.082   5.146   9.011 -0.7109 -0.5350  3.4157
   20CHL1   C25 1471   1.240   5.094   8.892 -0.3846  0.1907 -0.9330
   20CHL1   H25 1472   1.344   5.066   8.919 -1.4220 -2.9609  0.3083
   20CHL1   C26 1473   1.199   5.037   8.758 -0.0259 -0.3994 -0.0578
   20CHL1  H26A 1474   1.088   5.040   8.753 -0.0492 -1.8149 -0.7531
   20CHL1  H26B 1475   1.244   5.093   8.673 -1.5782  2.3951  0.8087
   20CHL1  H26C 1476   1.213   4.927   8.754 -3.3027 -0.9925  0.9920
   20CHL1   C27 1477   1.246   5.244   8.868  0.6774 -0.5064  0.6011
   20CHL1  H27A 1478   1.314   5.263   8.783  1.3383 -1.0466  0.9998
   20CHL1  H27B 1479   1.147   5.293   8.853  0.5088 -1.6970 -3.6614
   20CHL1  H27C 1480   1.291   5.289   8.959  3.1117  1.9095 -1.6314
   21CHL1    C3 1481   0.163   2.245  10.243 -0.0459 -0.2042 -0.6474
   21CHL1    H3 1482   0.102   2.337  10.226 -2.4708 -1.3767  1.0995
   21CHL1    O3 1483   0.161   2.202  10.382 -0.1509 -0.2100 -0.0647
   21CHL1   H3' 1484   0.080   2.235  10.423  0.7893 -0.1497  1.8758
   21CHL1    C4 1485   0.110   2.130  10.156  0.1150 -0.5414 -0.0343
   21CHL1   H4A 1486   0.158   2.034  10.187  0.4724 -0.3171  0.1159
   21CHL1   H4B 1487   0.006   2.112  10.189  0.0296  0.3586  0.2017
   21CHL1    C5 1488   0.132   2.156  10.003  0.3010  0.3066 -0.2681
   21CHL1    C6 1489   0.027   2.142   9.922 -0.2226 -0.0684 -0.0735
   21CHL1    H6 1490  -0.070   2.117   9.968 -0.3873 -0.2318 -0.5131
   21CHL1    C7 1491   0.034   2.172   9.776  0.4117 -0.1628  0.2382
   21CHL1   H7A 1492  -0.032   2.103   9.719  2.3159 -1.4865 -0.4550
   21CHL1   H7B 1493   0.004   2.272   9.737 -1.6071 -1.0503 -0.6340
   21CHL1    C8 1494   0.185   2.148   9.730 -0.2330 -0.2397  0.7863
   21CHL1    H8 1495   0.209   2.040   9.746 -2.2717 -0.6993  1.0851
   21CHL1   C14 1496   0.203   2.184   9.581 -0.5321  0.6982  0.4330
   21CHL1   H14 1497   0.204   2.295   9.576 -0.5280  0.6496 -1.1198
   21CHL1   C15 1498   0.097   2.144   9.480  0.0056  0.0106 -0.0361
   21CHL1  H15A 1499   0.055   2.042   9.495  0.0774  0.0452  0.4108
   21CHL1  H15B 1500   0.009   2.205   9.509 -0.9461 -1.4164  0.2328
   21CHL1   C16 1501   0.159   2.152   9.344 -0.2291 -0.5253 -0.3131
   21CHL1  H16A 1502   0.155   2.053   9.293 -0.6274  0.0932 -1.5236
   21CHL1  H16B 1503   0.100   2.214   9.274 -0.1941 -2.0709 -1.8037
   21CHL1   C17 1504   0.307   2.196   9.370 -1.3879  0.4393 -0.1925
   21CHL1   H17 1505   0.303   2.307   9.362 -0.1544  0.3844 -2.5312
   21CHL1   C13 1506   0.341   2.148   9.515  0.6915  0.1954 -0.1071
   21CHL1   C18 1507   0.367   1.997   9.509 -0.1886 -0.1305 -0.0576
   21CHL1  H18A 1508   0.375   1.965   9.615 -0.7423  3.6295  1.2621
   21CHL1  H18B 1509   0.288   1.945   9.451  1.6013 -1.7113 -1.1900
   21CHL1  H18C 1510   0.460   1.974   9.452  0.8101  1.0002  1.0692
   21CHL1   C12 1511   0.445   2.226   9.590  0.6965  0.1166 -1.4813
   21CHL1  H12A 1512   0.540   2.174   9.563  0.9071  0.7595 -1.9936
   21CHL1  H12B 1513   0.442   2.329   9.549 -1.2064  1.5739  1.8644
   21CHL1   C11 1514   0.426   2.226   9.747 -0.3080 -0.2631  0.2549
   21CHL1  H11A 1515   0.475   2.129   9.770 -0.2608 -0.6081 -1.1671
   21CHL1  H11B 1516   0.494   2.304   9.787 -1.0718  0.6311 -0.1680
   21CHL1    C9 1517   0.285   2.231   9.808  0.0142 -0.1624 -0.2545
   21CHL1    H9 1518   0.259   2.337   9.787  2.1014 -0.1454 -3.3397
   21CHL1   C10 1519   0.275   2.199   9.958 -0.7650 -0.2197 -0.6243
   21CHL1   C19 1520   0.372   2.078   9.994  0.3806 -1.0386  0.0927
   21CHL1  H19A 1521   0.471   2.125  10.011  0.9656 -2.1148 -0.2631
   21CHL1  H19B 1522   0.353   2.012  10.081 -1.2187 -1.9108 -0.8762
   21CHL1  H19C 1523   0.374   2.016   9.902 -3.8422 -0.5430 -0.5410
   21CHL1    C1 1524   0.308   2.322  10.053  0.3101  0.3065 -0.0378
   21CHL1   H1A 1525   0.409   2.356  10.024 -0.7095  2.4329 -1.3475
   21CHL1   H1B 1526   0.225   2.394  10.036 -1.7535 -1.3293  2.2525
   21CHL1    C2 1527   0.304   2.292  10.203 -0.0153  0.1964 -0.2533
   21CHL1   H2A 1528   0.328   2.374  10.275  2.4160 -0.7555  0.1375
   21CHL1   H2B 1529   0.369   2.204  10.220  1.5764  1.1045 -1.3776
   21CHL1   C20 1530   0.409   2.161   9.261 -0.2529  0.8108  0.2772
   21CHL1   H20 1531   0.439   2.055   9.278  0.0624  0.6571 -1.1113
   21CHL1   C21 1532   0.542   2.242   9.263  0.4510 -0.5998 -0.2019
   21CHL1  H21A 1533   0.536   2.353   9.250 -0.2018 -0.6454 -0.3102
   21CHL1  H21B 1534   0.594   2.196   9.176  0.1834 -2.4376  0.5806
   21CHL1  H21C 1535   0.596   2.216   9.356  0.4305  2.3859  0.7729
   21CHL1   C22 1536   0.355   2.153   9.112 -0.0301  0.6704  0.1664
   21CHL1  H22A 1537   0.427   2.102   9.045 -0.5078  0.0042  0.1412
   21CHL1  H22B 1538   0.256   2.101   9.106  1.0011 -1.4209  0.2627
   21CHL1   C23 1539   0.333   2.294   9.046  0.4182  0.1504 -0.5378
   21CHL1  H23A 1540   0.266   2.348   9.117  1.3197 -2.1036  2.1932
   21CHL1  H23B 1541   0.428   2.345   9.021  0.6646  0.0233  0.1072
   21CHL1   C24 1542   0.264   2.261   8.910 -0.0341  0.0317 -0.1785
   21CHL1  H24A 1543   0.316   2.177   8.859  1.4441  1.3300 -0.8764
   21CHL1  H24B 1544   0.159   2.229   8.930  0.0518 -0.3055 -0.2540
   21CHL1   C25 1545   0.254   2.383   8.810 -0.4115  0.2858  0.1509
   21CHL1   H25 1546   0.223   2.463   8.880 -0.6842 -0.5102  0.9646
   21CHL1   C26 1547   0.392   2.408   8.757  0.1815 -0.6733  0.4117
   21CHL1  H26A 1548   0.469   2.452   8.824 -0.0352 -0.2477  0.3884
   21CHL1  H26B 1549   0.431   2.315   8.711 -2.9208 -1.9282  0.0881
   21CHL1  H26C 1550   0.387   2.485   8.676  1.5700 -0.5953  0.3723
   21CHL1   C27 1551   0.148   2.358   8.699 -0.1246  0.0861  0.3798
   21CHL1  H27A 1552   0.180   2.284   8.622  1.0253  0.4655  0.4851
   21CHL1  H27B 1553   0.053   2.325   8.747 -1.2447  0.1062 -1.7156
   21CHL1  H27C 1554   0.120   2.452   8.648  0.6268  0.3692  0.4926
   22CHL1    C3 1555   1.319   1.880  10.267 -0.3036  0.5159 -0.9130
   22CHL1    H3 1556   1.258   1.787  10.260 -1.1734  1.0579 -0.7607
   22CHL1    O3 1557   1.290   1.934  10.400 -0.6455 -0.3533 -0.5150
   22CHL1   H3' 1558   1.316   1.883  10.476 -1.3439 -1.9468 -1.2804
   22CHL1    C4 1559   1.468   1.874  10.240 -0.2780  0.5314  0.3575
   22CHL1   H4A 1560   1.511   1.968  10.282 -1.4037  0.3526  2.0350
   22CHL1   H4B 1561   1.517   1.799  10.306 -1.5322 -0.8730 -0.2571
   22CHL1    C5 1562   1.500   1.850  10.090 -0.0913  0.6125  0.8965
   22CHL1    C6 1563   1.583   1.745  10.056 -0.3141  0.3335 -0.3631
   22CHL1    H6 1564   1.644   1.695  10.132  0.3119  0.9414 -0.4543
   22CHL1    C7 1565   1.613   1.706   9.914 -0.7913 -0.4028  0.4511
   22CHL1   H7A 1566   1.719   1.681   9.895 -0.9557 -0.5116 -0.3333
   22CHL1   H7B 1567   1.545   1.624   9.883 -1.7601 -0.1441  1.7585
   22CHL1    C8 1568   1.586   1.832   9.820 -0.3346 -0.7150 -0.2440
   22CHL1    H8 1569   1.663   1.904   9.853 -0.5827 -0.9450  0.8610
   22CHL1   C14 1570   1.592   1.802   9.670 -0.1652  0.7312 -0.8925
   22CHL1   H14 1571   1.514   1.724   9.652  0.3029 -0.0335  0.2557
   22CHL1   C15 1572   1.726   1.741   9.610  0.6142 -0.1507 -0.4660
   22CHL1  H15A 1573   1.820   1.797   9.627  0.7993 -0.0093 -1.8084
   22CHL1  H15B 1574   1.753   1.635   9.633  0.7363  0.1160  0.6583
   22CHL1   C16 1575   1.697   1.740   9.453  0.0094 -0.3755 -0.3308
   22CHL1  H16A 1576   1.790   1.781   9.407  1.4588 -0.1740  2.5864
   22CHL1  H16B 1577   1.678   1.642   9.405  0.1619  0.0274 -1.2514
   22CHL1   C17 1578   1.579   1.838   9.437  0.1839 -0.3338 -0.0408
   22CHL1   H17 1579   1.492   1.771   9.415 -0.5039  0.7431 -0.6997
   22CHL1   C13 1580   1.550   1.910   9.571  0.1136  0.5340 -0.1799
   22CHL1   C18 1581   1.645   2.032   9.569 -0.6319  0.3503 -0.3723
   22CHL1  H18A 1582   1.743   1.990   9.535 -1.4340 -1.5505 -0.4334
   22CHL1  H18B 1583   1.599   2.115   9.510 -1.8899  0.8820  1.3065
   22CHL1  H18C 1584   1.668   2.079   9.667  2.1057  0.5334 -0.9988
   22CHL1   C12 1585   1.407   1.955   9.599 -0.9290  0.5924 -0.6423
   22CHL1  H12A 1586   1.378   2.041   9.535  0.1502  0.3813 -1.4363
   22CHL1  H12B 1587   1.340   1.866   9.590  1.0503 -0.9556 -0.7863
   22CHL1   C11 1588   1.403   2.000   9.740 -0.1660 -0.0925  0.2903
   22CHL1  H11A 1589   1.455   2.097   9.752 -1.2201  0.9363 -2.4555
   22CHL1  H11B 1590   1.298   2.025   9.767 -0.7538 -2.9443  0.9511
   22CHL1    C9 1591   1.446   1.890   9.845 -0.7994  0.4695  0.2118
   22CHL1    H9 1592   1.372   1.808   9.830  0.1794 -0.8864  2.2964
   22CHL1   C10 1593   1.428   1.935   9.994 -0.0628 -0.5446 -0.1861
   22CHL1   C19 1594   1.481   2.077   9.995 -0.3398 -1.1698 -0.5244
   22CHL1  H19A 1595   1.572   2.082   9.930 -1.7565 -1.6499 -2.6650
   22CHL1  H19B 1596   1.410   2.152   9.954  1.4921  0.6964 -0.4729
   22CHL1  H19C 1597   1.508   2.113  10.096 -1.4188  0.3212 -0.7440
   22CHL1    C1 1598   1.283   1.942  10.029  0.0854  0.1800 -0.5531
   22CHL1   H1A 1599   1.237   2.021   9.966  0.3819 -0.1347 -1.1693
   22CHL1   H1B 1600   1.229   1.847  10.012  0.2143  0.1125 -0.5867
   22CHL1    C2 1601   1.254   1.984  10.170 -0.4444 -0.7120 -0.6404
   22CHL1   H2A 1602   1.147   2.006  10.190 -0.0267  1.9636 -1.0615
   22CHL1   H2B 1603   1.296   2.082  10.200 -2.2031 -0.1505  0.1164
   22CHL1   C20 1604   1.582   1.918   9.305  0.1134 -0.3069  0.1095
   22CHL1   H20 1605   1.639   2.013   9.308 -1.5120  0.7387 -0.5046
   22CHL1   C21 1606   1.437   1.968   9.285  0.0792 -0.2867 -0.9091
   22CHL1  H21A 1607   1.428   2.008   9.182  0.3260  2.7670  0.1616
   22CHL1  H21B 1608   1.418   2.062   9.340  0.5044 -1.0511  0.5963
   22CHL1  H21C 1609   1.351   1.904   9.315 -0.5947  0.7721 -0.5081
   22CHL1   C22 1610   1.618   1.820   9.188  0.0696 -0.0198  0.0194
   22CHL1  H22A 1611   1.717   1.773   9.203  0.0193 -0.1712 -0.1174
   22CHL1  H22B 1612   1.534   1.747   9.190 -1.5886  1.8211  1.2264
   22CHL1   C23 1613   1.630   1.892   9.047 -0.2303 -0.4263 -1.3135
   22CHL1  H23A 1614   1.540   1.953   9.021 -1.6785 -1.5820  0.6813
   22CHL1  H23B 1615   1.711   1.965   9.065  0.0220 -0.6558 -1.5157
   22CHL1   C24 1616   1.660   1.806   8.927  0.7037 -0.0911  0.2139
   22CHL1  H24A 1617   1.733   1.724   8.943  1.3041  0.6645  1.5608
   22CHL1  H24B 1618   1.567   1.747   8.908 -0.8924  2.5891 -0.9014
   22CHL1   C25 1619   1.692   1.876   8.798  0.0331  0.0947 -0.1872
   22CHL1   H25 1620   1.608   1.948   8.794 -0.1577 -0.0128  1.2171
   22CHL1   C26 1621   1.836   1.936   8.805  0.7008 -0.5309  0.4753
   22CHL1  H26A 1622   1.910   1.863   8.766  1.1400  0.0035  0.2925
   22CHL1  H26B 1623   1.831   2.002   8.716  0.5796 -2.4414 -1.0074
   22CHL1  H26C 1624   1.856   2.004   8.891 -1.3567  2.3715 -1.1845
   22CHL1   C27 1625   1.681   1.777   8.687 -0.2448  0.5141  0.5220
   22CHL1  H27A 1626   1.723   1.678   8.714  0.6875  0.6009 -0.5591
   22CHL1  H27B 1627   1.576   1.750   8.661  0.3082 -1.4770  0.1619
   22CHL1  H27C 1628   1.724   1.808   8.590  0.4163 -0.0914  0.6087
   23CHL1    C3 1629   4.321   2.794  10.191  0.2410 -0.0965 -0.2904
   23CHL1    H3 1630   4.362   2.748  10.098 -3.7924 -2.0211 -1.3486
   23CHL1    O3 1631   4.387   2.736  10.301 -0.0811  0.2502  0.3222
   23CHL1   H3' 1632   4.398   2.799  10.373 -1.1518  1.6653 -0.6735
   23CHL1    C4 1633   4.362   2.946  10.195  0.3596  0.3422 -0.4290
   23CHL1   H4A 1634   4.344   2.988  10.296  1.6111 -0.2437  0.0614
   23CHL1   H4B 1635   4.472   2.961  10.186  0.4474  0.5089  0.6796
   23CHL1    C5 1636   4.288   3.026  10.086  0.6660  0.0523 -0.3226
   23CHL1    C6 1637   4.357   3.100  10.001 -0.7405 -0.7164 -0.6517
   23CHL1    H6 1638   4.465   3.115  10.014 -0.3027 -1.1354 -3.3303
   23CHL1    C7 1639   4.305   3.186   9.888  0.2174  0.0641  0.1059
   23CHL1   H7A 1640   4.354   3.285   9.876  0.2866  0.0307  0.1127
   23CHL1   H7B 1641   4.336   3.138   9.792  2.9461  0.9319  0.4555
   23CHL1    C8 1642   4.145   3.198   9.900 -0.1805  0.1607 -0.1999
   23CHL1    H8 1643   4.131   3.269   9.985  1.9948  0.5398 -0.1082
   23CHL1   C14 1644   4.093   3.255   9.770  0.1777 -0.0364 -0.5828
   23CHL1   H14 1645   4.116   3.195   9.680  1.0833  0.4141 -0.6684
   23CHL1   C15 1646   4.142   3.396   9.737  0.8055  0.2597 -0.5124
   23CHL1  H15A 1647   4.134   3.450   9.834 -2.2990 -1.1112  0.1211
   23CHL1  H15B 1648   4.245   3.406   9.697  0.8176  0.5473 -0.4153
   23CHL1   C16 1649   4.036   3.448   9.636 -0.2557 -0.2816  0.5141
   23CHL1  H16A 1650   3.994   3.543   9.675  0.4297  0.5206 -0.6439
   23CHL1  H16B 1651   4.080   3.459   9.535  0.1536  0.4139  0.7664
   23CHL1   C17 1652   3.929   3.341   9.630  0.5511  0.5145 -0.1586
   23CHL1   H17 1653   3.959   3.262   9.557  0.1735 -0.0338  0.2635
   23CHL1   C13 1654   3.939   3.271   9.763 -0.3794  0.2602 -0.7080
   23CHL1   C18 1655   3.881   3.353   9.873  0.2904 -0.0194  0.6621
   23CHL1  H18A 1656   3.897   3.461   9.850  0.9843  0.3379  2.6250
   23CHL1  H18B 1657   3.771   3.345   9.877  0.2446 -0.9759 -1.2868
   23CHL1  H18C 1658   3.911   3.334   9.978 -0.0680 -0.6640  0.6469
   23CHL1   C12 1659   3.886   3.122   9.773  0.2900 -0.5795  0.4465
   23CHL1  H12A 1660   3.777   3.140   9.759  0.6540  2.8435  1.0331
   23CHL1  H12B 1661   3.924   3.062   9.688 -0.2637 -1.6025  0.9024
   23CHL1   C11 1662   3.927   3.067   9.914 -0.2343 -0.0970 -0.0291
   23CHL1  H11A 1663   3.888   3.136   9.992  0.4348  0.5870 -0.2865
   23CHL1  H11B 1664   3.886   2.967   9.941  1.7854 -0.5227  1.7632
   23CHL1    C9 1665   4.081   3.057   9.931  0.4842  0.0132 -0.3960
   23CHL1    H9 1666   4.120   2.991   9.850  1.0749 -0.1072 -0.0239
   23CHL1   C10 1667   4.135   3.004  10.065  0.3008  0.7451 -0.1508
   23CHL1   C19 1668   4.060   3.070  10.186 -0.4189 -0.2050  0.1073
   23CHL1  H19A 1669   3.957   3.033  10.202 -0.8336  0.5536 -0.7607
   23CHL1  H19B 1670   4.103   3.048  10.286 -2.1783  0.5556  1.0836
   23CHL1  H19C 1671   4.050   3.179  10.167 -3.2535 -0.3960  0.1450
   23CHL1    C1 1672   4.110   2.845  10.070  0.0255 -0.0511 -0.4837
   23CHL1   H1A 1673   4.001   2.825  10.068 -0.0927  0.6152 -1.2245
   23CHL1   H1B 1674   4.139   2.802   9.971 -0.8817 -0.1926 -0.6931
   23CHL1    C2 1675   4.174   2.771  10.191  0.0089 -0.3750  0.0542
   23CHL1   H2A 1676   4.160   2.662  10.180  2.7323 -0.5681 -3.3279
   23CHL1   H2B 1677   4.125   2.802  10.286 -0.7256  2.7520 -1.2020
   23CHL1   C20 1678   3.798   3.392   9.577 -0.0038  0.6852  0.3723
   23CHL1   H20 1679   3.747   3.462   9.647 -0.5172  1.8014 -1.0718
   23CHL1   C21 1680   3.702   3.273   9.548  0.2294  0.1504 -0.0628
   23CHL1  H21A 1681   3.752   3.179   9.517 -0.9591 -0.1325 -1.2197
   23CHL1  H21B 1682   3.609   3.305   9.495 -0.8435 -0.2496  1.5072
   23CHL1  H21C 1683   3.651   3.246   9.643 -0.9218  1.5288 -0.2468
   23CHL1   C22 1684   3.805   3.471   9.439 -0.2908  0.0151  0.0099
   23CHL1  H22A 1685   3.700   3.499   9.415  0.2353  2.4537  0.2676
   23CHL1  H22B 1686   3.870   3.561   9.441 -1.0132  0.7374 -2.9596
   23CHL1   C23 1687   3.854   3.387   9.326 -0.0517  0.6754 -0.8620
   23CHL1  H23A 1688   3.964   3.375   9.334 -0.1609 -0.8373 -1.3656
   23CHL1  H23B 1689   3.824   3.282   9.344  1.1229  0.5717  0.7423
   23CHL1   C24 1690   3.812   3.438   9.185 -0.0889  0.1812  1.0240
   23CHL1  H24A 1691   3.703   3.422   9.171 -0.0313 -0.5939  1.4188
   23CHL1  H24B 1692   3.839   3.546   9.179 -0.1537  0.1994  1.0530
   23CHL1   C25 1693   3.871   3.374   9.056 -0.2145 -0.7288 -1.0378
   23CHL1   H25 1694   3.981   3.386   9.073 -0.6830  0.4578  1.9418
   23CHL1   C26 1695   3.837   3.227   9.047  0.0072  0.1448 -0.0433
   23CHL1  H26A 1696   3.868   3.170   9.137  1.4152 -0.1167 -0.6606
   23CHL1  H26B 1697   3.728   3.220   9.026 -0.0379 -0.4848  0.3903
   23CHL1  H26C 1698   3.900   3.183   8.966 -1.4208 -0.6551 -0.7708
   23CHL1   C27 1699   3.842   3.455   8.929 -0.3388 -0.1651  0.2404
   23CHL1  H27A 1700   3.896   3.552   8.927  1.7459 -1.1935 -3.7208
   23CHL1  H27B 1701   3.872   3.400   8.838 -1.7734 -2.0951  0.8701
   23CHL1  H27C 1702   3.732   3.456   8.909 -0.1585 -4.0495 -1.8078
   24CHL1    C3 1703   4.222   4.327  10.159  0.3253  0.0941 -0.4734
   24CHL1    H3 1704   4.320   4.378  10.150  0.1490  0.4000 -0.6684
   24CHL1    O3 1705   4.188   4.308  10.297 -0.4016  0.0422 -0.4148
   24CHL1   H3' 1706   4.214   4.389  10.341 -0.3536 -0.2962  0.1880
   24CHL1    C4 1707   4.122   4.420  10.098 -0.0434  0.4213  0.3705
   24CHL1   H4A 1708   4.019   4.385  10.121  0.7615 -3.7194 -1.4249
   24CHL1   H4B 1709   4.127   4.520  10.146  0.2897 -0.4922  2.3362
   24CHL1    C5 1710   4.127   4.427   9.947  0.1424  0.1999 -0.3197
   24CHL1    C6 1711   4.143   4.552   9.897  0.0669  0.3074 -0.3285
   24CHL1    H6 1712   4.115   4.637   9.961 -1.5161 -0.4681  0.0674
   24CHL1    C7 1713   4.155   4.568   9.751 -0.4352 -0.0459  0.5505
   24CHL1   H7A 1714   4.092   4.658   9.734 -1.3653 -0.9604 -1.0811
   24CHL1   H7B 1715   4.256   4.599   9.717 -0.5489 -1.2115 -0.9450
   24CHL1    C8 1716   4.105   4.453   9.665 -0.7907 -1.2740 -0.4026
   24CHL1    H8 1717   3.994   4.441   9.668 -0.7236 -1.9332 -0.2250
   24CHL1   C14 1718   4.144   4.482   9.522  0.0403  0.6745 -0.6608
   24CHL1   H14 1719   4.253   4.502   9.530  0.2324  0.1231 -1.6991
   24CHL1   C15 1720   4.089   4.610   9.457  0.6526  0.1484  0.5965
   24CHL1  H15A 1721   3.979   4.617   9.445  0.7054 -0.8646 -0.7001
   24CHL1  H15B 1722   4.137   4.701   9.499  0.2464  1.0950 -0.9002
   24CHL1   C16 1723   4.133   4.588   9.312 -0.1645  0.0813 -0.5861
   24CHL1  H16A 1724   4.063   4.617   9.231 -0.4189 -1.4032 -0.9157
   24CHL1  H16B 1725   4.230   4.641   9.302  0.6728 -1.5762 -1.7685
   24CHL1   C17 1726   4.177   4.435   9.302  0.1914  0.0315  1.1095
   24CHL1   H17 1727   4.286   4.426   9.320  0.2352 -0.5567  0.5823
   24CHL1   C13 1728   4.118   4.366   9.426  0.5732  0.7308 -0.5929
   24CHL1   C18 1729   3.964   4.350   9.392  0.0204 -0.6249 -0.3589
   24CHL1  H18A 1730   3.930   4.430   9.324 -0.9098  0.4925  1.3601
   24CHL1  H18B 1731   3.933   4.254   9.344 -1.0867 -0.5266  0.1206
   24CHL1  H18C 1732   3.909   4.367   9.487  0.1022 -2.8689  0.1563
   24CHL1   C12 1733   4.184   4.238   9.479 -0.1215 -0.0831 -0.9938
   24CHL1  H12A 1734   4.161   4.142   9.426 -0.7949 -1.4510  1.5957
   24CHL1  H12B 1735   4.293   4.256   9.471  0.5504 -3.4327 -0.9081
   24CHL1   C11 1736   4.145   4.201   9.624 -0.0928  0.0525  0.4546
   24CHL1  H11A 1737   4.039   4.170   9.609 -0.2891  0.6441  0.5695
   24CHL1  H11B 1738   4.204   4.114   9.657 -0.4298 -0.1136  0.6209
   24CHL1    C9 1739   4.168   4.324   9.717 -0.7889 -0.2076  0.4892
   24CHL1    H9 1740   4.278   4.338   9.713 -0.4763 -2.5358 -0.0630
   24CHL1   C10 1741   4.130   4.302   9.855  1.4069 -0.3609  0.2195
   24CHL1   C19 1742   3.992   4.237   9.863 -0.0247 -0.7218 -0.7140
   24CHL1  H19A 1743   3.949   4.231   9.966  0.5567 -2.0165 -0.5341
   24CHL1  H19B 1744   3.915   4.276   9.793 -1.3419 -2.4656 -0.3226
   24CHL1  H19C 1745   4.003   4.137   9.818 -0.8663 -0.9289 -0.4735
   24CHL1    C1 1746   4.236   4.207   9.931 -0.0334  0.0219  0.0455
   24CHL1   H1A 1747   4.230   4.105   9.888 -1.2113  0.2146 -0.2848
   24CHL1   H1B 1748   4.342   4.236   9.917  0.5894 -2.5495 -1.0034
   24CHL1    C2 1749   4.216   4.188  10.079  0.5884 -0.9674 -0.1729
   24CHL1   H2A 1750   4.276   4.111  10.133  0.7863 -0.7821 -0.1308
   24CHL1   H2B 1751   4.113   4.153  10.102  0.6035 -0.9601 -0.0917
   24CHL1   C20 1752   4.150   4.379   9.160 -0.2908  1.1128 -0.0752
   24CHL1   H20 1753   4.042   4.383   9.135 -0.1048 -1.2029 -1.5153
   24CHL1   C21 1754   4.198   4.227   9.141 -0.1820  0.1884  0.1000
   24CHL1  H21A 1755   4.149   4.198   9.046  4.2892 -0.4510 -2.3027
   24CHL1  H21B 1756   4.163   4.150   9.213 -0.1634 -1.6368 -1.7698
   24CHL1  H21C 1757   4.309   4.223   9.134 -0.0284  1.1514  1.4665
   24CHL1   C22 1758   4.213   4.463   9.054  0.5459  0.2475 -0.1254
   24CHL1  H22A 1759   4.180   4.569   9.063  0.3049  0.1009  0.7674
   24CHL1  H22B 1760   4.323   4.461   9.072  0.6485  0.2399 -0.7187
   24CHL1   C23 1761   4.188   4.411   8.908  0.1236  0.1257  0.0746
   24CHL1  H23A 1762   4.263   4.333   8.887  2.2820  1.2719  2.8222
   24CHL1  H23B 1763   4.088   4.366   8.892  0.6344 -1.4053  1.0377
   24CHL1   C24 1764   4.201   4.534   8.814 -0.4059  0.1518  0.0946
   24CHL1  H24A 1765   4.106   4.586   8.788 -0.8247 -0.6855 -0.0601
   24CHL1  H24B 1766   4.274   4.602   8.862 -0.4658 -0.7198  1.4549
   24CHL1   C25 1767   4.259   4.494   8.676 -0.2973 -0.3512 -0.4409
   24CHL1   H25 1768   4.359   4.450   8.695 -0.5272 -0.3966  0.7537
   24CHL1   C26 1769   4.177   4.386   8.606  0.3645  0.6742 -0.0861
   24CHL1  H26A 1770   4.172   4.287   8.656  0.2382  0.1740 -1.0556
   24CHL1  H26B 1771   4.069   4.414   8.605 -0.1599 -0.8428  2.9766
   24CHL1  H26C 1772   4.219   4.371   8.504  0.0079  0.3979 -0.1990
   24CHL1   C27 1773   4.270   4.616   8.582  0.1675  0.4811 -0.3406
   24CHL1  H27A 1774   4.175   4.659   8.545 -0.0511 -1.9565 -2.9500
   24CHL1  H27B 1775   4.320   4.696   8.641  0.7280 -0.8960  1.1160
   24CHL1  H27C 1776   4.331   4.591   8.493  0.2907 -3.5976  0.7290
   25CHL1    C3 1777   0.102   0.126  10.434 -0.7392 -0.6340 -0.1003
   25CHL1    H3 1778   0.189   0.057  10.422  1.2353  1.9212 -1.5544
   25CHL1    O3 1779   0.100   0.159  10.573  0.1569 -0.3190  0.9238
   25CHL1   H3' 1780   0.049   0.240  10.578  1.7584  0.7511  0.5261
   25CHL1    C4 1781   0.135   0.244  10.345 -0.5401  0.8628  0.2658
   25CHL1   H4A 1782   0.082   0.339  10.369  0.0183  0.6436  2.6268
   25CHL1   H4B 1783   0.241   0.271  10.363 -0.6573  1.1089  0.6104
   25CHL1    C5 1784   0.109   0.207  10.199  0.3443  0.2151  0.1818
   25CHL1    C6 1785   0.201   0.234  10.104 -0.1137  0.4931  0.1309
   25CHL1    H6 1786   0.295   0.289  10.117  1.5120 -1.9705 -0.6612
   25CHL1    C7 1787   0.182   0.209   9.955 -0.0108  0.1074 -0.5454
   25CHL1   H7A 1788   0.224   0.291   9.893 -0.4438  1.1003  0.4172
   25CHL1   H7B 1789   0.248   0.124   9.927  0.7773  0.8178 -0.8817
   25CHL1    C8 1790   0.043   0.164   9.914 -0.0919  0.2051 -0.0157
   25CHL1    H8 1791  -0.016   0.258   9.902 -0.5433 -0.3174 -2.3165
   25CHL1   C14 1792   0.055   0.097   9.774  0.6177 -0.6640 -0.6220
   25CHL1   H14 1793   0.100  -0.004   9.785 -0.2874 -1.0558 -0.4274
   25CHL1   C15 1794   0.131   0.168   9.661 -0.9070  0.2448  0.0625
   25CHL1  H15A 1795   0.116   0.279   9.656  1.5387  0.5908 -1.0741
   25CHL1  H15B 1796   0.242   0.165   9.666 -0.4814  2.6013 -3.5063
   25CHL1   C16 1797   0.075   0.093   9.536 -0.3688 -0.2671  0.2900
   25CHL1  H16A 1798   0.060   0.174   9.460 -0.8768  0.5652  1.2489
   25CHL1  H16B 1799   0.147   0.025   9.486 -0.9004  0.2717 -1.2667
   25CHL1   C17 1800  -0.046   0.004   9.573 -0.3543 -0.2261  0.0561
   25CHL1   H17 1801  -0.012  -0.097   9.605  0.0653 -0.5232 -1.2709
   25CHL1   C13 1802  -0.081   0.062   9.715  1.1926 -0.2766  0.4735
   25CHL1   C18 1803  -0.166   0.188   9.699 -0.1421  0.0740  0.7130
   25CHL1  H18A 1804  -0.193   0.226   9.800 -0.0492 -0.5026  0.9547
   25CHL1  H18B 1805  -0.118   0.275   9.649 -0.8809 -0.3171 -0.7082
   25CHL1  H18C 1806  -0.256   0.160   9.641  1.2744 -1.0870 -1.0196
   25CHL1   C12 1807  -0.144  -0.037   9.815 -0.0471  0.6161  0.1959
   25CHL1  H12A 1808  -0.247  -0.054   9.776  0.4873 -1.0247 -0.6231
   25CHL1  H12B 1809  -0.095  -0.135   9.795 -0.3135  0.1975  1.5225
   25CHL1   C11 1810  -0.152   0.012   9.963  0.3902  0.9143  0.0282
   25CHL1  H11A 1811  -0.222   0.098   9.955  0.8904  1.3276  0.0606
   25CHL1  H11B 1812  -0.208  -0.066  10.018 -0.1418  1.2358 -0.0440
   25CHL1    C9 1813  -0.024   0.065  10.013  0.0603 -0.1836  0.1733
   25CHL1    H9 1814   0.048  -0.019  10.016  2.8492  1.8964 -2.1727
   25CHL1   C10 1815  -0.018   0.126  10.160 -0.1164  0.0281 -0.0452
   25CHL1   C19 1816  -0.134   0.226  10.173 -0.0801 -0.0745 -0.0962
   25CHL1  H19A 1817  -0.236   0.182  10.180  0.0559 -0.2699  0.7756
   25CHL1  H19B 1818  -0.122   0.286  10.266 -0.4219  0.1758 -0.2089
   25CHL1  H19C 1819  -0.127   0.297  10.087  1.3924 -0.8928 -0.6866
   25CHL1    C1 1820  -0.036   0.010  10.263 -0.8608 -0.7429  0.2497
   25CHL1   H1A 1821  -0.137  -0.031  10.241 -1.8332  0.6662  1.7649
   25CHL1   H1B 1822   0.043  -0.068  10.264  1.2279  1.2764  0.3021
   25CHL1    C2 1823  -0.030   0.067  10.404  0.3787  0.1286 -0.0557
   25CHL1   H2A 1824  -0.053  -0.015  10.474 -2.4926  1.9138  1.2573
   25CHL1   H2B 1825  -0.114   0.139  10.414  0.2734  0.2857 -1.7498
   25CHL1   C20 1826  -0.153  -0.013   9.471 -0.0440  0.1318  0.2355
   25CHL1   H20 1827  -0.201   0.084   9.443  2.1038  1.5734  1.2927
   25CHL1   C21 1828  -0.269  -0.102   9.519 -0.1611 -0.5645 -0.5582
   25CHL1  H21A 1829  -0.229  -0.191   9.571  0.1300  0.5086  1.0963
   25CHL1  H21B 1830  -0.336  -0.123   9.432  1.0466 -0.5078 -1.5421
   25CHL1  H21C 1831  -0.327  -0.053   9.600 -0.6356 -3.5378  1.0445
   25CHL1   C22 1832  -0.093  -0.076   9.339 -0.1269 -0.1129  0.4322
   25CHL1  H22A 1833  -0.017  -0.007   9.296  0.0588 -0.8974 -0.5636
   25CHL1  H22B 1834  -0.049  -0.176   9.360  0.0153 -0.0994  0.2088
   25CHL1   C23 1835  -0.193  -0.100   9.217  0.1635  0.0153  1.2827
   25CHL1  H23A 1836  -0.269  -0.181   9.223 -0.0214  0.0568 -0.0931
   25CHL1  H23B 1837  -0.256  -0.009   9.207 -1.0169 -0.9233 -0.3450
   25CHL1   C24 1838  -0.127  -0.137   9.078 -0.2580  0.6180 -0.6354
   25CHL1  H24A 1839  -0.050  -0.060   9.057  2.7503 -2.0055  0.0570
   25CHL1  H24B 1840  -0.073  -0.232   9.095 -0.9195  0.4008  0.3672
   25CHL1   C25 1841  -0.230  -0.159   8.960  0.1581  0.6932  0.1668
   25CHL1   H25 1842  -0.312  -0.223   8.998 -0.3771  0.9558 -0.5162
   25CHL1   C26 1843  -0.301  -0.024   8.923 -1.0241 -0.1686 -0.8579
   25CHL1  H26A 1844  -0.229   0.048   8.880  0.9223 -1.3362  0.3250
   25CHL1  H26B 1845  -0.388  -0.031   8.853 -0.3639  0.2398 -1.7349
   25CHL1  H26C 1846  -0.346   0.023   9.013  0.1710 -0.2828 -0.1945
   25CHL1   C27 1847  -0.165  -0.214   8.832 -0.2657  0.1146 -0.3725
   25CHL1  H27A 1848  -0.162  -0.325   8.834  0.5827  0.1182 -0.7974
   25CHL1  H27B 1849  -0.236  -0.185   8.752  0.1799  0.5307 -0.6254
   25CHL1  H27C 1850  -0.073  -0.153   8.819 -2.3223  3.6903  0.5486
   26CHL1    C3 1851   0.651   2.156  10.260 -0.2520 -0.2475 -0.3216
   26CHL1    H3 1852   0.574   2.097  10.205 -1.5293 -1.6094  2.6952
   26CHL1    O3 1853   0.628   2.158  10.399  1.4073 -0.1646 -0.1144
   26CHL1   H3' 1854   0.575   2.235  10.422 -1.6219 -2.6014  2.1699
   26CHL1    C4 1855   0.782   2.069  10.235 -0.4157 -0.4499 -0.0143
   26CHL1   H4A 1856   0.862   2.124  10.289 -0.5020 -0.1369 -0.2064
   26CHL1   H4B 1857   0.762   1.968  10.278  0.1930 -0.9152 -0.7976
   26CHL1    C5 1858   0.822   2.072  10.086  0.5815 -0.8042 -0.5956
   26CHL1    C6 1859   0.850   1.959  10.020  0.5740 -0.4766  0.1545
   26CHL1    H6 1860   0.844   1.865  10.076  0.1028 -1.3563 -1.3225
   26CHL1    C7 1861   0.884   1.949   9.872 -0.4300 -0.3796 -0.9444
   26CHL1   H7A 1862   0.976   1.891   9.851  0.5000  0.1407  1.3877
   26CHL1   H7B 1863   0.799   1.905   9.816 -0.1288 -0.1020 -1.6262
   26CHL1    C8 1864   0.911   2.088   9.807  0.0234  0.5667 -0.1208
   26CHL1    H8 1865   1.012   2.112   9.846  0.5550  0.7592 -1.5706
   26CHL1   C14 1866   0.912   2.070   9.658 -0.2507  0.0048  0.6523
   26CHL1   H14 1867   0.807   2.047   9.633 -0.2175  1.7247 -1.3467
   26CHL1   C15 1868   1.008   1.971   9.585  0.2210  0.1954 -0.8636
   26CHL1  H15A 1869   1.106   1.990   9.632 -0.9069 -1.5187  2.5260
   26CHL1  H15B 1870   0.995   1.860   9.585 -0.3617  0.2549 -0.2905
   26CHL1   C16 1871   1.013   2.018   9.439 -0.4301  0.3016  0.7115
   26CHL1  H16A 1872   1.117   2.015   9.399  0.2102 -0.0775  2.3277
   26CHL1  H16B 1873   0.955   1.958   9.366 -0.5812  0.4173  0.7364
   26CHL1   C17 1874   0.941   2.155   9.433 -0.7130 -0.0542 -0.0581
   26CHL1   H17 1875   0.833   2.146   9.410 -0.7417 -1.0893  0.4237
   26CHL1   C13 1876   0.943   2.204   9.581 -0.2838 -0.3188  0.1476
   26CHL1   C18 1877   1.079   2.270   9.625 -0.1879 -0.0953 -0.2820
   26CHL1  H18A 1878   1.072   2.293   9.734 -1.9320  0.8570 -0.5573
   26CHL1  H18B 1879   1.160   2.196   9.611 -2.5609 -3.1381  0.8875
   26CHL1  H18C 1880   1.084   2.366   9.569 -0.3610  0.2946  0.3585
   26CHL1   C12 1881   0.821   2.301   9.625  0.2585 -0.7509 -0.1120
   26CHL1  H12A 1882   0.808   2.393   9.565 -0.2710 -1.8246 -1.6898
   26CHL1  H12B 1883   0.726   2.249   9.603  1.1885 -1.6311 -2.3542
   26CHL1   C11 1884   0.819   2.332   9.776  0.2710 -0.3352 -0.5947
   26CHL1  H11A 1885   0.901   2.403   9.804  0.0460  0.7112 -2.4127
   26CHL1  H11B 1886   0.724   2.386   9.797 -0.1856 -0.8792 -1.2365
   26CHL1    C9 1887   0.811   2.199   9.853  0.3377 -0.5747 -0.2081
   26CHL1    H9 1888   0.716   2.150   9.823  0.7803 -1.5363 -0.0687
   26CHL1   C10 1889   0.822   2.211  10.010  0.0894 -0.4313  0.0254
   26CHL1   C19 1890   0.952   2.285  10.049 -0.1525  0.3723 -0.5195
   26CHL1  H19A 1891   1.043   2.250   9.994  2.5503  1.3718  2.9548
   26CHL1  H19B 1892   0.943   2.393  10.024  0.8660  0.0075 -2.7668
   26CHL1  H19C 1893   0.964   2.276  10.159 -2.7000  1.0811 -0.1428
   26CHL1    C1 1894   0.696   2.302  10.061  0.4072 -0.3577  0.1006
   26CHL1   H1A 1895   0.713   2.409  10.036 -1.0000  0.1336  1.1321
   26CHL1   H1B 1896   0.609   2.271  10.000  1.6516 -1.4239 -1.1969
   26CHL1    C2 1897   0.661   2.302  10.211  1.6492 -0.2722  0.1016
   26CHL1   H2A 1898   0.564   2.353  10.223  2.3625  1.2551 -0.3654
   26CHL1   H2B 1899   0.740   2.356  10.268  1.2068  0.6192 -0.1231
   26CHL1   C20 1900   1.004   2.252   9.338  0.5546  0.5531  0.7656
   26CHL1   H20 1901   1.096   2.303   9.372  0.8442  2.1835 -2.1314
   26CHL1   C21 1902   0.904   2.369   9.323 -0.2435 -0.0999  0.2899
   26CHL1  H21A 1903   0.931   2.444   9.400  0.4586 -0.5655  0.5005
   26CHL1  H21B 1904   0.797   2.339   9.333  0.3991 -1.7627  3.4555
   26CHL1  H21C 1905   0.914   2.423   9.227 -3.1633  0.2870  0.0940
   26CHL1   C22 1906   1.015   2.184   9.202  0.3836 -0.6459  0.4063
   26CHL1  H22A 1907   1.055   2.081   9.205  0.5409 -0.6206 -0.5000
   26CHL1  H22B 1908   0.916   2.184   9.149  0.3648  0.9567  0.3756
   26CHL1   C23 1909   1.108   2.258   9.099 -0.4491 -0.3204  0.6021
   26CHL1  H23A 1910   1.096   2.368   9.109  2.2272 -0.0763  2.0348
   26CHL1  H23B 1911   1.211   2.237   9.135 -0.2571  0.4669  0.5389
   26CHL1   C24 1912   1.078   2.223   8.955 -0.1330 -0.3880 -0.2747
   26CHL1  H24A 1913   1.056   2.116   8.939 -4.2549  0.6086 -2.4987
   26CHL1  H24B 1914   0.989   2.282   8.926  0.0420  0.1426  0.2369
   26CHL1   C25 1915   1.186   2.256   8.859 -0.5721 -0.9011  0.2097
   26CHL1   H25 1916   1.216   2.362   8.871  0.7659 -1.1183 -0.9111
   26CHL1   C26 1917   1.323   2.184   8.860  0.0527 -0.1295 -0.2705
   26CHL1  H26A 1918   1.396   2.239   8.797 -0.4971 -0.5723 -1.3158
   26CHL1  H26B 1919   1.373   2.169   8.958  0.9871  1.1877 -0.5179
   26CHL1  H26C 1920   1.308   2.084   8.814  2.0211 -0.5895 -0.0270
   26CHL1   C27 1921   1.123   2.255   8.717 -0.7513  0.0310 -0.1270
   26CHL1  H27A 1922   1.186   2.280   8.629 -1.8469  2.6865 -0.2481
   26CHL1  H27B 1923   1.103   2.148   8.692  1.4830 -0.3327 -0.5191
   26CHL1  H27C 1924   1.037   2.325   8.717 -0.1490  0.8025 -1.3124
   27CHL1    C3 1925   0.428   6.698  10.279 -0.2356  0.4800  0.0786
   27CHL1    H3 1926   0.350   6.769  10.244  0.0223 -0.2483 -2.1957
   27CHL1    O3 1927   0.463   6.722  10.415  0.6418  0.4852  0.0146
   27CHL1   H3' 1928   0.522   6.647  10.426  0.8857  1.0353  3.2074
   27CHL1    C4 1929   0.369   6.556  10.258  0.0214 -0.2314 -0.3932
   27CHL1   H4A 1930   0.432   6.470  10.291 -0.3978  0.4968  2.6566
   27CHL1   H4B 1931   0.284   6.557  10.330 -0.1176  3.7732 -0.4080
   27CHL1    C5 1932   0.336   6.537  10.113 -0.8123  1.0021  0.1348
   27CHL1    C6 1933   0.217   6.511  10.076  0.1155 -0.2971  0.2438
   27CHL1    H6 1934   0.140   6.496  10.153  0.1837 -3.1105 -0.1475
   27CHL1    C7 1935   0.175   6.483   9.929  0.1323 -0.2876 -0.3367
   27CHL1   H7A 1936   0.120   6.386   9.923  0.6382 -0.4933 -2.3482
   27CHL1   H7B 1937   0.111   6.564   9.887  0.0765 -1.5565 -2.8971
   27CHL1    C8 1938   0.298   6.464   9.831 -1.0511  0.0594 -0.3121
   27CHL1    H8 1939   0.340   6.364   9.854 -0.1343  0.6324  0.5939
   27CHL1   C14 1940   0.261   6.482   9.685  0.5407 -0.5400  0.3138
   27CHL1   H14 1941   0.219   6.583   9.666  1.8493 -0.1803 -0.8892
   27CHL1   C15 1942   0.150   6.391   9.638  0.7417  0.0909 -0.5669
   27CHL1  H15A 1943   0.147   6.286   9.676 -0.9616  0.6436  0.9977
   27CHL1  H15B 1944   0.060   6.450   9.665  1.1274  0.0895  0.7811
   27CHL1   C16 1945   0.169   6.396   9.488  0.1305  0.5263 -0.4032
   27CHL1  H16A 1946   0.169   6.291   9.453 -1.5596 -0.4302  2.1651
   27CHL1  H16B 1947   0.073   6.427   9.441 -0.9763 -0.3171  1.2212
   27CHL1   C17 1948   0.286   6.487   9.455 -0.8856  0.3872  0.6424
   27CHL1   H17 1949   0.237   6.587   9.454  0.5678  1.1362  0.7722
   27CHL1   C13 1950   0.372   6.477   9.581 -0.0869  0.5361  0.6612
   27CHL1   C18 1951   0.445   6.339   9.581 -0.3755  0.1643 -0.9858
   27CHL1  H18A 1952   0.390   6.248   9.548  1.0896 -1.2879  0.3278
   27CHL1  H18B 1953   0.528   6.348   9.507  0.3055 -1.8788 -0.5484
   27CHL1  H18C 1954   0.482   6.306   9.681  0.4890  0.3969 -1.2173
   27CHL1   C12 1955   0.465   6.591   9.623 -0.1865 -0.3173  0.3960
   27CHL1  H12A 1956   0.551   6.594   9.553 -1.0796 -4.3488 -1.1880
   27CHL1  H12B 1957   0.413   6.686   9.601 -0.9863 -1.1113 -1.3956
   27CHL1   C11 1958   0.510   6.581   9.767  0.3230 -0.2644  0.5264
   27CHL1  H11A 1959   0.583   6.497   9.774 -0.6481 -1.0811  1.1200
   27CHL1  H11B 1960   0.571   6.672   9.788 -0.0584  0.5151 -1.4789
   27CHL1    C9 1961   0.398   6.570   9.872 -0.0949 -0.0396  0.4840
   27CHL1    H9 1962   0.341   6.665   9.866  1.3767  0.7869 -1.6977
   27CHL1   C10 1963   0.449   6.562  10.018  0.3608 -0.3561  0.1180
   27CHL1   C19 1964   0.538   6.433  10.020 -0.1055 -0.1319  0.2062
   27CHL1  H19A 1965   0.635   6.453   9.969  0.5415  0.2317  1.5493
   27CHL1  H19B 1966   0.553   6.396  10.123  0.5180 -0.0440  0.1556
   27CHL1  H19C 1967   0.502   6.345   9.962  0.6350  0.2572 -0.8961
   27CHL1    C1 1968   0.530   6.688  10.042 -0.0828 -0.4092 -0.8812
   27CHL1   H1A 1969   0.632   6.695  10.000  0.7512  1.6813  1.2744
   27CHL1   H1B 1970   0.467   6.767   9.996 -0.5244 -0.8602 -1.0642
   27CHL1    C2 1971   0.553   6.714  10.194 -0.1915  0.0803  0.4519
   27CHL1   H2A 1972   0.573   6.819  10.223 -2.1171  0.8613 -0.8280
   27CHL1   H2B 1973   0.634   6.643  10.222  1.4774  1.3749 -0.9163
   27CHL1   C20 1974   0.344   6.474   9.313 -0.8459 -0.4867 -0.3142
   27CHL1   H20 1975   0.409   6.384   9.303  2.1683  1.6341 -1.0194
   27CHL1   C21 1976   0.442   6.600   9.292  0.7613 -0.3440  0.2355
   27CHL1  H21A 1977   0.544   6.586   9.335  0.7323 -0.2078  0.3531
   27CHL1  H21B 1978   0.403   6.692   9.341  1.1181  1.9686 -3.4741
   27CHL1  H21C 1979   0.449   6.622   9.184  3.8821 -0.1998  0.3523
   27CHL1   C22 1980   0.239   6.473   9.206 -0.1280  0.0666  0.2273
   27CHL1  H22A 1981   0.172   6.389   9.235  0.6948 -0.5863  0.2971
   27CHL1  H22B 1982   0.179   6.566   9.198 -0.3109 -0.1292 -0.8284
   27CHL1   C23 1983   0.305   6.431   9.067  0.1148  0.1260 -0.3716
   27CHL1  H23A 1984   0.380   6.509   9.044  0.2035 -0.1602 -1.0757
   27CHL1  H23B 1985   0.363   6.339   9.085  0.5276  0.0311 -1.9816
   27CHL1   C24 1986   0.206   6.402   8.951 -0.6785  0.4675 -0.2524
   27CHL1  H24A 1987   0.140   6.317   8.978  0.4840 -1.4756 -3.0994
   27CHL1  H24B 1988   0.128   6.482   8.948 -0.1564  0.9480 -2.5900
   27CHL1   C25 1989   0.269   6.396   8.814 -0.1835 -0.0590 -0.3670
   27CHL1   H25 1990   0.332   6.488   8.806 -1.5060  0.8447 -0.6696
   27CHL1   C26 1991   0.366   6.277   8.793  0.9326  0.0577  0.1717
   27CHL1  H26A 1992   0.422   6.295   8.699 -0.6142  0.7637 -0.6632
   27CHL1  H26B 1993   0.445   6.254   8.867  1.3163 -2.7459 -0.9734
   27CHL1  H26C 1994   0.296   6.190   8.787 -0.8834  1.4627 -0.0725
   27CHL1   C27 1995   0.171   6.392   8.696  0.1004 -0.2313  0.0048
   27CHL1  H27A 1996   0.112   6.485   8.688  0.5314 -0.0338 -1.1298
   27CHL1  H27B 1997   0.220   6.380   8.597  0.8912  1.8128  0.1059
   27CHL1  H27C 1998   0.099   6.308   8.712 -1.4087  0.7750 -1.2220
   28CHL1    C3 1999   5.525   4.307  10.128  0.0077  0.4751 -0.0593
   28CHL1    H3 2000   5.434   4.245  10.117  1.3215 -1.5539 -0.0309
   28CHL1    O3 2001   5.569   4.285  10.258 -0.0447  0.0735  0.5304
   28CHL1   H3' 2002   5.649   4.337  10.272  1.4128 -2.0117  0.5155
   28CHL1    C4 2003   5.630   4.253  10.029 -0.0780 -0.2838 -0.1375
   28CHL1   H4A 2004   5.727   4.306  10.046 -0.2285 -0.1854  0.4479
   28CHL1   H4B 2005   5.647   4.145  10.046 -0.7755 -0.3134  0.4270
   28CHL1    C5 2006   5.589   4.293   9.886 -0.3788 -0.9100  0.4882
   28CHL1    C6 2007   5.554   4.196   9.794 -0.0944  0.4625  0.2561
   28CHL1    H6 2008   5.584   4.092   9.812  2.1066  1.2462  1.4280
   28CHL1    C7 2009   5.519   4.220   9.651  0.0461 -0.2491  0.4923
   28CHL1   H7A 2010   5.571   4.146   9.587 -2.6938 -0.9594 -1.0570
   28CHL1   H7B 2011   5.413   4.220   9.619  0.6459  0.6336 -1.6243
   28CHL1    C8 2012   5.560   4.365   9.610  0.2523 -0.3793 -0.7875
   28CHL1    H8 2013   5.671   4.369   9.611  0.2416  1.9284  1.2630
   28CHL1   C14 2014   5.506   4.405   9.471 -0.2438 -0.4020 -0.6488
   28CHL1   H14 2015   5.395   4.404   9.473 -0.2826  0.4688  1.6533
   28CHL1   C15 2016   5.549   4.307   9.354  0.6739 -0.3094 -0.7385
   28CHL1  H15A 2017   5.653   4.274   9.370  0.9548  0.8614  0.0050
   28CHL1  H15B 2018   5.482   4.219   9.353 -2.1106  1.6529 -1.2372
   28CHL1   C16 2019   5.528   4.393   9.228  0.2133 -0.5795  0.1520
   28CHL1  H16A 2020   5.619   4.391   9.164  0.2678 -0.3258  0.2189
   28CHL1  H16B 2021   5.444   4.359   9.165 -2.4356 -2.0525  4.0901
   28CHL1   C17 2022   5.485   4.537   9.279 -0.1894 -1.2965  0.2789
   28CHL1   H17 2023   5.375   4.544   9.289 -0.1758 -0.9196  0.1479
   28CHL1   C13 2024   5.540   4.547   9.424 -0.3416 -0.7543 -0.5824
   28CHL1   C18 2025   5.697   4.566   9.413  0.6991  0.1834  0.0179
   28CHL1  H18A 2026   5.735   4.541   9.515 -1.3301 -0.5295  0.6418
   28CHL1  H18B 2027   5.739   4.492   9.341 -2.0308 -2.2236  0.7168
   28CHL1  H18C 2028   5.716   4.672   9.386 -3.2561  1.2246  0.6564
   28CHL1   C12 2029   5.472   4.648   9.520 -0.0353 -0.0652 -0.8428
   28CHL1  H12A 2030   5.502   4.753   9.499 -1.5112  0.4129 -0.7012
   28CHL1  H12B 2031   5.361   4.655   9.523 -0.0475 -0.6215  0.4756
   28CHL1   C11 2032   5.519   4.613   9.661  0.0488 -0.7487  0.3131
   28CHL1  H11A 2033   5.626   4.644   9.660 -0.0505 -0.4110 -0.4127
   28CHL1  H11B 2034   5.480   4.690   9.730  3.0572  1.4404 -0.2364
   28CHL1    C9 2035   5.508   4.468   9.714  0.2631  0.2067  0.5878
   28CHL1    H9 2036   5.401   4.440   9.721  0.2313 -0.1032 -0.8922
   28CHL1   C10 2037   5.572   4.442   9.856  0.6661  0.0146 -1.2909
   28CHL1   C19 2038   5.708   4.527   9.861  0.5189  0.4661  0.3043
   28CHL1  H19A 2039   5.765   4.501   9.954  2.1617  2.9839  0.1008
   28CHL1  H19B 2040   5.783   4.490   9.788  0.9187  0.2741  0.8053
   28CHL1  H19C 2041   5.700   4.637   9.858  0.3911  0.4631  0.5039
   28CHL1    C1 2042   5.476   4.497   9.969  0.3076  0.4814  0.7369
   28CHL1   H1A 2043   5.493   4.606   9.955  2.4612  0.1182  0.1964
   28CHL1   H1B 2044   5.374   4.463   9.941  0.9715 -0.4840 -0.6106
   28CHL1    C2 2045   5.506   4.463  10.108  0.2944  0.5320 -0.7945
   28CHL1   H2A 2046   5.429   4.500  10.179  1.6841  1.5250  0.2254
   28CHL1   H2B 2047   5.603   4.509  10.134  0.8098 -0.5962 -0.6575
   28CHL1   C20 2048   5.526   4.645   9.179 -0.1035 -0.3471  0.2828
   28CHL1   H20 2049   5.634   4.651   9.156 -0.1632 -1.2352 -0.3066
   28CHL1   C21 2050   5.484   4.782   9.238 -0.8770  0.2681 -0.2700
   28CHL1  H21A 2051   5.559   4.825   9.308  0.2932 -1.0522 -0.6645
   28CHL1  H21B 2052   5.381   4.782   9.279 -2.2672  0.2984 -3.4658
   28CHL1  H21C 2053   5.491   4.860   9.159 -0.4286 -0.5393 -1.0409
   28CHL1   C22 2054   5.446   4.624   9.049 -0.8432  0.5207  0.0307
   28CHL1  H22A 2055   5.475   4.706   8.980  2.3942 -1.1859 -0.8102
   28CHL1  H22B 2056   5.487   4.533   9.000  1.1665 -0.7920  3.7847
   28CHL1   C23 2057   5.302   4.595   9.055  0.6627 -0.2487  0.2877
   28CHL1  H23A 2058   5.278   4.496   9.099  2.4252 -1.1365 -0.6184
   28CHL1  H23B 2059   5.257   4.670   9.122 -0.7230 -1.1234  0.3947
   28CHL1   C24 2060   5.248   4.601   8.918  0.5921  0.3297  0.7575
   28CHL1  H24A 2061   5.255   4.697   8.862  2.2956 -0.5227 -0.5911
   28CHL1  H24B 2062   5.299   4.537   8.842 -2.4492  1.4963 -2.5925
   28CHL1   C25 2063   5.096   4.555   8.897 -2.0770  0.3963  0.8492
   28CHL1   H25 2064   5.089   4.455   8.945  0.0974  0.6101  1.7412
   28CHL1   C26 2065   5.002   4.648   8.972  0.9232 -0.1322 -0.4920
   28CHL1  H26A 2066   4.900   4.644   8.927  0.6721 -1.8446  0.1461
   28CHL1  H26B 2067   4.999   4.622   9.080 -0.4421  3.7473  0.5397
   28CHL1  H26C 2068   5.037   4.753   8.974 -0.2270  0.2596  1.9662
   28CHL1   C27 2069   5.050   4.548   8.756  0.0461 -0.2530  0.2715
   28CHL1  H27A 2070   5.098   4.459   8.708 -0.6019 -0.4037 -0.1188
   28CHL1  H27B 2071   4.945   4.514   8.748  0.9968 -3.6201  0.2839
   28CHL1  H27C 2072   5.061   4.643   8.700  0.5515  0.9014  2.2219
   29CHL1    C3 2073   1.208   3.603   6.688 -0.0820  0.3002  0.0210
   29CHL1    H3 2074   1.305   3.653   6.708 -0.4048  1.0084 -0.1534
   29CHL1    O3 2075   1.174   3.628   6.553  0.1352 -0.3545  0.7690
   29CHL1   H3' 2076   1.082   3.603   6.550  0.2425 -0.7531  0.8089
   29CHL1    C4 2077   1.235   3.451   6.709 -0.5496 -0.5371 -0.0553
   29CHL1   H4A 2078   1.153   3.394   6.660 -0.9794 -0.1214  0.1693
   29CHL1   H4B 2079   1.325   3.422   6.652 -0.5563 -1.6987  0.4961
   29CHL1    C5 2080   1.249   3.415   6.859 -0.2588  0.1760 -0.3380
   29CHL1    C6 2081   1.355   3.344   6.905  0.1264  0.0672  0.4714
   29CHL1    H6 2082   1.418   3.291   6.831 -1.1071 -0.7567 -0.0335
   29CHL1    C7 2083   1.379   3.308   7.050 -1.0093  0.5684 -0.1560
   29CHL1   H7A 2084   1.414   3.203   7.053 -0.3944  0.7604 -0.4808
   29CHL1   H7B 2085   1.454   3.378   7.091 -1.6757  0.8400  0.6405
   29CHL1    C8 2086   1.250   3.332   7.137  0.2613  0.0460  0.4266
   29CHL1    H8 2087   1.183   3.247   7.110  3.5314 -2.8908  0.8240
   29CHL1   C14 2088   1.280   3.328   7.291 -0.3618 -0.3544 -0.1723
   29CHL1   H14 2089   1.341   3.420   7.307  0.0630 -0.4602 -1.0813
   29CHL1   C15 2090   1.362   3.211   7.345 -0.0466  0.4434  0.4903
   29CHL1  H15A 2091   1.336   3.121   7.286 -2.6726  1.9616 -0.8676
   29CHL1  H15B 2092   1.465   3.247   7.323 -0.2968  0.2239 -1.1992
   29CHL1   C16 2093   1.328   3.201   7.495  0.0710 -0.6398 -0.4906
   29CHL1  H16A 2094   1.269   3.108   7.512  0.6142 -0.9235 -0.0943
   29CHL1  H16B 2095   1.415   3.215   7.563  0.7833  1.3565 -1.7302
   29CHL1   C17 2096   1.226   3.316   7.529 -0.1519 -1.0868  0.6882
   29CHL1   H17 2097   1.284   3.405   7.561 -2.1065  0.5012  0.0105
   29CHL1   C13 2098   1.164   3.348   7.387 -0.7847 -0.2238  0.3148
   29CHL1   C18 2099   1.061   3.234   7.364 -0.6049 -0.2891 -0.1059
   29CHL1  H18A 2100   1.118   3.140   7.353  2.1090  1.3537 -1.0624
   29CHL1  H18B 2101   0.971   3.238   7.429 -1.7839  5.0166 -1.5369
   29CHL1  H18C 2102   1.018   3.246   7.262  0.9161 -1.5732 -0.9290
   29CHL1   C12 2103   1.105   3.494   7.359 -0.7455 -0.1273  0.0543
   29CHL1  H12A 2104   1.017   3.522   7.422 -0.1982 -1.5116  1.4806
   29CHL1  H12B 2105   1.181   3.570   7.388  1.4180 -1.7700 -1.0529
   29CHL1   C11 2106   1.067   3.504   7.209 -0.4858 -0.6323  0.0428
   29CHL1  H11A 2107   0.975   3.443   7.199 -0.5269 -0.5390 -0.1498
   29CHL1  H11B 2108   1.035   3.609   7.195  0.0769 -0.1178  2.2737
   29CHL1    C9 2109   1.181   3.468   7.108  0.4313 -0.1268 -0.3107
   29CHL1    H9 2110   1.264   3.542   7.111 -1.0948  1.6477 -0.6665
   29CHL1   C10 2111   1.138   3.470   6.956 -0.4678 -1.1779 -0.1107
   29CHL1   C19 2112   1.013   3.394   6.932  0.9262 -0.3463  0.2088
   29CHL1  H19A 2113   1.023   3.291   6.972 -1.8306 -1.5361 -1.8100
   29CHL1  H19B 2114   0.927   3.442   6.983  0.0327  1.9483 -3.1342
   29CHL1  H19C 2115   0.968   3.378   6.831  1.9118 -1.3663 -0.0873
   29CHL1    C1 2116   1.115   3.624   6.923 -0.0153  0.6651 -0.1646
   29CHL1   H1A 2117   1.028   3.659   6.982 -0.2064  1.7321 -1.0376
   29CHL1   H1B 2118   1.201   3.691   6.945  0.2470  0.6990 -1.2195
   29CHL1    C2 2119   1.096   3.652   6.775 -0.1106 -0.5573  0.2955
   29CHL1   H2A 2120   1.077   3.760   6.757 -2.0941 -0.9781 -0.4180
   29CHL1   H2B 2121   1.001   3.603   6.746  0.0852  0.3723 -2.1351
   29CHL1   C20 2122   1.143   3.288   7.646 -0.2501  0.6780  0.1502
   29CHL1   H20 2123   1.080   3.198   7.627  0.6546  0.3893 -1.7133
   29CHL1   C21 2124   1.047   3.407   7.671  0.3903 -0.4468 -0.1083
   29CHL1  H21A 2125   1.105   3.501   7.687 -1.6280  0.5512  1.8651
   29CHL1  H21B 2126   0.996   3.371   7.763  1.0080 -1.4200 -0.1286
   29CHL1  H21C 2127   0.966   3.427   7.598 -0.2639  2.8752  1.3217
   29CHL1   C22 2128   1.239   3.279   7.766 -0.4990  0.4745  0.6523
   29CHL1  H22A 2129   1.307   3.192   7.756 -1.1554  0.0212  0.0933
   29CHL1  H22B 2130   1.292   3.376   7.776 -1.0725  0.8684 -0.0832
   29CHL1   C23 2131   1.171   3.264   7.903 -0.3615 -0.0374 -0.3573
   29CHL1  H23A 2132   1.140   3.366   7.933 -0.9120  0.3613 -2.1726
   29CHL1  H23B 2133   1.092   3.187   7.888  0.0162 -0.3940 -0.5520
   29CHL1   C24 2134   1.265   3.211   8.009 -0.0181  0.6303 -0.6159
   29CHL1  H24A 2135   1.306   3.108   7.998  0.2983  0.6372  0.4308
   29CHL1  H24B 2136   1.354   3.277   8.014 -1.9105  3.4227 -1.3599
   29CHL1   C25 2137   1.199   3.223   8.148  0.4043 -0.2576  0.4163
   29CHL1   H25 2138   1.179   3.332   8.151  0.9923 -0.1238 -0.1807
   29CHL1   C26 2139   1.075   3.139   8.171  0.4506  0.1340 -0.3832
   29CHL1  H26A 2140   1.105   3.034   8.194  0.0322  0.3796  1.4577
   29CHL1  H26B 2141   1.018   3.194   8.249 -1.1852  0.2674 -1.6095
   29CHL1  H26C 2142   1.011   3.133   8.080 -3.1455  1.4403  1.8704
   29CHL1   C27 2143   1.292   3.198   8.263  0.3266  0.3304 -0.7438
   29CHL1  H27A 2144   1.396   3.228   8.239  0.7178 -0.8868 -0.6265
   29CHL1  H27B 2145   1.266   3.251   8.358  0.6124  2.2836 -1.7043
   29CHL1  H27C 2146   1.293   3.090   8.290 -1.1308  0.3312 -0.6208
   30CHL1    C3 2147   5.358   1.219   7.411  0.7127 -0.2985 -0.0004
   30CHL1    H3 2148   5.273   1.151   7.435  0.1141  0.9008  1.4739
   30CHL1    O3 2149   5.367   1.224   7.275  0.1281  0.3003  0.3608
   30CHL1   H3' 2150   5.445   1.278   7.260  0.6661 -1.2393 -3.3915
   30CHL1    C4 2151   5.348   1.366   7.469 -0.2286  0.6055  0.0951
   30CHL1   H4A 2152   5.432   1.429   7.433  0.0815  0.4173  0.4858
   30CHL1   H4B 2153   5.254   1.410   7.429  0.0941  2.2189  1.0385
   30CHL1    C5 2154   5.345   1.353   7.624 -0.6181  0.8779 -0.4301
   30CHL1    C6 2155   5.229   1.379   7.685 -0.3634 -0.2347 -0.1637
   30CHL1    H6 2156   5.148   1.417   7.621 -0.3641 -0.6047 -0.3884
   30CHL1    C7 2157   5.206   1.388   7.835 -0.7297 -0.6315 -0.4686
   30CHL1   H7A 2158   5.169   1.488   7.865  0.2765 -0.7032  1.1032
   30CHL1   H7B 2159   5.145   1.297   7.853  1.1007 -2.1871 -1.6793
   30CHL1    C8 2160   5.343   1.364   7.915  0.3534  0.4193 -0.1095
   30CHL1    H8 2161   5.395   1.462   7.910 -0.4729  0.8499 -0.4963
   30CHL1   C14 2162   5.319   1.314   8.063 -0.5558 -0.6072  0.5000
   30CHL1   H14 2163   5.267   1.217   8.054  0.2378 -0.9594 -0.5213
   30CHL1   C15 2164   5.234   1.403   8.146 -0.6001 -0.3614 -0.0799
   30CHL1  H15A 2165   5.266   1.508   8.126  0.3107 -0.5237  0.4913
   30CHL1  H15B 2166   5.128   1.384   8.118 -0.7089 -0.4905  0.4048
   30CHL1   C16 2167   5.272   1.371   8.287 -0.1665  0.0738  0.5068
   30CHL1  H16A 2168   5.309   1.464   8.334 -1.0944  0.6433  0.1372
   30CHL1  H16B 2169   5.189   1.325   8.345  0.7522 -0.5977  1.3139
   30CHL1   C17 2170   5.383   1.269   8.280  0.7145 -0.4358  0.3102
   30CHL1   H17 2171   5.340   1.167   8.270  1.8144 -0.8241 -0.6941
   30CHL1   C13 2172   5.451   1.297   8.146  0.5565  0.5620 -0.2625
   30CHL1   C18 2173   5.536   1.432   8.160  0.5063  0.6830 -0.4528
   30CHL1  H18A 2174   5.489   1.507   8.228 -3.6954 -1.7462 -0.3590
   30CHL1  H18B 2175   5.639   1.402   8.191  0.5743 -1.5139 -2.5139
   30CHL1  H18C 2176   5.554   1.475   8.059  0.3006  0.9494 -0.3766
   30CHL1   C12 2177   5.543   1.187   8.078 -0.7890 -0.1020 -0.3935
   30CHL1  H12A 2178   5.631   1.177   8.145 -0.8807  1.8688  0.0824
   30CHL1  H12B 2179   5.492   1.089   8.090  1.2384 -0.9521  1.9584
   30CHL1   C11 2180   5.559   1.223   7.931  0.0383 -0.1196  0.7905
   30CHL1  H11A 2181   5.626   1.310   7.915 -0.2890 -0.3229 -2.4363
   30CHL1  H11B 2182   5.604   1.142   7.870 -1.3517 -0.1949 -0.1885
   30CHL1    C9 2183   5.427   1.257   7.849 -0.0083 -0.2700  0.4215
   30CHL1    H9 2184   5.367   1.163   7.849  0.5325 -0.6162  0.4301
   30CHL1   C10 2185   5.462   1.283   7.695  1.1672  0.4650 -0.3267
   30CHL1   C19 2186   5.587   1.367   7.686  0.0027  0.6727 -0.9683
   30CHL1  H19A 2187   5.674   1.306   7.717  1.1781  2.5745 -0.3030
   30CHL1  H19B 2188   5.612   1.410   7.587 -0.0163  0.5294 -1.0345
   30CHL1  H19C 2189   5.586   1.458   7.751  0.8328  0.2453 -0.3443
   30CHL1    C1 2190   5.483   1.150   7.623  0.4233 -0.4995  0.0783
   30CHL1   H1A 2191   5.563   1.089   7.670 -2.2292 -3.6700  0.9317
   30CHL1   H1B 2192   5.395   1.085   7.645 -1.2714  1.7763  0.3605
   30CHL1    C2 2193   5.484   1.158   7.466  0.1475  0.5473 -1.1187
   30CHL1   H2A 2194   5.506   1.061   7.416  1.4032  0.5233 -0.5520
   30CHL1   H2B 2195   5.575   1.220   7.448  0.8049  1.4351  3.8228
   30CHL1   C20 2196   5.470   1.265   8.412 -0.3091 -0.3176  0.6878
   30CHL1   H20 2197   5.507   1.366   8.439  1.4164 -0.5993 -0.4301
   30CHL1   C21 2198   5.594   1.174   8.390  0.4989 -0.3025 -0.9340
   30CHL1  H21A 2199   5.665   1.219   8.317  1.8700 -0.4525  0.2768
   30CHL1  H21B 2200   5.553   1.081   8.344  0.2465  0.3341 -2.0535
   30CHL1  H21C 2201   5.646   1.153   8.485  0.5388 -0.5131 -1.0026
   30CHL1   C22 2202   5.376   1.199   8.528  0.0457  0.5936  0.7364
   30CHL1  H22A 2203   5.278   1.251   8.527  0.5250  1.6069  2.4239
   30CHL1  H22B 2204   5.359   1.098   8.485 -0.4479  1.4799 -1.2777
   30CHL1   C23 2205   5.431   1.203   8.674 -0.1004  0.1510  0.8387
   30CHL1  H23A 2206   5.541   1.197   8.659 -0.2997  1.3275 -1.7189
   30CHL1  H23B 2207   5.433   1.309   8.709 -0.3300  0.2114  0.6700
   30CHL1   C24 2208   5.359   1.110   8.775  0.5418  0.7167  0.1122
   30CHL1  H24A 2209   5.251   1.135   8.782  0.6997  1.1806  0.9238
   30CHL1  H24B 2210   5.367   1.010   8.727 -0.5451  1.4226 -1.6301
   30CHL1   C25 2211   5.423   1.088   8.917  0.1001 -0.0433 -1.0250
   30CHL1   H25 2212   5.456   1.188   8.954  2.8691 -1.2093 -0.1037
   30CHL1   C26 2213   5.312   1.027   9.012 -0.0620  0.5471 -0.2861
   30CHL1  H26A 2214   5.345   1.035   9.118  1.0566 -1.3507 -0.4360
   30CHL1  H26B 2215   5.215   1.073   8.983  0.4442  1.0045 -1.3014
   30CHL1  H26C 2216   5.301   0.920   8.985 -0.7329  0.5504 -0.0536
   30CHL1   C27 2217   5.551   1.005   8.902  0.4141  0.5877 -0.0355
   30CHL1  H27A 2218   5.613   0.998   8.994 -1.1325  1.1859  1.0775
   30CHL1  H27B 2219   5.524   0.909   8.854  0.7034 -0.0032  0.9597
   30CHL1  H27C 2220   5.613   1.058   8.826  0.0101  1.0769 -0.0236
   31CHL1    C3 2221   4.176   2.657   6.848 -0.3080 -0.7262  0.0198
   31CHL1    H3 2222   4.201   2.556   6.887  1.9835 -0.1578  0.1493
   31CHL1    O3 2223   4.152   2.660   6.708  0.2012 -0.2386 -0.4311
   31CHL1   H3' 2224   4.176   2.750   6.685  1.8772 -0.3639  0.6297
   31CHL1    C4 2225   4.050   2.708   6.913  0.5556  0.6147 -0.0999
   31CHL1   H4A 2226   4.029   2.807   6.867  0.0933 -0.2060 -1.7677
   31CHL1   H4B 2227   3.967   2.644   6.876  1.4949 -1.5560  1.3959
   31CHL1    C5 2228   4.064   2.725   7.062 -0.2448 -0.6645 -0.1981
   31CHL1    C6 2229   3.980   2.665   7.144 -0.9335  0.4268 -0.1190
   31CHL1    H6 2230   3.895   2.608   7.103 -0.4404  0.9899 -2.0219
   31CHL1    C7 2231   3.989   2.678   7.294 -0.0857 -0.4608 -0.2051
   31CHL1   H7A 2232   3.886   2.694   7.332 -0.8137 -0.1084 -2.2239
   31CHL1   H7B 2233   4.033   2.585   7.335 -1.2441 -0.8256  0.2406
   31CHL1    C8 2234   4.076   2.804   7.344 -0.1503  0.2579  0.4892
   31CHL1    H8 2235   4.019   2.899   7.327 -1.0360 -0.2520  0.5374
   31CHL1   C14 2236   4.106   2.783   7.486  0.2618  0.2557  0.0326
   31CHL1   H14 2237   4.158   2.686   7.497 -0.4495 -0.0511  0.8012
   31CHL1   C15 2238   3.985   2.774   7.585  0.0154  0.0273  0.3220
   31CHL1  H15A 2239   3.903   2.843   7.558  1.7889  1.4675 -1.6555
   31CHL1  H15B 2240   3.944   2.670   7.585 -1.6515  0.6550  0.3740
   31CHL1   C16 2241   4.051   2.807   7.723  0.0828 -0.0182 -0.6215
   31CHL1  H16A 2242   4.007   2.903   7.756 -0.2265 -0.4189  0.1575
   31CHL1  H16B 2243   4.019   2.725   7.790 -1.2583 -0.6256 -1.9479
   31CHL1   C17 2244   4.197   2.833   7.695 -1.1499  0.5314 -0.2981
   31CHL1   H17 2245   4.246   2.735   7.712 -2.2413  0.2634  1.6198
   31CHL1   C13 2246   4.205   2.877   7.551 -0.1434  0.3605  0.3445
   31CHL1   C18 2247   4.154   3.026   7.537  0.3433  0.2225 -0.9893
   31CHL1  H18A 2248   4.129   3.057   7.434 -1.0248  2.7060  0.0110
   31CHL1  H18B 2249   4.060   3.049   7.592  0.4650  1.3787 -1.2477
   31CHL1  H18C 2250   4.230   3.095   7.579  1.0152  0.3071 -2.2854
   31CHL1   C12 2251   4.343   2.869   7.478  0.1454 -0.5820  0.3948
   31CHL1  H12A 2252   4.428   2.935   7.506  0.9474 -2.7411  3.5152
   31CHL1  H12B 2253   4.386   2.767   7.488 -1.1224 -1.3653 -1.5997
   31CHL1   C11 2254   4.321   2.893   7.327 -0.5081  0.4509 -0.8104
   31CHL1  H11A 2255   4.300   3.001   7.311 -0.6368  0.5373 -0.0962
   31CHL1  H11B 2256   4.413   2.870   7.269 -0.5667  0.8395 -1.0649
   31CHL1    C9 2257   4.206   2.806   7.270 -0.7150  0.3207  0.2280
   31CHL1    H9 2258   4.248   2.705   7.293 -2.6723 -0.4686  0.5564
   31CHL1   C10 2259   4.184   2.818   7.117  0.3795 -0.2655 -0.1786
   31CHL1   C19 2260   4.142   2.963   7.087 -0.2326 -0.9766 -0.4670
   31CHL1  H19A 2261   4.220   3.032   7.128 -0.8161  0.6667 -2.0031
   31CHL1  H19B 2262   4.126   2.983   6.979 -0.0459 -0.2335 -0.3682
   31CHL1  H19C 2263   4.045   2.984   7.136 -0.2206 -2.2325  0.1275
   31CHL1    C1 2264   4.303   2.770   7.034 -0.1406 -0.0141  0.9964
   31CHL1   H1A 2265   4.386   2.841   7.054 -1.1801  1.0570  1.6536
   31CHL1   H1B 2266   4.333   2.666   7.061  2.3137  0.3299 -0.1782
   31CHL1    C2 2267   4.294   2.756   6.878 -0.6950 -0.1485 -0.8502
   31CHL1   H2A 2268   4.392   2.723   6.839  0.0481 -0.9582  1.5053
   31CHL1   H2B 2269   4.277   2.853   6.828 -0.4594  0.8135  0.8817
   31CHL1   C20 2270   4.261   2.926   7.805 -0.8337  0.0409  0.2543
   31CHL1   H20 2271   4.232   3.031   7.782  0.9740  0.9337  1.8391
   31CHL1   C21 2272   4.415   2.912   7.794 -0.2460 -0.8456 -0.6252
   31CHL1  H21A 2273   4.443   2.805   7.791  0.1146 -0.7561 -0.4421
   31CHL1  H21B 2274   4.463   2.973   7.873  0.4951 -0.6589 -1.2080
   31CHL1  H21C 2275   4.446   2.961   7.699 -0.8852 -1.2971 -1.0761
   31CHL1   C22 2276   4.212   2.901   7.955 -0.1884  0.3536 -0.0054
   31CHL1  H22A 2277   4.103   2.922   7.947 -0.5806 -2.0173 -2.0363
   31CHL1  H22B 2278   4.234   2.794   7.976  2.4712  0.5967 -1.0831
   31CHL1   C23 2279   4.280   2.985   8.058 -0.4396 -0.5554 -0.5941
   31CHL1  H23A 2280   4.388   2.969   8.082 -0.6354 -1.0053  0.0230
   31CHL1  H23B 2281   4.291   3.086   8.012  1.0949 -0.9680 -1.2129
   31CHL1   C24 2282   4.195   2.975   8.192 -0.3883  0.5756  0.5613
   31CHL1  H24A 2283   4.089   2.982   8.159 -0.2716  1.6285  0.3646
   31CHL1  H24B 2284   4.219   2.886   8.254  0.2039  0.3627  0.0422
   31CHL1   C25 2285   4.214   3.097   8.288  0.5315 -0.4940  1.0510
   31CHL1   H25 2286   4.198   3.183   8.219 -2.6254 -0.4707  1.6693
   31CHL1   C26 2287   4.108   3.106   8.389  0.0153 -0.3962 -0.4573
   31CHL1  H26A 2288   4.110   3.196   8.454  0.2214  1.4568 -2.9087
   31CHL1  H26B 2289   4.011   3.081   8.342  0.6606 -0.9951 -1.5212
   31CHL1  H26C 2290   4.124   3.019   8.457  0.4706 -0.5110 -0.7081
   31CHL1   C27 2291   4.360   3.106   8.342  0.5700  0.0426 -0.3654
   31CHL1  H27A 2292   4.384   3.017   8.403 -1.6913 -0.2841  0.1555
   31CHL1  H27B 2293   4.370   3.196   8.408 -0.8330 -1.2357  1.7154
   31CHL1  H27C 2294   4.426   3.111   8.253 -3.3614 -2.2486 -3.7501
   32CHL1    C3 2295   5.510   0.751   6.968 -0.2807  0.2524  0.3000
   32CHL1    H3 2296   5.424   0.812   7.005 -0.4417  1.3623 -1.7514
   32CHL1    O3 2297   5.509   0.765   6.827  0.2711  0.6894 -0.3288
   32CHL1   H3' 2298   5.576   0.711   6.784 -1.0700 -1.2665 -0.0983
   32CHL1    C4 2299   5.641   0.793   7.023 -0.1056  0.5180  0.2055
   32CHL1   H4A 2300   5.717   0.738   6.964 -0.8435 -0.8447  0.4986
   32CHL1   H4B 2301   5.667   0.897   6.993  1.4512  0.6779  1.8820
   32CHL1    C5 2302   5.653   0.765   7.177 -0.1872 -0.2336 -0.1228
   32CHL1    C6 2303   5.694   0.861   7.264  0.5170 -0.1053 -0.0830
   32CHL1    H6 2304   5.714   0.964   7.232 -2.6741  0.6463  0.0299
   32CHL1    C7 2305   5.706   0.829   7.414  0.2715 -0.2860  0.4098
   32CHL1   H7A 2306   5.807   0.865   7.441  0.4464 -1.6155  1.6925
   32CHL1   H7B 2307   5.628   0.877   7.476  0.5502 -1.5981  1.8495
   32CHL1    C8 2308   5.710   0.682   7.450  0.4399 -0.1879  0.1754
   32CHL1    H8 2309   5.808   0.644   7.414  1.1187  0.8129  0.8855
   32CHL1   C14 2310   5.713   0.657   7.606 -0.2679 -0.2061 -0.0820
   32CHL1   H14 2311   5.617   0.703   7.636 -1.0857 -1.8551 -0.0929
   32CHL1   C15 2312   5.819   0.720   7.696  0.5793  0.4716 -1.1436
   32CHL1  H15A 2313   5.921   0.702   7.656  0.1670 -0.7856 -1.6640
   32CHL1  H15B 2314   5.791   0.827   7.704 -1.9273 -0.0993 -1.3831
   32CHL1   C16 2315   5.809   0.647   7.829 -0.6813  0.2161 -0.7049
   32CHL1  H16A 2316   5.905   0.597   7.856 -0.7229  0.5393  0.0796
   32CHL1  H16B 2317   5.776   0.709   7.915  0.4170 -0.5947  0.3447
   32CHL1   C17 2318   5.697   0.538   7.811 -0.4299  0.2768  0.3611
   32CHL1   H17 2319   5.604   0.597   7.825 -1.3035 -1.0244  0.2237
   32CHL1   C13 2320   5.702   0.517   7.657 -0.1501 -0.2896 -0.4888
   32CHL1   C18 2321   5.831   0.440   7.620 -0.0507  0.2523  0.2345
   32CHL1  H18A 2322   5.926   0.475   7.667  1.4216 -0.0961 -2.2866
   32CHL1  H18B 2323   5.816   0.331   7.628 -0.7195  0.0619 -2.5898
   32CHL1  H18C 2324   5.844   0.435   7.510 -2.8383 -2.7631 -0.0933
   32CHL1   C12 2325   5.579   0.460   7.588  0.3451  0.3713 -0.4064
   32CHL1  H12A 2326   5.577   0.352   7.613 -1.3295  0.9233  2.2441
   32CHL1  H12B 2327   5.488   0.506   7.633 -0.1096 -1.5615  0.7531
   32CHL1   C11 2328   5.581   0.468   7.427  0.1118  0.5658 -0.3590
   32CHL1  H11A 2329   5.668   0.405   7.399  0.6124  0.8512  0.5350
   32CHL1  H11B 2330   5.495   0.419   7.376  1.0178 -0.2703 -1.1176
   32CHL1    C9 2331   5.595   0.614   7.379  0.9437  0.6125  0.3863
   32CHL1    H9 2332   5.504   0.670   7.409  2.0664  1.6863  1.9596
   32CHL1   C10 2333   5.611   0.622   7.226 -0.8079  0.0374  0.8314
   32CHL1   C19 2334   5.749   0.544   7.186 -0.2548  0.5277 -0.2528
   32CHL1  H19A 2335   5.735   0.438   7.215  2.6230  0.1849  0.0944
   32CHL1  H19B 2336   5.774   0.545   7.078  3.2272  1.4207  0.4558
   32CHL1  H19C 2337   5.847   0.571   7.230  0.0560  0.3516 -0.8332
   32CHL1    C1 2338   5.486   0.571   7.145  0.7744  0.2945 -0.2024
   32CHL1   H1A 2339   5.463   0.464   7.165  1.2248  0.1229 -0.5992
   32CHL1   H1B 2340   5.403   0.626   7.194  0.6875  1.7423 -1.8879
   32CHL1    C2 2341   5.484   0.602   6.994 -0.2666 -0.0567 -0.1674
   32CHL1   H2A 2342   5.385   0.563   6.960  0.7032 -0.5921 -2.5710
   32CHL1   H2B 2343   5.563   0.539   6.949 -1.0169 -0.1473 -1.4127
   32CHL1   C20 2344   5.714   0.418   7.902  0.5082 -0.2159  0.5147
   32CHL1   H20 2345   5.776   0.345   7.845  0.0203 -1.4968  1.5603
   32CHL1   C21 2346   5.572   0.354   7.928 -1.1038 -0.0888 -0.0110
   32CHL1  H21A 2347   5.499   0.428   7.967 -2.3432 -1.2212 -0.0877
   32CHL1  H21B 2348   5.595   0.267   7.993  2.3864  1.5728  1.1754
   32CHL1  H21C 2349   5.524   0.322   7.833  0.3019 -1.3562 -0.3298
   32CHL1   C22 2350   5.769   0.449   8.041  0.0800 -0.4592 -0.3249
   32CHL1  H22A 2351   5.864   0.506   8.032 -0.4697  0.3285 -1.4051
   32CHL1  H22B 2352   5.702   0.522   8.090 -2.6376 -0.6192 -3.4759
   32CHL1   C23 2353   5.795   0.331   8.137  0.2123 -0.6028  0.2307
   32CHL1  H23A 2354   5.698   0.287   8.169  0.5427 -0.4980  1.4149
   32CHL1  H23B 2355   5.844   0.255   8.073  3.2424  1.8120 -0.5254
   32CHL1   C24 2356   5.872   0.390   8.260  0.0781 -0.5887  0.2397
   32CHL1  H24A 2357   5.977   0.398   8.225  0.0097  1.1902  0.3928
   32CHL1  H24B 2358   5.826   0.487   8.286  1.6170 -0.3271  2.1726
   32CHL1   C25 2359   5.873   0.295   8.383 -0.1922  1.3938  0.2900
   32CHL1   H25 2360   5.770   0.255   8.381  0.0367  0.8125 -0.3232
   32CHL1   C26 2361   5.969   0.171   8.372  0.1940  0.2760 -0.3823
   32CHL1  H26A 2362   5.958   0.118   8.275 -0.2752  3.5566 -2.2855
   32CHL1  H26B 2363   6.073   0.208   8.378 -0.0576  1.0048 -0.4079
   32CHL1  H26C 2364   5.942   0.103   8.456 -1.4797 -0.4115 -1.4230
   32CHL1   C27 2365   5.881   0.374   8.511  0.6670  0.5422  0.3111
   32CHL1  H27A 2366   5.848   0.480   8.504  1.0919  0.6566  0.0142
   32CHL1  H27B 2367   5.814   0.332   8.589 -1.2266 -0.5156 -1.7377
   32CHL1  H27C 2368   5.986   0.383   8.546 -0.3308  1.3059  3.4015
   33CHL1    C3 2369   5.601   2.111   6.704  0.4294  0.3955 -0.7807
   33CHL1    H3 2370   5.497   2.148   6.720 -1.9569 -4.2446 -3.3809
   33CHL1    O3 2371   5.605   2.073   6.566 -0.1865 -0.0020  0.3386
   33CHL1   H3' 2372   5.678   2.013   6.546 -0.2798 -0.3444  0.9864
   33CHL1    C4 2373   5.713   2.208   6.740 -0.4549  0.7742  0.3083
   33CHL1   H4A 2374   5.811   2.159   6.722 -0.8693  0.4459 -1.2553
   33CHL1   H4B 2375   5.710   2.289   6.664 -2.3443 -0.8794 -1.5031
   33CHL1    C5 2376   5.704   2.244   6.890  0.4617 -0.5216  0.0702
   33CHL1    C6 2377   5.686   2.371   6.927 -0.3379 -0.2870 -0.0439
   33CHL1    H6 2378   5.692   2.443   6.844  0.7875 -0.0814  0.2005
   33CHL1    C7 2379   5.691   2.423   7.071 -0.2981  0.5580 -0.6069
   33CHL1   H7A 2380   5.758   2.511   7.076  0.6868 -0.0918 -1.6991
   33CHL1   H7B 2381   5.587   2.453   7.097 -1.1725 -2.0470 -0.7593
   33CHL1    C8 2382   5.723   2.308   7.172 -0.4676  0.3673  0.4252
   33CHL1    H8 2383   5.833   2.295   7.165 -0.7506 -1.6392 -1.2350
   33CHL1   C14 2384   5.684   2.352   7.310 -0.3161  0.4765  0.0419
   33CHL1   H14 2385   5.573   2.354   7.314 -0.4914 -3.0677  0.0897
   33CHL1   C15 2386   5.725   2.498   7.352  0.2137 -0.2860 -0.1654
   33CHL1  H15A 2387   5.835   2.501   7.339  0.1236 -1.0591 -1.1896
   33CHL1  H15B 2388   5.670   2.586   7.313 -0.0263 -0.2910  0.1590
   33CHL1   C16 2389   5.706   2.493   7.507 -0.0396  0.2570  0.6602
   33CHL1  H16A 2390   5.802   2.529   7.548  0.9886  1.6730 -2.6443
   33CHL1  H16B 2391   5.619   2.550   7.546 -0.3200 -0.3328  0.9141
   33CHL1   C17 2392   5.673   2.341   7.540 -0.2430  0.0264 -0.4962
   33CHL1   H17 2393   5.563   2.335   7.556  0.1403  0.2947  3.3330
   33CHL1   C13 2394   5.717   2.255   7.422 -0.5437  0.2506  0.7499
   33CHL1   C18 2395   5.867   2.240   7.437 -0.0930 -0.2334  0.5572
   33CHL1  H18A 2396   5.889   2.149   7.497 -0.5211  0.6466  2.0982
   33CHL1  H18B 2397   5.915   2.224   7.338 -1.9772  1.9627 -0.7867
   33CHL1  H18C 2398   5.914   2.325   7.490  2.2389 -0.7115 -0.5717
   33CHL1   C12 2399   5.638   2.129   7.398 -0.0950 -0.5250  0.5309
   33CHL1  H12A 2400   5.665   2.047   7.467  1.2379 -3.0776 -2.7734
   33CHL1  H12B 2401   5.527   2.137   7.409 -0.0798  0.5015  0.0817
   33CHL1   C11 2402   5.675   2.072   7.254  0.6957 -0.0871 -0.6042
   33CHL1  H11A 2403   5.782   2.053   7.274  1.0669  2.7216  0.4713
   33CHL1  H11B 2404   5.620   1.977   7.233  0.1537 -0.7486  3.0948
   33CHL1    C9 2405   5.658   2.168   7.135  0.2579  0.5522  0.1041
   33CHL1    H9 2406   5.548   2.181   7.122  0.4755 -0.0204 -3.0492
   33CHL1   C10 2407   5.703   2.127   6.990 -0.5274  0.6166 -0.2591
   33CHL1   C19 2408   5.852   2.067   6.993 -0.1322  0.0449  0.2619
   33CHL1  H19A 2409   5.887   2.044   6.890 -0.7930  0.6338 -0.1016
   33CHL1  H19B 2410   5.918   2.143   7.042  1.6845 -1.0931 -0.2991
   33CHL1  H19C 2411   5.851   1.973   7.053  0.0868  0.2386  0.5727
   33CHL1    C1 2412   5.607   2.010   6.942 -0.6982  0.4701  0.4563
   33CHL1   H1A 2413   5.625   1.914   6.996  0.7944  0.0557 -0.6910
   33CHL1   H1B 2414   5.500   2.030   6.963 -0.5664  1.8044 -0.0771
   33CHL1    C2 2415   5.617   1.983   6.792 -0.5813 -0.5425 -0.2265
   33CHL1   H2A 2416   5.546   1.904   6.761  1.1437 -2.3594  0.2669
   33CHL1   H2B 2417   5.721   1.947   6.780  0.7771  1.6094  3.3819
   33CHL1   C20 2418   5.722   2.301   7.677  0.5377  0.6963 -0.6991
   33CHL1   H20 2419   5.831   2.279   7.676  0.3557 -0.9004  2.3194
   33CHL1   C21 2420   5.647   2.169   7.724  0.3463 -0.1961 -0.5725
   33CHL1  H21A 2421   5.647   2.150   7.833  1.1895  0.1488 -0.5060
   33CHL1  H21B 2422   5.702   2.086   7.675  1.0041 -0.0177 -0.1453
   33CHL1  H21C 2423   5.539   2.176   7.699  0.1178 -0.9120  0.1880
   33CHL1   C22 2424   5.690   2.409   7.789  0.3089 -0.1358 -0.3327
   33CHL1  H22A 2425   5.725   2.508   7.755 -0.3828  0.6892  1.2293
   33CHL1  H22B 2426   5.581   2.414   7.814  0.4722  0.1467  0.3442
   33CHL1   C23 2427   5.757   2.390   7.924 -0.6966  0.2057  0.5095
   33CHL1  H23A 2428   5.730   2.293   7.972 -0.2899 -1.0141 -1.6151
   33CHL1  H23B 2429   5.867   2.390   7.911 -0.8797  0.3130 -1.1405
   33CHL1   C24 2430   5.708   2.494   8.028 -0.3960  0.2501  0.0535
   33CHL1  H24A 2431   5.718   2.592   7.977  2.7962 -0.3924 -0.7208
   33CHL1  H24B 2432   5.601   2.474   8.053 -0.0305 -0.4032  1.1768
   33CHL1   C25 2433   5.791   2.483   8.157 -0.0234 -0.3983  0.7592
   33CHL1   H25 2434   5.890   2.452   8.116 -0.3519  1.7291 -1.8718
   33CHL1   C26 2435   5.816   2.620   8.227  0.3698  0.1724  0.3619
   33CHL1  H26A 2436   5.730   2.635   8.296  0.3645 -0.2083  0.4398
   33CHL1  H26B 2437   5.911   2.617   8.285  0.0748  1.9481  1.0014
   33CHL1  H26C 2438   5.828   2.695   8.146 -0.0588 -1.8562 -1.6741
   33CHL1   C27 2439   5.751   2.373   8.255 -0.5822 -0.3541 -0.5585
   33CHL1  H27A 2440   5.800   2.274   8.239 -0.8646 -0.7400  0.8712
   33CHL1  H27B 2441   5.782   2.398   8.358 -1.0650 -1.3151 -0.1690
   33CHL1  H27C 2442   5.643   2.347   8.247  0.1388 -3.7026 -1.0217
   34CHL1    C3 2443   1.730   6.471   7.094 -0.6474 -0.4230 -0.0718
   34CHL1    H3 2444   1.838   6.492   7.085 -0.1610 -2.4871  0.2595
   34CHL1    O3 2445   1.660   6.490   6.967 -0.1180 -0.6399  0.0183
   34CHL1   H3' 2446   1.676   6.413   6.912  1.1914  0.2385 -0.9123
   34CHL1    C4 2447   1.728   6.318   7.141  0.5546 -0.0672 -0.1366
   34CHL1   H4A 2448   1.636   6.272   7.099  0.5637 -0.9692  0.8005
   34CHL1   H4B 2449   1.799   6.263   7.077  2.5720  1.7690  0.4186
   34CHL1    C5 2450   1.762   6.288   7.287  0.3439 -1.0934 -0.7038
   34CHL1    C6 2451   1.864   6.206   7.319 -0.6019  0.2745  0.1018
   34CHL1    H6 2452   1.919   6.152   7.241 -1.4298 -1.1250  0.4431
   34CHL1    C7 2453   1.890   6.179   7.463  0.1683  0.0667 -0.3906
   34CHL1   H7A 2454   1.926   6.075   7.478  1.1727  0.1383 -2.0702
   34CHL1   H7B 2455   1.975   6.245   7.491  1.4678 -0.4636 -2.8391
   34CHL1    C8 2456   1.774   6.215   7.568 -0.6585 -0.2388 -0.1536
   34CHL1    H8 2457   1.687   6.146   7.554 -1.0884  0.6028 -1.8965
   34CHL1   C14 2458   1.815   6.203   7.713  0.2483 -0.3137  0.6766
   34CHL1   H14 2459   1.906   6.267   7.714  0.6658 -0.8720 -0.0224
   34CHL1   C15 2460   1.871   6.066   7.751  0.7113  0.7758  0.0142
   34CHL1  H15A 2461   1.795   5.990   7.722  1.7007 -0.3803  0.3623
   34CHL1  H15B 2462   1.968   6.044   7.701  0.1767  0.3664 -0.8648
   34CHL1   C16 2463   1.870   6.076   7.903  0.1332 -0.9323 -0.2610
   34CHL1  H16A 2464   1.827   5.987   7.952  0.0064 -0.1659  1.0646
   34CHL1  H16B 2465   1.977   6.070   7.933  0.0392  0.3717  0.4166
   34CHL1   C17 2466   1.799   6.210   7.948  0.9294 -0.0910  0.2742
   34CHL1   H17 2467   1.881   6.284   7.959  1.4782 -0.5051 -0.8869
   34CHL1   C13 2468   1.714   6.257   7.820 -0.6718 -0.6198  0.3072
   34CHL1   C18 2469   1.580   6.179   7.828  0.0186 -0.1361 -0.4513
   34CHL1  H18A 2470   1.536   6.179   7.726 -2.0174  0.8171  0.3692
   34CHL1  H18B 2471   1.612   6.075   7.849  2.2850  1.0089  2.5382
   34CHL1  H18C 2472   1.513   6.229   7.901  0.6994  0.2105 -0.0522
   34CHL1   C12 2473   1.693   6.406   7.797 -0.7317 -0.9596 -0.2786
   34CHL1  H12A 2474   1.618   6.453   7.864 -1.0109  0.7806 -1.7084
   34CHL1  H12B 2475   1.789   6.462   7.809 -1.3613 -0.3442  2.6866
   34CHL1   C11 2476   1.642   6.425   7.647  0.1730  0.6201  0.2699
   34CHL1  H11A 2477   1.539   6.382   7.645  1.0767 -1.5975 -0.8906
   34CHL1  H11B 2478   1.622   6.534   7.631 -1.1375  0.4067  0.2834
   34CHL1    C9 2479   1.732   6.360   7.545  0.2243  0.4518  0.2671
   34CHL1    H9 2480   1.822   6.426   7.543 -0.6981  1.7528  0.7616
   34CHL1   C10 2481   1.688   6.377   7.386  0.2046 -0.3851 -0.5245
   34CHL1   C19 2482   1.542   6.344   7.380 -0.2933  0.5773 -0.4180
   34CHL1  H19A 2483   1.526   6.239   7.410  0.4649  0.8044  0.8474
   34CHL1  H19B 2484   1.478   6.412   7.441 -0.9323 -0.2455 -0.1613
   34CHL1  H19C 2485   1.503   6.347   7.276  1.9187  0.8571 -1.2889
   34CHL1    C1 2486   1.701   6.522   7.338 -0.2417 -0.6807 -0.6021
   34CHL1   H1A 2487   1.642   6.586   7.408  0.9693 -0.0359 -0.1316
   34CHL1   H1B 2488   1.802   6.567   7.344 -1.4209  2.4236 -1.7037
   34CHL1    C2 2489   1.658   6.551   7.196 -0.2108 -0.5763  0.1717
   34CHL1   H2A 2490   1.668   6.659   7.172 -0.8981 -0.7450 -0.9534
   34CHL1   H2B 2491   1.548   6.535   7.187 -0.2912  0.1857 -0.2919
   34CHL1   C20 2492   1.729   6.199   8.079  0.5933  0.3053 -0.1330
   34CHL1   H20 2493   1.643   6.129   8.069 -0.5658  1.5852  0.5263
   34CHL1   C21 2494   1.667   6.338   8.118 -0.4642  0.2676  0.0413
   34CHL1  H21A 2495   1.742   6.419   8.127  0.4852 -0.8249  2.8181
   34CHL1  H21B 2496   1.622   6.327   8.219 -1.4461  1.2870 -0.2561
   34CHL1  H21C 2497   1.590   6.364   8.041  0.1274  1.0086 -0.3232
   34CHL1   C22 2498   1.801   6.139   8.197 -0.3512 -0.0300  0.1514
   34CHL1  H22A 2499   1.734   6.132   8.285 -0.9071 -3.2243 -0.3951
   34CHL1  H22B 2500   1.835   6.036   8.172  1.3066  0.3455  0.7480
   34CHL1   C23 2501   1.926   6.223   8.230  0.1983 -0.4531 -0.5686
   34CHL1  H23A 2502   1.989   6.230   8.138  0.6789 -3.2091 -0.5192
   34CHL1  H23B 2503   1.891   6.324   8.262 -0.9237 -0.3420 -2.0613
   34CHL1   C24 2504   2.013   6.155   8.326 -0.5774  0.3283  0.8816
   34CHL1  H24A 2505   2.034   6.055   8.281 -0.8485  1.5563 -2.2023
   34CHL1  H24B 2506   2.113   6.203   8.329  0.8314 -2.3057 -0.5299
   34CHL1   C25 2507   1.958   6.128   8.465 -0.0586  0.5091  0.2371
   34CHL1   H25 2508   1.858   6.081   8.459 -0.2711  1.1719 -2.8013
   34CHL1   C26 2509   2.042   6.013   8.538 -0.3530 -0.0397  0.4041
   34CHL1  H26A 2510   1.985   5.990   8.631 -2.0535  1.3212 -0.2609
   34CHL1  H26B 2511   2.051   5.923   8.474  2.4462  1.0398 -0.8970
   34CHL1  H26C 2512   2.146   6.040   8.567 -0.1349 -1.8278  1.4755
   34CHL1   C27 2513   1.944   6.254   8.550 -0.1003  0.0322  0.5358
   34CHL1  H27A 2514   2.039   6.311   8.561 -1.3642  2.2379  0.6245
   34CHL1  H27B 2515   1.857   6.303   8.501 -2.4736 -2.6686  1.8353
   34CHL1  H27C 2516   1.918   6.217   8.651  0.0383 -2.5862 -0.3173
   35CHL1    C3 2517   3.941   0.635   7.172 -0.6738 -0.5347  1.1895
   35CHL1    H3 2518   4.037   0.578   7.176 -0.1173  0.3370  0.5877
   35CHL1    O3 2519   3.933   0.658   7.032  0.0106 -0.0704  0.5520
   35CHL1   H3' 2520   3.967   0.746   7.013  0.6782 -0.7284 -1.5598
   35CHL1    C4 2521   3.824   0.550   7.229 -0.3622 -0.6715  0.5172
   35CHL1   H4A 2522   3.735   0.615   7.218 -1.1638 -1.8708 -0.3480
   35CHL1   H4B 2523   3.808   0.451   7.182 -0.0816 -0.4673 -0.0271
   35CHL1    C5 2524   3.856   0.522   7.379 -0.5915  0.5759 -0.4899
   35CHL1    C6 2525   3.868   0.400   7.434  0.1578  0.5285  0.7642
   35CHL1    H6 2526   3.857   0.312   7.369  1.6976  0.8266  0.0779
   35CHL1    C7 2527   3.871   0.370   7.582 -0.3338  0.2750 -0.1013
   35CHL1   H7A 2528   3.791   0.301   7.615  0.1044  0.2501  0.9275
   35CHL1   H7B 2529   3.968   0.320   7.603 -1.2720 -2.9262 -2.5883
   35CHL1    C8 2530   3.847   0.505   7.665 -0.0426  0.2403 -0.2009
   35CHL1    H8 2531   3.738   0.523   7.651 -0.0032  0.4517 -0.2296
   35CHL1   C14 2532   3.874   0.474   7.814  0.3535  0.4289 -0.6847
   35CHL1   H14 2533   3.976   0.431   7.813 -0.7402 -2.3725 -0.2430
   35CHL1   C15 2534   3.789   0.367   7.884  0.3265 -0.0765  0.5564
   35CHL1  H15A 2535   3.682   0.395   7.871 -0.2836 -2.3984  0.0712
   35CHL1  H15B 2536   3.821   0.265   7.852  0.4197  0.8897 -2.7987
   35CHL1   C16 2537   3.845   0.387   8.027  0.3852  0.5790  0.5715
   35CHL1  H16A 2538   3.757   0.391   8.095 -0.1889  1.6397 -0.2082
   35CHL1  H16B 2539   3.922   0.312   8.055  1.0932  0.6480 -1.0854
   35CHL1   C17 2540   3.916   0.532   8.040 -0.0081 -0.5180 -0.2654
   35CHL1   H17 2541   4.026   0.513   8.039  0.0965  0.0510  0.0783
   35CHL1   C13 2542   3.880   0.593   7.910  0.3135  0.4286 -0.3893
   35CHL1   C18 2543   3.741   0.659   7.917 -0.2861 -0.1345  0.0474
   35CHL1  H18A 2544   3.688   0.662   7.819  1.2962  0.7715 -0.8260
   35CHL1  H18B 2545   3.663   0.607   7.975 -0.1023 -1.1738 -0.6124
   35CHL1  H18C 2546   3.756   0.764   7.952 -1.7594 -0.0630  0.5537
   35CHL1   C12 2547   3.997   0.684   7.844  0.8120  0.3359  0.5487
   35CHL1  H12A 2548   4.024   0.781   7.890  3.4282 -0.2835  0.4688
   35CHL1  H12B 2549   4.093   0.627   7.843  0.0704 -0.9744  0.9736
   35CHL1   C11 2550   3.952   0.732   7.700 -0.5439 -0.7289  0.4071
   35CHL1  H11A 2551   3.864   0.800   7.708  0.4295  0.5197  0.8005
   35CHL1  H11B 2552   4.034   0.802   7.672  0.7004 -2.4650 -0.4186
   35CHL1    C9 2553   3.933   0.615   7.603  0.2712 -0.1609  0.2334
   35CHL1    H9 2554   4.037   0.575   7.603 -0.2206 -1.5476  1.5007
   35CHL1   C10 2555   3.882   0.654   7.456  0.2881  0.4883 -0.6751
   35CHL1   C19 2556   3.751   0.732   7.474  0.2996 -0.0355 -0.2373
   35CHL1  H19A 2557   3.681   0.688   7.548 -0.9490 -2.1836 -2.5424
   35CHL1  H19B 2558   3.776   0.836   7.505 -2.4737  0.7398 -0.4079
   35CHL1  H19C 2559   3.697   0.745   7.378  0.9452 -0.0812 -0.6189
   35CHL1    C1 2560   3.983   0.737   7.389 -0.3470 -1.1865  0.0082
   35CHL1   H1A 2561   3.995   0.834   7.441 -0.0150  0.3024 -2.6669
   35CHL1   H1B 2562   4.086   0.694   7.390 -1.1465 -3.3052 -1.2935
   35CHL1    C2 2563   3.955   0.773   7.243 -0.1589  0.8536 -0.7087
   35CHL1   H2A 2564   4.032   0.840   7.200 -1.2055  1.3124 -1.9448
   35CHL1   H2B 2565   3.864   0.837   7.239 -0.5368  0.3974  0.2499
   35CHL1   C20 2566   3.882   0.617   8.170 -0.0068  0.2686  0.0044
   35CHL1   H20 2567   3.784   0.668   8.166  0.3843  1.0776  0.4133
   35CHL1   C21 2568   3.992   0.725   8.184 -0.3054  0.6639 -0.4454
   35CHL1  H21A 2569   3.986   0.779   8.281  1.3782 -1.7489  1.1220
   35CHL1  H21B 2570   3.976   0.791   8.096 -1.8557 -0.2666 -0.9136
   35CHL1  H21C 2571   4.095   0.684   8.187 -0.7781 -0.6178 -0.9136
   35CHL1   C22 2572   3.878   0.532   8.291  0.1735  0.4394  0.6265
   35CHL1  H22A 2573   3.809   0.446   8.279 -1.3688  1.7305 -0.3072
   35CHL1  H22B 2574   3.982   0.502   8.315  0.7321  0.7918 -1.1818
   35CHL1   C23 2575   3.821   0.597   8.415  0.1208  0.4263 -0.5656
   35CHL1  H23A 2576   3.781   0.695   8.382 -0.2351  0.3897 -0.2475
   35CHL1  H23B 2577   3.737   0.538   8.457  1.1083  0.0466  0.9524
   35CHL1   C24 2578   3.926   0.618   8.518  0.2882  0.1672 -0.4393
   35CHL1  H24A 2579   3.968   0.526   8.565 -2.4046 -1.4042 -0.8872
   35CHL1  H24B 2580   4.014   0.663   8.468  1.1370  2.0758  2.5488
   35CHL1   C25 2581   3.873   0.713   8.632  0.3448  0.5116 -0.4497
   35CHL1   H25 2582   3.844   0.813   8.594 -1.2410  0.7307  1.2335
   35CHL1   C26 2583   3.763   0.654   8.716 -0.1841  0.1727 -1.1411
   35CHL1  H26A 2584   3.701   0.725   8.774 -0.2295 -0.4719 -0.3812
   35CHL1  H26B 2585   3.686   0.613   8.648  1.0363 -3.0002 -0.7753
   35CHL1  H26C 2586   3.799   0.568   8.777 -2.4520  1.2605  1.9506
   35CHL1   C27 2587   3.993   0.744   8.725 -0.6803  0.2354 -0.5962
   35CHL1  H27A 2588   3.966   0.823   8.799 -0.1019 -1.2936  1.3298
   35CHL1  H27B 2589   4.083   0.784   8.673 -0.8191  0.6128 -0.5566
   35CHL1  H27C 2590   4.021   0.651   8.777 -0.4092 -0.2006 -1.5001
   36CHL1    C3 2591   4.580   6.426   6.996  0.1813  0.1361  0.1210
   36CHL1    H3 2592   4.610   6.529   6.969  1.3902 -0.0267  0.7793
   36CHL1    O3 2593   4.556   6.357   6.879  0.4312 -0.3158  0.8486
   36CHL1   H3' 2594   4.628   6.379   6.819  0.5502  1.3075  1.5308
   36CHL1    C4 2595   4.700   6.359   7.074 -0.5398  0.0167 -0.3196
   36CHL1   H4A 2596   4.682   6.253   7.099 -1.4233  0.0381 -0.8266
   36CHL1   H4B 2597   4.789   6.369   7.008 -1.3391 -0.7540 -1.5239
   36CHL1    C5 2598   4.731   6.433   7.207 -0.0759  0.1149 -0.0447
   36CHL1    C6 2599   4.853   6.490   7.230  0.9758 -0.0685  0.3487
   36CHL1    H6 2600   4.936   6.476   7.160  2.2222 -1.3561  2.0025
   36CHL1    C7 2601   4.885   6.551   7.366  0.3009  0.3786  0.6609
   36CHL1   H7A 2602   4.984   6.515   7.400  0.8398  0.6220 -0.6094
   36CHL1   H7B 2603   4.888   6.661   7.348 -0.6413  0.0504 -1.8979
   36CHL1    C8 2604   4.776   6.519   7.480  0.2679  0.0555 -0.6439
   36CHL1    H8 2605   4.792   6.414   7.511 -1.4841 -0.4753 -1.4260
   36CHL1   C14 2606   4.792   6.618   7.597  0.2114 -0.0574  0.8650
   36CHL1   H14 2607   4.781   6.718   7.549 -0.7223 -0.0343  1.1017
   36CHL1   C15 2608   4.928   6.619   7.668  0.3424  0.4616 -0.1724
   36CHL1  H15A 2609   4.951   6.512   7.690  0.8365  0.2940 -1.4141
   36CHL1  H15B 2610   5.018   6.662   7.618  0.5362 -1.7271 -1.8868
   36CHL1   C16 2611   4.896   6.691   7.799 -0.1282  0.3338 -0.0582
   36CHL1  H16A 2612   4.928   6.631   7.887  2.7037  0.6057 -0.8204
   36CHL1  H16B 2613   4.945   6.790   7.808 -0.4651  0.3312  2.1731
   36CHL1   C17 2614   4.738   6.703   7.810  0.6506 -0.1618 -0.0714
   36CHL1   H17 2615   4.697   6.800   7.776 -2.2521 -2.2317 -3.0335
   36CHL1   C13 2616   4.682   6.606   7.699  0.1566  0.4527  0.2760
   36CHL1   C18 2617   4.682   6.460   7.754 -0.1746  0.0996  0.3740
   36CHL1  H18A 2618   4.660   6.382   7.677  0.2845 -0.8834  1.2044
   36CHL1  H18B 2619   4.779   6.431   7.801  0.5248  0.0841 -1.0241
   36CHL1  H18C 2620   4.602   6.452   7.830  0.6249  0.2869  1.2590
   36CHL1   C12 2621   4.553   6.649   7.633 -1.0262  0.1737 -0.6227
   36CHL1  H12A 2622   4.462   6.659   7.696 -1.7026 -1.7773 -1.2032
   36CHL1  H12B 2623   4.581   6.751   7.600 -2.0151  0.6122 -0.1487
   36CHL1   C11 2624   4.513   6.568   7.512 -1.0208  0.1750  0.6982
   36CHL1  H11A 2625   4.469   6.474   7.551 -1.1123 -2.3725 -4.5921
   36CHL1  H11B 2626   4.435   6.624   7.456 -1.4643 -0.2161  0.9226
   36CHL1    C9 2627   4.641   6.553   7.410 -0.5884 -0.0179 -0.1326
   36CHL1    H9 2628   4.653   6.653   7.363 -2.0733 -0.5563 -1.7825
   36CHL1   C10 2629   4.613   6.448   7.293 -0.0693  0.3359  0.0995
   36CHL1   C19 2630   4.577   6.308   7.364 -0.2224  0.6568  0.0083
   36CHL1  H19A 2631   4.663   6.271   7.424 -0.1614 -1.1394 -1.1059
   36CHL1  H19B 2632   4.487   6.305   7.430  0.6767 -2.5315  1.2843
   36CHL1  H19C 2633   4.553   6.233   7.286 -0.2660 -0.2397  0.8670
   36CHL1    C1 2634   4.490   6.501   7.215  0.8927 -0.5382  0.9162
   36CHL1   H1A 2635   4.406   6.470   7.281 -0.1953 -0.1993 -0.2623
   36CHL1   H1B 2636   4.498   6.610   7.197 -0.7119 -0.1079  2.5024
   36CHL1    C2 2637   4.462   6.425   7.080  0.3141 -0.3303 -0.4631
   36CHL1   H2A 2638   4.378   6.477   7.029  2.3575  1.2296 -2.4386
   36CHL1   H2B 2639   4.421   6.322   7.086 -1.0554  0.1658 -0.9720
   36CHL1   C20 2640   4.682   6.681   7.951 -0.4556 -0.8060 -0.0515
   36CHL1   H20 2641   4.706   6.578   7.986  0.3316 -0.0764  1.6799
   36CHL1   C21 2642   4.523   6.695   7.944 -0.2757  0.4098  0.1196
   36CHL1  H21A 2643   4.482   6.603   7.896  1.2904 -1.1946  1.6726
   36CHL1  H21B 2644   4.494   6.791   7.898 -2.8930 -0.6643 -0.6813
   36CHL1  H21C 2645   4.464   6.703   8.038 -1.5634 -1.7488 -0.4364
   36CHL1   C22 2646   4.743   6.784   8.054 -0.5003 -0.1865 -0.2601
   36CHL1  H22A 2647   4.853   6.772   8.045 -0.4435  0.1357 -0.0201
   36CHL1  H22B 2648   4.729   6.889   8.019  0.9887 -0.2083 -1.0158
   36CHL1   C23 2649   4.698   6.756   8.195 -0.2834  0.2598  0.4239
   36CHL1  H23A 2650   4.592   6.792   8.197 -0.2180  0.6378 -1.3527
   36CHL1  H23B 2651   4.705   6.646   8.203 -1.0608  0.1486 -0.1857
   36CHL1   C24 2652   4.802   6.831   8.285  0.7034  0.2847  0.1530
   36CHL1  H24A 2653   4.909   6.804   8.270  0.8550 -0.9154  2.8284
   36CHL1  H24B 2654   4.795   6.936   8.250 -1.9810  0.0124 -0.4005
   36CHL1   C25 2655   4.768   6.827   8.432  0.3616  0.5694 -0.2174
   36CHL1   H25 2656   4.660   6.848   8.445 -0.5765 -2.9925 -1.1643
   36CHL1   C26 2657   4.793   6.688   8.495  0.0320 -0.3079  0.5217
   36CHL1  H26A 2658   4.753   6.617   8.420 -1.2986  1.2283 -0.2920
   36CHL1  H26B 2659   4.902   6.677   8.516 -0.2003  1.1842  2.8954
   36CHL1  H26C 2660   4.752   6.669   8.597  0.0230 -1.3427  0.3333
   36CHL1   C27 2661   4.849   6.931   8.513  0.1184 -0.2903 -0.7558
   36CHL1  H27A 2662   4.954   6.939   8.477 -0.5029  0.3340 -2.5324
   36CHL1  H27B 2663   4.812   7.033   8.487  0.9808 -0.0491 -1.0708
   36CHL1  H27C 2664   4.840   6.903   8.620  0.3463 -0.6231 -0.8243
   37CHL1    C3 2665   0.669   1.484   7.036 -0.0468 -0.3003 -0.8598
   37CHL1    H3 2666   0.568   1.529   7.049  0.1099  0.0657 -0.8820
   37CHL1    O3 2667   0.704   1.507   6.900 -0.3735 -0.5629  0.4762
   37CHL1   H3' 2668   0.797   1.484   6.896  0.0034  0.9380  0.2059
   37CHL1    C4 2669   0.784   1.547   7.126  0.3204  0.5718 -0.5846
   37CHL1   H4A 2670   0.880   1.507   7.088 -0.1795 -0.8024 -0.4650
   37CHL1   H4B 2671   0.782   1.656   7.105 -0.4993  0.6372 -0.2236
   37CHL1    C5 2672   0.777   1.516   7.273 -0.0894 -0.0175 -0.3514
   37CHL1    C6 2673   0.774   1.607   7.377  0.0656 -0.3118 -0.1280
   37CHL1    H6 2674   0.794   1.714   7.357 -0.8884 -0.0049  0.4677
   37CHL1    C7 2675   0.761   1.577   7.529  0.0921  0.2030  0.4788
   37CHL1   H7A 2676   0.827   1.632   7.599 -0.2977  0.4621  0.6412
   37CHL1   H7B 2677   0.662   1.605   7.571 -0.7313  0.1658 -1.3336
   37CHL1    C8 2678   0.775   1.423   7.558 -0.4580  0.2152 -0.9305
   37CHL1    H8 2679   0.885   1.406   7.560 -0.1036  2.1703  1.5224
   37CHL1   C14 2680   0.731   1.407   7.703 -0.1707  0.9998  0.0758
   37CHL1   H14 2681   0.622   1.429   7.703 -0.8112 -1.6992  1.8825
   37CHL1   C15 2682   0.785   1.491   7.821  0.6387  0.1354 -0.4672
   37CHL1  H15A 2683   0.896   1.489   7.811  0.8256 -0.3456  1.4682
   37CHL1  H15B 2684   0.746   1.595   7.828 -1.8769 -0.6243 -1.9158
   37CHL1   C16 2685   0.733   1.414   7.940  0.3484 -0.2519 -0.7280
   37CHL1  H16A 2686   0.816   1.412   8.014 -0.8892  1.2377  0.7702
   37CHL1  H16B 2687   0.656   1.469   7.998 -0.4623 -0.7503 -1.3199
   37CHL1   C17 2688   0.680   1.276   7.894 -0.7778  0.0181 -0.2915
   37CHL1   H17 2689   0.569   1.284   7.885 -0.7498  0.8146 -0.0618
   37CHL1   C13 2690   0.740   1.259   7.754  0.0564  0.0572 -0.2085
   37CHL1   C18 2691   0.897   1.215   7.767  0.4597  0.2454 -0.2296
   37CHL1  H18A 2692   0.902   1.116   7.818  2.9641  0.4432  0.0308
   37CHL1  H18B 2693   0.942   1.212   7.665 -0.3613  0.5970 -0.6125
   37CHL1  H18C 2694   0.965   1.279   7.826 -1.5218 -0.3394  2.9179
   37CHL1   C12 2695   0.663   1.167   7.648 -0.2430 -0.1639  0.2835
   37CHL1  H12A 2696   0.683   1.065   7.689  0.3547 -0.1422  0.0590
   37CHL1  H12B 2697   0.553   1.181   7.660 -0.4587 -3.0094  2.8060
   37CHL1   C11 2698   0.709   1.184   7.498  0.3410 -0.1148  0.2590
   37CHL1  H11A 2699   0.812   1.144   7.489  1.1223  1.7340  0.4921
   37CHL1  H11B 2700   0.642   1.118   7.438 -0.4804  0.0231  0.9968
   37CHL1    C9 2701   0.705   1.337   7.458 -0.6836  0.2162  0.1914
   37CHL1    H9 2702   0.602   1.380   7.459 -0.3612  1.1092 -1.0034
   37CHL1   C10 2703   0.747   1.369   7.307 -1.3293 -0.1347  0.1642
   37CHL1   C19 2704   0.883   1.294   7.282  0.2718 -0.0585  0.1491
   37CHL1  H19A 2705   0.951   1.325   7.364 -0.4275  0.9820  0.3468
   37CHL1  H19B 2706   0.874   1.183   7.286  1.0821 -0.1977 -1.2755
   37CHL1  H19C 2707   0.927   1.325   7.185 -1.4264  1.4083 -0.2039
   37CHL1    C1 2708   0.642   1.310   7.217 -0.9151  0.0007  0.4138
   37CHL1   H1A 2709   0.636   1.200   7.228  0.3271 -0.2297 -0.8773
   37CHL1   H1B 2710   0.538   1.345   7.235 -1.7065 -1.6218 -0.7672
   37CHL1    C2 2711   0.659   1.332   7.061  0.7474 -0.0210  0.1731
   37CHL1   H2A 2712   0.571   1.284   7.015  1.5592 -1.0278 -0.3706
   37CHL1   H2B 2713   0.759   1.290   7.036  2.1758  2.3153  1.5323
   37CHL1   C20 2714   0.708   1.164   8.006  0.3312  0.0905  0.5093
   37CHL1   H20 2715   0.815   1.170   8.035  0.6630 -2.9852  0.2848
   37CHL1   C21 2716   0.679   1.024   7.946 -0.3919  0.3025 -0.5130
   37CHL1  H21A 2717   0.581   1.024   7.894 -0.2040 -0.6731 -0.8922
   37CHL1  H21B 2718   0.674   0.946   8.025  4.5833  0.3851  0.2105
   37CHL1  H21C 2719   0.763   0.989   7.881 -0.6238 -2.4385  0.5184
   37CHL1   C22 2720   0.605   1.184   8.116 -0.3637 -0.2689 -0.7134
   37CHL1  H22A 2721   0.604   1.293   8.141  1.7421 -0.3224 -0.1836
   37CHL1  H22B 2722   0.506   1.158   8.074 -1.2747  0.0822  1.1313
   37CHL1   C23 2723   0.616   1.107   8.249  0.6832  0.2437 -0.2196
   37CHL1  H23A 2724   0.603   0.999   8.225  1.0448  0.2106 -0.2634
   37CHL1  H23B 2725   0.712   1.125   8.301  0.7210 -0.9189  0.1287
   37CHL1   C24 2726   0.505   1.152   8.354 -0.9038  0.2714 -0.2379
   37CHL1  H24A 2727   0.523   1.262   8.361 -0.7579  0.1508  1.8384
   37CHL1  H24B 2728   0.404   1.131   8.314 -1.7478  2.0273  0.8484
   37CHL1   C25 2729   0.518   1.096   8.498 -0.0897  0.5922 -0.3064
   37CHL1   H25 2730   0.619   1.101   8.543 -0.7856  1.0018  1.2876
   37CHL1   C26 2731   0.442   1.177   8.601  0.0100 -0.5690  0.3341
   37CHL1  H26A 2732   0.467   1.149   8.706 -3.0636 -1.1577  1.0169
   37CHL1  H26B 2733   0.476   1.282   8.586  2.2152 -1.5030 -1.9783
   37CHL1  H26C 2734   0.333   1.175   8.582  0.3748  1.0519 -2.4354
   37CHL1   C27 2735   0.453   0.955   8.499  0.2188 -0.5808  0.1198
   37CHL1  H27A 2736   0.456   0.920   8.604 -1.2439  0.3013  0.4781
   37CHL1  H27B 2737   0.348   0.958   8.464 -0.2108  2.9414  1.3481
   37CHL1  H27C 2738   0.519   0.898   8.430 -0.5806 -1.2587 -0.0998
   38CHL1    C3 2739   4.600   3.121   6.836  0.0419  0.7295 -0.1992
   38CHL1    H3 2740   4.524   3.051   6.878  2.1717 -0.0028  2.7825
   38CHL1    O3 2741   4.611   3.098   6.699 -0.0169  0.1505 -0.2538
   38CHL1   H3' 2742   4.534   3.135   6.654 -0.4889 -2.5340 -1.8417
   38CHL1    C4 2743   4.573   3.263   6.869 -0.0650 -0.5297 -0.5914
   38CHL1   H4A 2744   4.652   3.336   6.839  0.0626 -0.8110 -0.9419
   38CHL1   H4B 2745   4.483   3.293   6.812 -0.6686 -0.1718  0.5201
   38CHL1    C5 2746   4.562   3.286   7.017  0.4011 -0.2483 -0.8186
   38CHL1    C6 2747   4.450   3.331   7.076  0.6264 -0.1373 -0.8067
   38CHL1    H6 2748   4.358   3.359   7.023  0.4162  1.8872  0.5310
   38CHL1    C7 2749   4.432   3.348   7.226 -0.3048 -0.2583 -0.6756
   38CHL1   H7A 2750   4.382   3.446   7.237 -1.3177 -0.6986 -1.2154
   38CHL1   H7B 2751   4.362   3.267   7.256 -0.8043  0.5746  0.5080
   38CHL1    C8 2752   4.560   3.332   7.315 -0.3282 -0.5376  0.8453
   38CHL1    H8 2753   4.606   3.432   7.307 -1.1407 -0.2365 -0.3964
   38CHL1   C14 2754   4.518   3.306   7.454 -0.2874 -0.3821 -0.0354
   38CHL1   H14 2755   4.451   3.217   7.454 -1.5962  0.5546 -1.3951
   38CHL1   C15 2756   4.427   3.417   7.512 -0.4385  0.4047 -0.0466
   38CHL1  H15A 2757   4.465   3.513   7.471  1.8123  0.0055  0.9433
   38CHL1  H15B 2758   4.320   3.396   7.491 -0.8560  0.8906  1.4681
   38CHL1   C16 2759   4.439   3.396   7.659  0.7982  0.0402  0.3227
   38CHL1  H16A 2760   4.452   3.493   7.711  1.6997 -0.0621  0.3081
   38CHL1  H16B 2761   4.351   3.348   7.705  0.9129  0.4708  1.0003
   38CHL1   C17 2762   4.565   3.302   7.683 -0.2796  0.2374  0.5334
   38CHL1   H17 2763   4.510   3.206   7.692  0.8754 -0.4956 -0.1307
   38CHL1   C13 2764   4.634   3.296   7.550  0.4683  0.3707  0.0058
   38CHL1   C18 2765   4.729   3.410   7.539 -0.2418  0.4215  0.0329
   38CHL1  H18A 2766   4.780   3.410   7.441 -0.3764  1.2371 -0.0438
   38CHL1  H18B 2767   4.674   3.505   7.553 -1.3157 -0.3192  1.0267
   38CHL1  H18C 2768   4.813   3.405   7.612 -0.2097  1.6007  0.0953
   38CHL1   C12 2769   4.703   3.166   7.502 -0.2420  0.3990 -0.7176
   38CHL1  H12A 2770   4.767   3.113   7.575 -0.4839  1.4886  0.3203
   38CHL1  H12B 2771   4.620   3.094   7.487 -1.1387  0.5438  2.7307
   38CHL1   C11 2772   4.761   3.179   7.360 -0.3458  0.3003 -0.5084
   38CHL1  H11A 2773   4.855   3.238   7.356  1.4451 -2.3848 -1.2031
   38CHL1  H11B 2774   4.792   3.082   7.316  1.7279  0.7504 -0.1591
   38CHL1    C9 2775   4.646   3.213   7.258 -0.0239 -0.1984 -0.4333
   38CHL1    H9 2776   4.579   3.126   7.266 -1.1683  0.5302 -1.7617
   38CHL1   C10 2777   4.672   3.225   7.109  0.0123 -0.3066 -0.2708
   38CHL1   C19 2778   4.784   3.333   7.097  0.5343  0.3255  0.3377
   38CHL1  H19A 2779   4.796   3.369   6.993 -0.9652 -0.6083 -0.1891
   38CHL1  H19B 2780   4.762   3.411   7.173 -0.0648 -1.1083  1.6925
   38CHL1  H19C 2781   4.888   3.295   7.110  0.9107  1.5159  0.9847
   38CHL1    C1 2782   4.734   3.096   7.058  0.1682  0.0400 -0.0328
   38CHL1   H1A 2783   4.836   3.096   7.100  0.1179  0.2887  0.0867
   38CHL1   H1B 2784   4.667   3.016   7.095 -0.6630  0.6587 -0.1685
   38CHL1    C2 2785   4.733   3.079   6.903 -0.0125  0.1243  0.3816
   38CHL1   H2A 2786   4.770   2.979   6.869  0.4978  1.1552 -2.3864
   38CHL1   H2B 2787   4.815   3.141   6.860  1.1921  0.3188  2.7712
   38CHL1   C20 2788   4.639   3.320   7.812 -0.0962 -0.0305  0.0179
   38CHL1   H20 2789   4.704   3.410   7.813 -1.8560  1.3501 -1.7317
   38CHL1   C21 2790   4.731   3.203   7.843 -0.1500  0.2327  0.9482
   38CHL1  H21A 2791   4.768   3.203   7.947  0.0948 -3.3984  0.9717
   38CHL1  H21B 2792   4.805   3.198   7.761 -0.5521  3.3891  0.2632
   38CHL1  H21C 2793   4.683   3.106   7.817  2.4413 -0.2893 -2.5873
   38CHL1   C22 2794   4.551   3.359   7.938 -0.4871 -0.6745  0.4554
   38CHL1  H22A 2795   4.494   3.450   7.908  1.9543  0.4988 -0.8892
   38CHL1  H22B 2796   4.479   3.276   7.955  1.0953 -2.7780 -2.4433
   38CHL1   C23 2797   4.624   3.387   8.067  0.5574  0.0689  0.4954
   38CHL1  H23A 2798   4.673   3.296   8.108  0.5048 -0.8647 -1.4230
   38CHL1  H23B 2799   4.704   3.461   8.046  0.4648 -0.1936 -0.8587
   38CHL1   C24 2800   4.531   3.431   8.178  0.1177  0.3666  0.8968
   38CHL1  H24A 2801   4.486   3.523   8.134  1.8578  1.1359  0.6661
   38CHL1  H24B 2802   4.455   3.352   8.197  1.2274 -1.5221 -1.8860
   38CHL1   C25 2803   4.605   3.474   8.304 -0.6570 -0.2454 -0.3722
   38CHL1   H25 2804   4.681   3.553   8.286 -0.9629  0.0340 -0.4414
   38CHL1   C26 2805   4.507   3.524   8.417  0.3465 -0.1641  0.1529
   38CHL1  H26A 2806   4.417   3.460   8.425 -0.3296  0.5951 -1.1608
   38CHL1  H26B 2807   4.566   3.527   8.512  0.6197 -0.2670 -0.0130
   38CHL1  H26C 2808   4.475   3.630   8.403 -2.6830 -1.0003  0.1304
   38CHL1   C27 2809   4.695   3.361   8.361  0.0608 -0.6763 -0.6000
   38CHL1  H27A 2810   4.752   3.398   8.450  0.0453 -2.7650  0.3302
   38CHL1  H27B 2811   4.640   3.272   8.398 -1.1509  0.3226  0.0694
   38CHL1  H27C 2812   4.768   3.324   8.286 -2.5165 -0.0428 -3.6432
   39CHL1    C3 2813   4.984   2.631   6.989 -0.0232 -0.2155 -0.3734
   39CHL1    H3 2814   5.074   2.566   7.003  1.9817  1.7821 -2.8962
   39CHL1    O3 2815   4.973   2.642   6.850 -0.0787 -0.0038 -0.1803
   39CHL1   H3' 2816   5.011   2.725   6.818 -2.2120  1.9167  1.8750
   39CHL1    C4 2817   4.854   2.566   7.042 -0.5231  0.4141 -0.0136
   39CHL1   H4A 2818   4.765   2.624   7.010  1.3812  2.5146 -1.8032
   39CHL1   H4B 2819   4.840   2.466   6.996  0.0376 -0.3800  1.4542
   39CHL1    C5 2820   4.859   2.551   7.192 -0.6584 -0.1284 -0.0640
   39CHL1    C6 2821   4.851   2.438   7.252  0.0817  0.1213 -0.4943
   39CHL1    H6 2822   4.832   2.343   7.200 -1.5354  1.1652 -1.9099
   39CHL1    C7 2823   4.856   2.416   7.403  0.1078  0.5887  0.4227
   39CHL1   H7A 2824   4.785   2.339   7.440  2.4518 -1.5113  0.8391
   39CHL1   H7B 2825   4.952   2.373   7.437 -0.5046 -1.3187 -0.0985
   39CHL1    C8 2826   4.815   2.545   7.483  0.4466  0.1563  0.2408
   39CHL1    H8 2827   4.705   2.560   7.477  0.5126  0.8817  0.7942
   39CHL1   C14 2828   4.854   2.528   7.630  0.7637  0.2616 -0.1507
   39CHL1   H14 2829   4.965   2.526   7.628  0.7974 -2.0460 -2.6133
   39CHL1   C15 2830   4.804   2.413   7.711  0.5014 -0.2252 -0.6822
   39CHL1  H15A 2831   4.695   2.415   7.692  0.6699  2.6378 -1.7700
   39CHL1  H15B 2832   4.855   2.319   7.681 -0.8413 -0.8846 -0.9820
   39CHL1   C16 2833   4.817   2.449   7.855  0.1128  0.5587  0.0331
   39CHL1  H16A 2834   4.724   2.430   7.912 -0.7481 -0.9110 -1.7635
   39CHL1  H16B 2835   4.892   2.384   7.905  0.9092  1.0880 -0.4493
   39CHL1   C17 2836   4.875   2.595   7.864  0.7451  0.0941  0.7618
   39CHL1   H17 2837   4.985   2.585   7.854  0.9814  2.2053  0.6812
   39CHL1   C13 2838   4.825   2.648   7.723 -0.1010 -0.2557  0.2243
   39CHL1   C18 2839   4.673   2.691   7.732 -0.1977  0.5151  0.0913
   39CHL1  H18A 2840   4.640   2.702   7.627 -0.4308 -0.0918  0.0977
   39CHL1  H18B 2841   4.603   2.613   7.769 -0.4694  0.1840 -1.0835
   39CHL1  H18C 2842   4.669   2.778   7.801 -2.3127 -0.2544  1.0289
   39CHL1   C12 2843   4.904   2.768   7.660 -0.6458  0.0650 -0.2414
   39CHL1  H12A 2844   4.893   2.862   7.718  1.4342  1.3054 -1.6927
   39CHL1  H12B 2845   5.012   2.743   7.667 -0.7474 -0.0113  1.3796
   39CHL1   C11 2846   4.866   2.787   7.508 -0.5770 -0.1263  0.1465
   39CHL1  H11A 2847   4.757   2.802   7.496 -0.3879  0.7356 -0.6494
   39CHL1  H11B 2848   4.907   2.878   7.458 -0.3220 -0.7559 -0.8141
   39CHL1    C9 2849   4.896   2.665   7.420  1.0813  0.2927 -0.3678
   39CHL1    H9 2850   5.005   2.648   7.430  1.0774  0.5471  0.1659
   39CHL1   C10 2851   4.874   2.681   7.266 -0.0534 -0.7004 -0.5577
   39CHL1   C19 2852   4.740   2.750   7.243 -0.2195 -0.0107 -0.0548
   39CHL1  H19A 2853   4.733   2.776   7.135  0.7547 -0.9892 -0.3647
   39CHL1  H19B 2854   4.653   2.684   7.267 -0.9384  0.9876  0.1531
   39CHL1  H19C 2855   4.733   2.848   7.294  1.8934  0.0627  0.1582
   39CHL1    C1 2856   4.994   2.765   7.206 -0.5482  0.0714 -0.1008
   39CHL1   H1A 2857   5.000   2.873   7.232  2.9960  0.0769 -0.5479
   39CHL1   H1B 2858   5.087   2.720   7.245 -0.4041 -0.5508 -1.1253
   39CHL1    C2 2859   5.003   2.765   7.054 -0.1845  0.6419  0.4624
   39CHL1   H2A 2860   5.103   2.810   7.034 -0.5638  0.8951 -0.9453
   39CHL1   H2B 2861   4.918   2.821   7.009 -0.8786 -0.5935  0.1960
   39CHL1   C20 2862   4.831   2.668   7.992 -0.5533 -0.5140  0.0456
   39CHL1   H20 2863   4.720   2.676   7.996 -0.4181  1.4931  2.4118
   39CHL1   C21 2864   4.877   2.807   7.999 -0.3394  0.1217 -0.6299
   39CHL1  H21A 2865   4.985   2.801   8.023 -0.7249 -1.9711  0.8730
   39CHL1  H21B 2866   4.821   2.860   8.079 -3.4735 -1.8455 -1.3488
   39CHL1  H21C 2867   4.848   2.861   7.906 -1.1335 -0.0713 -0.5005
   39CHL1   C22 2868   4.889   2.584   8.111  0.4977 -0.8155 -0.1809
   39CHL1  H22A 2869   4.868   2.476   8.100 -2.1400 -0.5195  1.2118
   39CHL1  H22B 2870   4.999   2.597   8.104  0.6427 -2.2590 -0.9662
   39CHL1   C23 2871   4.842   2.637   8.251 -0.6364  0.6086 -0.0598
   39CHL1  H23A 2872   4.877   2.742   8.245 -0.7764  0.8423  2.3509
   39CHL1  H23B 2873   4.732   2.630   8.249 -0.5720 -2.5768  1.1364
   39CHL1   C24 2874   4.908   2.552   8.358  0.3158 -0.1126  0.2590
   39CHL1  H24A 2875   4.872   2.447   8.351 -1.6956  0.5720 -0.4859
   39CHL1  H24B 2876   5.018   2.555   8.341  0.6419 -4.4246  0.5659
   39CHL1   C25 2877   4.890   2.608   8.505 -0.7886 -0.3451  0.0054
   39CHL1   H25 2878   4.943   2.536   8.571 -0.4343  0.4094  0.5513
   39CHL1   C26 2879   4.935   2.754   8.520  0.7761  0.4443  0.2820
   39CHL1  H26A 2880   5.044   2.743   8.500  0.8326 -6.0810  1.8269
   39CHL1  H26B 2881   4.887   2.823   8.447  1.3492  0.8982  0.3275
   39CHL1  H26C 2882   4.932   2.785   8.627  0.5933  0.8915  0.1508
   39CHL1   C27 2883   4.739   2.600   8.532 -0.1230  0.1375 -0.2823
   39CHL1  H27A 2884   4.714   2.492   8.520  0.2116  0.1548 -1.2141
   39CHL1  H27B 2885   4.709   2.630   8.635  2.0369  0.2468  0.3804
   39CHL1  H27C 2886   4.683   2.666   8.463 -0.7891  0.5508  0.6338
   40CHL1    C3 2887   0.008   0.281   6.991 -0.3251  0.7315 -0.1349
   40CHL1    H3 2888   0.107   0.239   7.017 -0.3708  0.4362 -0.4218
   40CHL1    O3 2889   0.000   0.275   6.847 -0.1975  0.2678 -0.6574
   40CHL1   H3' 2890  -0.094   0.263   6.835 -0.2514  0.2252 -0.2014
   40CHL1    C4 2891  -0.107   0.211   7.066 -0.3554 -0.5085  0.4288
   40CHL1   H4A 2892  -0.199   0.262   7.029  0.8444  1.7455  0.3965
   40CHL1   H4B 2893  -0.092   0.106   7.036  2.2882 -0.3472  0.9649
   40CHL1    C5 2894  -0.105   0.231   7.215  0.9649 -0.1121  0.1954
   40CHL1    C6 2895  -0.095   0.124   7.296  0.2461  0.4587 -0.2530
   40CHL1    H6 2896  -0.099   0.024   7.252  0.7509 -0.1442  1.0168
   40CHL1    C7 2897  -0.085   0.126   7.443 -0.5217  0.6411  0.1747
   40CHL1   H7A 2898  -0.154   0.045   7.475 -1.7745  1.4346 -0.4582
   40CHL1   H7B 2899   0.015   0.088   7.472 -0.0039  1.0875 -0.9616
   40CHL1    C8 2900  -0.107   0.269   7.504  0.2411 -0.3157  0.7647
   40CHL1    H8 2901  -0.216   0.288   7.495  0.7143  2.0164 -0.8482
   40CHL1   C14 2902  -0.048   0.288   7.644  0.1412 -0.6861  0.0058
   40CHL1   H14 2903   0.058   0.258   7.634  0.3053 -0.1097 -0.0340
   40CHL1   C15 2904  -0.107   0.196   7.748  0.2833 -1.0675  0.5420
   40CHL1  H15A 2905  -0.217   0.191   7.732  0.3374  0.2273 -0.4747
   40CHL1  H15B 2906  -0.054   0.099   7.738  1.1863 -0.6046  0.8017
   40CHL1   C16 2907  -0.067   0.262   7.884 -0.0896 -0.0631 -0.4991
   40CHL1  H16A 2908  -0.163   0.277   7.938 -0.1581 -0.7289 -0.4228
   40CHL1  H16B 2909  -0.004   0.200   7.951 -1.1850  1.2306  1.8299
   40CHL1   C17 2910  -0.009   0.395   7.858 -0.4641 -0.8641 -0.0965
   40CHL1   H17 2911   0.102   0.384   7.851 -0.1684  1.0060  0.9658
   40CHL1   C13 2912  -0.048   0.433   7.709  1.0797  0.3170  0.4294
   40CHL1   C18 2913  -0.197   0.475   7.715  0.5811  0.5707  0.5779
   40CHL1  H18A 2914  -0.198   0.584   7.737  2.1632  0.7363 -0.0802
   40CHL1  H18B 2915  -0.251   0.477   7.618  2.3063  2.9131 -0.4336
   40CHL1  H18C 2916  -0.250   0.419   7.796  0.1112 -1.8663 -1.3120
   40CHL1   C12 2917   0.032   0.527   7.617  0.1508  0.3720 -0.0885
   40CHL1  H12A 2918   0.031   0.632   7.652  1.7810 -0.4511  2.7891
   40CHL1  H12B 2919   0.138   0.494   7.622  0.7068  1.0227 -4.0722
   40CHL1   C11 2920  -0.024   0.514   7.478  0.0231  0.2067 -0.3490
   40CHL1  H11A 2921  -0.116   0.576   7.469 -1.2621 -1.9570 -4.3800
   40CHL1  H11B 2922   0.044   0.578   7.418  2.9019 -2.7720 -0.5364
   40CHL1    C9 2923  -0.038   0.375   7.416 -0.3584  0.1108  0.2402
   40CHL1    H9 2924   0.068   0.339   7.411 -0.8921 -1.8138  1.4474
   40CHL1   C10 2925  -0.091   0.381   7.275  0.1717  0.3323  0.0122
   40CHL1   C19 2926  -0.235   0.447   7.269 -0.0441  0.1383 -0.2802
   40CHL1  H19A 2927  -0.296   0.381   7.334  1.9199 -2.1063 -0.5496
   40CHL1  H19B 2928  -0.234   0.555   7.294  1.1657  0.2887 -0.8476
   40CHL1  H19C 2929  -0.271   0.454   7.164  0.7999 -0.2372 -0.6080
   40CHL1    C1 2930   0.012   0.451   7.177 -0.0327  0.2695 -0.0817
   40CHL1   H1A 2931   0.024   0.560   7.196  0.7808  0.1189  0.3416
   40CHL1   H1B 2932   0.114   0.407   7.188  0.0064  0.2708 -0.4435
   40CHL1    C2 2933  -0.003   0.431   7.019  0.0526 -0.3881 -0.4318
   40CHL1   H2A 2934   0.073   0.487   6.961 -0.6978  3.1343  1.6725
   40CHL1   H2B 2935  -0.106   0.465   6.992 -0.2503 -1.7878 -1.1009
   40CHL1   C20 2936  -0.026   0.497   7.972  0.5539 -0.3598  0.4062
   40CHL1   H20 2937  -0.136   0.512   7.981  0.5205  2.0274 -2.4823
   40CHL1   C21 2938   0.024   0.640   7.933  0.4413  0.4078 -0.2375
   40CHL1  H21A 2939  -0.017   0.723   7.993  0.9657  0.2401  0.3617
   40CHL1  H21B 2940  -0.017   0.666   7.833  1.9811 -2.2813 -1.7176
   40CHL1  H21C 2941   0.134   0.649   7.921  0.4530  0.7787  0.1494
   40CHL1   C22 2942   0.042   0.454   8.107  1.3317 -0.5613  0.8460
   40CHL1  H22A 2943   0.024   0.346   8.126 -0.1486 -0.4622  0.1674
   40CHL1  H22B 2944   0.148   0.463   8.075  1.2105  0.2822  0.6653
   40CHL1   C23 2945   0.022   0.536   8.233  0.3864 -0.0692  0.1167
   40CHL1  H23A 2946   0.014   0.642   8.201  1.7179 -0.5235 -1.9175
   40CHL1  H23B 2947  -0.076   0.503   8.276  0.4500  0.9984  1.1315
   40CHL1   C24 2948   0.130   0.530   8.355  0.4107  0.4834  0.2941
   40CHL1  H24A 2949   0.143   0.422   8.376  1.6895 -0.1750 -3.0940
   40CHL1  H24B 2950   0.227   0.550   8.305  0.1944  2.8282  0.6931
   40CHL1   C25 2951   0.091   0.609   8.479 -0.0566 -0.1842 -0.1945
   40CHL1   H25 2952   0.077   0.715   8.450  1.3100  0.0463 -0.0957
   40CHL1   C26 2953  -0.047   0.561   8.536  0.2763  0.0158  0.0125
   40CHL1  H26A 2954  -0.039   0.452   8.552  2.4158  0.3434  1.5602
   40CHL1  H26B 2955  -0.080   0.625   8.622 -0.1629  1.3994 -1.1427
   40CHL1  H26C 2956  -0.135   0.577   8.470 -1.6477 -1.0665  2.1377
   40CHL1   C27 2957   0.198   0.596   8.594 -0.1602 -0.7525 -0.2554
   40CHL1  H27A 2958   0.215   0.491   8.625  2.5261 -0.7426 -1.4834
   40CHL1  H27B 2959   0.285   0.655   8.559  0.7725 -1.9816 -0.0569
   40CHL1  H27C 2960   0.162   0.664   8.675  0.6322  3.0735 -2.8492
   41CHL1    C3 2961   0.141   1.423   7.078  0.3082  0.1476  0.3378
   41CHL1    H3 2962   0.080   1.516   7.089 -0.3608 -0.1053 -1.0521
   41CHL1    O3 2963   0.156   1.387   6.945 -0.1832 -0.1625 -0.2197
   41CHL1   H3' 2964   0.221   1.317   6.933  0.1329  0.3646 -1.9572
   41CHL1    C4 2965   0.276   1.460   7.125 -0.3960 -0.4014 -0.2943
   41CHL1   H4A 2966   0.354   1.381   7.116 -0.8798 -0.9165 -0.1053
   41CHL1   H4B 2967   0.308   1.538   7.054 -3.9236  1.5666  0.0631
   41CHL1    C5 2968   0.271   1.512   7.270 -0.0081  0.3876  0.4321
   41CHL1    C6 2969   0.330   1.631   7.312 -0.2046 -0.1163  0.1182
   41CHL1    H6 2970   0.380   1.703   7.246  1.3433 -0.1115  1.2264
   41CHL1    C7 2971   0.333   1.676   7.457 -0.2260  0.2152  0.7504
   41CHL1   H7A 2972   0.435   1.696   7.495 -0.2382  0.5300  0.6251
   41CHL1   H7B 2973   0.264   1.763   7.464 -1.9436 -1.0016 -0.2045
   41CHL1    C8 2974   0.275   1.570   7.561 -0.8126 -0.1978  0.1090
   41CHL1    H8 2975   0.361   1.503   7.583  0.1855  0.9829 -0.0664
   41CHL1   C14 2976   0.250   1.632   7.692  0.2331  0.0603 -0.2334
   41CHL1   H14 2977   0.178   1.716   7.682  0.0256 -0.1494 -0.5240
   41CHL1   C15 2978   0.368   1.700   7.765 -0.0082  0.1856  0.2885
   41CHL1  H15A 2979   0.463   1.646   7.748  0.3080  0.8322 -0.0231
   41CHL1  H15B 2980   0.379   1.802   7.724 -0.5380  0.0204 -0.2762
   41CHL1   C16 2981   0.337   1.700   7.919  0.2319 -0.7450  0.9348
   41CHL1  H16A 2982   0.413   1.632   7.964  0.8783  0.4886  1.7607
   41CHL1  H16B 2983   0.341   1.804   7.958 -1.4753 -0.5547  0.6815
   41CHL1   C17 2984   0.196   1.635   7.933 -0.0061 -0.8658  1.1292
   41CHL1   H17 2985   0.128   1.718   7.904  1.0116 -0.7362 -1.0857
   41CHL1   C13 2986   0.191   1.541   7.802 -0.5116  0.5090 -0.1359
   41CHL1   C18 2987   0.271   1.414   7.831 -1.2120  0.6623  0.1355
   41CHL1  H18A 2988   0.208   1.350   7.895 -0.9712  1.5657  1.3216
   41CHL1  H18B 2989   0.294   1.363   7.735 -2.7839 -1.3489  0.7688
   41CHL1  H18C 2990   0.373   1.431   7.873 -1.2916  1.9886 -0.1392
   41CHL1   C12 2991   0.049   1.497   7.748  0.2547  0.0597  0.1437
   41CHL1  H12A 2992   0.008   1.430   7.826  0.6932 -0.1499  0.1961
   41CHL1  H12B 2993  -0.002   1.594   7.729 -1.5792 -0.9427 -0.2101
   41CHL1   C11 2994   0.069   1.425   7.616  0.5026  0.0974 -0.3719
   41CHL1  H11A 2995   0.102   1.319   7.630  0.2245  0.0862  0.2145
   41CHL1  H11B 2996  -0.032   1.417   7.571  1.1396 -0.3269 -1.8038
   41CHL1    C9 2997   0.158   1.497   7.504 -0.7210 -0.2741  0.5276
   41CHL1    H9 2998   0.091   1.579   7.471  1.0821 -0.0135 -2.8798
   41CHL1   C10 2999   0.197   1.416   7.365  0.1559 -0.2236  0.1398
   41CHL1   C19 3000   0.291   1.300   7.408  0.9530  0.4219 -0.3973
   41CHL1  H19A 3001   0.368   1.331   7.482 -0.8032  0.4562  1.5213
   41CHL1  H19B 3002   0.232   1.218   7.454  0.9748 -0.4261 -1.8381
   41CHL1  H19C 3003   0.337   1.247   7.323  0.7850 -1.8996  0.8828
   41CHL1    C1 3004   0.059   1.370   7.306  0.0672 -0.5439  0.0310
   41CHL1   H1A 3005   0.009   1.295   7.371 -0.9217 -0.2235 -0.3317
   41CHL1   H1B 3006  -0.010   1.458   7.301 -1.3060 -1.6110 -0.6268
   41CHL1    C2 3007   0.068   1.319   7.162  0.0706 -0.0324 -0.2947
   41CHL1   H2A 3008  -0.033   1.291   7.124  0.3721 -2.0986  0.2937
   41CHL1   H2B 3009   0.117   1.220   7.169  1.6714  0.6389 -1.3889
   41CHL1   C20 3010   0.153   1.590   8.071  0.7318 -0.3264  0.4379
   41CHL1   H20 3011   0.057   1.533   8.069 -0.6413  1.8256  1.0415
   41CHL1   C21 3012   0.125   1.714   8.153 -0.6677 -0.4003 -0.3734
   41CHL1  H21A 3013   0.078   1.701   8.253 -0.2780  0.0686 -0.1275
   41CHL1  H21B 3014   0.056   1.788   8.107  0.8853  1.2796 -0.1431
   41CHL1  H21C 3015   0.222   1.768   8.154 -1.8375  1.8000  0.6229
   41CHL1   C22 3016   0.260   1.496   8.148 -0.4446 -0.3082  0.2265
   41CHL1  H22A 3017   0.281   1.404   8.090 -0.7490  0.1978 -0.6926
   41CHL1  H22B 3018   0.349   1.562   8.145  0.7928 -1.9243 -2.7157
   41CHL1   C23 3019   0.207   1.438   8.280 -0.7794 -0.1209 -0.0761
   41CHL1  H23A 3020   0.278   1.372   8.334  0.1675  2.4645  2.1098
   41CHL1  H23B 3021   0.206   1.531   8.342 -0.8245 -0.2232  0.0757
   41CHL1   C24 3022   0.066   1.375   8.274  0.3509 -0.3948  0.4758
   41CHL1  H24A 3023  -0.013   1.445   8.239  0.8213 -0.6819 -1.2805
   41CHL1  H24B 3024   0.075   1.283   8.212  1.2629  1.2499 -1.9981
   41CHL1   C25 3025   0.006   1.345   8.413 -0.2815 -0.1392  0.9126
   41CHL1   H25 3026  -0.101   1.324   8.392 -0.1689  1.7822 -2.0724
   41CHL1   C26 3027   0.075   1.215   8.473 -0.1685  0.2159  0.4287
   41CHL1  H26A 3028   0.052   1.192   8.580  0.3770  0.4511  0.5991
   41CHL1  H26B 3029   0.042   1.127   8.413  0.1660  0.0706  0.4576
   41CHL1  H26C 3030   0.184   1.221   8.456 -0.3333 -0.3876 -1.0129
   41CHL1   C27 3031   0.017   1.457   8.520  0.4793  0.6644 -0.0730
   41CHL1  H27A 3032   0.116   1.484   8.561  1.0412 -0.5667 -0.5907
   41CHL1  H27B 3033  -0.027   1.552   8.482  0.2271  0.8539  0.6583
   41CHL1  H27C 3034  -0.033   1.434   8.617  1.8557  3.5466  1.4714
   42CHL1    C3 3035   1.674   5.164   7.148 -0.0019 -0.4618 -0.3943
   42CHL1    H3 3036   1.785   5.176   7.143 -0.3036  2.3085 -3.3910
   42CHL1    O3 3037   1.637   5.136   7.014  0.4597 -0.2734 -0.3411
   42CHL1   H3' 3038   1.654   5.215   6.962 -1.0183 -0.3203 -0.9506
   42CHL1    C4 3039   1.634   5.052   7.249 -0.5104  0.5004 -1.0143
   42CHL1   H4A 3040   1.525   5.037   7.243 -0.5671  0.7739 -0.7034
   42CHL1   H4B 3041   1.690   4.965   7.207  2.7536  1.2513  1.3379
   42CHL1    C5 3042   1.679   5.085   7.389 -0.2766  0.2809  0.5790
   42CHL1    C6 3043   1.773   5.010   7.449  0.2206 -0.0887 -0.0360
   42CHL1    H6 3044   1.804   4.917   7.399 -2.4994 -0.4494 -1.2601
   42CHL1    C7 3045   1.827   5.040   7.586 -0.5209  0.2268 -0.3208
   42CHL1   H7A 3046   1.811   4.944   7.640 -1.1106 -0.0079 -0.9016
   42CHL1   H7B 3047   1.935   5.062   7.578  0.3758 -3.1042  0.8980
   42CHL1    C8 3048   1.754   5.151   7.663 -0.5661  0.3394  0.4929
   42CHL1    H8 3049   1.668   5.104   7.714 -0.5659  1.4784  1.6094
   42CHL1   C14 3050   1.842   5.190   7.775  0.1209 -0.3076  0.3929
   42CHL1   H14 3051   1.936   5.230   7.730 -0.7908 -0.1551 -1.4663
   42CHL1   C15 3052   1.895   5.091   7.887 -0.3386 -0.4283  0.5762
   42CHL1  H15A 3053   1.815   5.022   7.923 -2.9903  1.7176 -0.8111
   42CHL1  H15B 3054   1.979   5.028   7.849 -1.7149 -1.4135 -0.9975
   42CHL1   C16 3055   1.947   5.190   7.999  0.0006  0.1657  0.5433
   42CHL1  H16A 3056   1.893   5.174   8.095 -0.1076  2.0165  0.8255
   42CHL1  H16B 3057   2.056   5.175   8.016  0.0562  0.6842  0.6516
   42CHL1   C17 3058   1.902   5.339   7.955 -0.6111  0.8698  0.0361
   42CHL1   H17 3059   1.988   5.363   7.889 -0.7215  0.7951 -0.1370
   42CHL1   C13 3060   1.790   5.310   7.854  0.2788 -0.5885 -0.0834
   42CHL1   C18 3061   1.661   5.282   7.922  0.2385 -0.1632  0.3286
   42CHL1  H18A 3062   1.674   5.195   7.990  0.7123  0.4009  0.9799
   42CHL1  H18B 3063   1.612   5.370   7.970  1.5195  1.0641 -0.5509
   42CHL1  H18C 3064   1.586   5.236   7.853 -0.2460 -1.1417  1.4612
   42CHL1   C12 3065   1.770   5.425   7.753  0.4294  0.1498 -0.3578
   42CHL1  H12A 3066   1.732   5.517   7.801 -0.1781  0.4752 -1.4376
   42CHL1  H12B 3067   1.865   5.447   7.700  0.8207  0.2241  0.3621
   42CHL1   C11 3068   1.676   5.396   7.637 -0.2110 -0.8329 -0.8669
   42CHL1  H11A 3069   1.581   5.362   7.683  1.1308 -1.9285  1.2676
   42CHL1  H11B 3070   1.679   5.482   7.568  0.4995  1.1293  1.4884
   42CHL1    C9 3071   1.722   5.268   7.567 -0.0600  0.6408  0.7261
   42CHL1    H9 3072   1.823   5.287   7.523 -0.3112  0.2248 -0.0496
   42CHL1   C10 3073   1.633   5.227   7.440 -0.3780 -0.4181  0.6551
   42CHL1   C19 3074   1.485   5.231   7.491  0.0728  0.2184 -0.2767
   42CHL1  H19A 3075   1.422   5.192   7.408 -0.9848 -1.4246  1.2365
   42CHL1  H19B 3076   1.471   5.152   7.568  1.1098 -1.5064 -1.7589
   42CHL1  H19C 3077   1.440   5.326   7.525 -1.2551 -0.8577  1.1027
   42CHL1    C1 3078   1.647   5.338   7.336 -0.1018  0.1522 -0.0444
   42CHL1   H1A 3079   1.571   5.417   7.350 -0.9849 -0.7702  0.5079
   42CHL1   H1B 3080   1.749   5.378   7.350 -0.4100  1.0174 -0.2140
   42CHL1    C2 3081   1.612   5.293   7.193  0.5234 -0.6255 -0.6645
   42CHL1   H2A 3082   1.628   5.376   7.121 -1.1384  0.4674  0.1817
   42CHL1   H2B 3083   1.502   5.286   7.194  0.4058  0.8125  0.6220
   42CHL1   C20 3084   1.887   5.448   8.063 -0.0224  0.3612 -0.1275
   42CHL1   H20 3085   1.828   5.529   8.016  0.8343  1.1951  0.1762
   42CHL1   C21 3086   2.034   5.495   8.084 -0.2246 -0.5374 -0.0593
   42CHL1  H21A 3087   2.099   5.413   8.119  0.8436  0.7364  1.0454
   42CHL1  H21B 3088   2.047   5.574   8.161 -0.8444  0.6023 -1.0738
   42CHL1  H21C 3089   2.072   5.534   7.987 -0.4528  0.0355  0.0771
   42CHL1   C22 3090   1.833   5.394   8.201  0.0944 -1.3789 -0.4319
   42CHL1  H22A 3091   1.731   5.352   8.189  0.1850 -1.1941 -2.0517
   42CHL1  H22B 3092   1.906   5.325   8.249  0.5431 -0.3431  0.4113
   42CHL1   C23 3093   1.817   5.508   8.310  0.4511  0.3142 -0.2707
   42CHL1  H23A 3094   1.791   5.459   8.407  0.3554 -2.0270 -1.4164
   42CHL1  H23B 3095   1.910   5.569   8.318  0.8155 -0.2088 -0.4875
   42CHL1   C24 3096   1.694   5.599   8.288  0.2879 -0.1701 -0.1593
   42CHL1  H24A 3097   1.724   5.667   8.206 -0.6402 -0.4136 -0.7107
   42CHL1  H24B 3098   1.611   5.532   8.256 -1.7861  2.4329 -0.6298
   42CHL1   C25 3099   1.652   5.682   8.413 -0.2142 -1.0485  0.3242
   42CHL1   H25 3100   1.743   5.684   8.477 -0.8759  1.8417  1.3267
   42CHL1   C26 3101   1.620   5.836   8.375  0.1022 -0.3529 -0.0913
   42CHL1  H26A 3102   1.704   5.895   8.331  1.1199 -0.4528  1.6394
   42CHL1  H26B 3103   1.532   5.841   8.307  0.3696 -3.1815 -0.7690
   42CHL1  H26C 3104   1.594   5.881   8.472  1.9844 -1.9913  1.2545
   42CHL1   C27 3105   1.520   5.627   8.475 -0.3702 -0.3719 -0.1184
   42CHL1  H27A 3106   1.541   5.520   8.500  1.6794 -0.5317 -2.1501
   42CHL1  H27B 3107   1.439   5.632   8.400  0.0674 -1.9054 -0.7493
   42CHL1  H27C 3108   1.494   5.689   8.563  0.9911  0.4295 -0.2420
   43CHL1    C3 3109   1.207   1.824   6.948  0.5144 -0.0791  0.0509
   43CHL1    H3 3110   1.168   1.927   6.959  0.4222 -0.0766 -0.2770
   43CHL1    O3 3111   1.228   1.796   6.810 -0.2475  0.0459  0.2659
   43CHL1   H3' 3112   1.277   1.872   6.778  0.6944 -2.1388 -4.4389
   43CHL1    C4 3113   1.344   1.825   7.016 -0.5388  0.0343  0.1875
   43CHL1   H4A 3114   1.389   1.725   7.001 -1.0745 -0.3351  0.9637
   43CHL1   H4B 3115   1.409   1.905   6.974  2.5349 -1.8680  1.0404
   43CHL1    C5 3116   1.342   1.834   7.168 -0.3862 -0.5005 -0.0754
   43CHL1    C6 3117   1.427   1.913   7.231  0.4422  0.2984 -1.0080
   43CHL1    H6 3118   1.501   1.974   7.176  1.9256 -0.0717  0.4820
   43CHL1    C7 3119   1.425   1.943   7.377  0.3926  0.5633 -1.1419
   43CHL1   H7A 3120   1.529   1.940   7.417  0.4332 -1.0568 -1.2974
   43CHL1   H7B 3121   1.370   2.035   7.405  0.9287  0.0127  2.1017
   43CHL1    C8 3122   1.352   1.828   7.454  0.0552 -0.1852 -0.1091
   43CHL1    H8 3123   1.417   1.738   7.459  0.7649  0.3054 -0.4115
   43CHL1   C14 3124   1.315   1.881   7.600  0.1175  0.4175 -0.4805
   43CHL1   H14 3125   1.247   1.968   7.584  1.6215  1.5115 -1.1655
   43CHL1   C15 3126   1.426   1.951   7.681 -0.1969 -0.0464  0.2303
   43CHL1  H15A 3127   1.521   1.894   7.671 -0.2233 -0.0189 -0.2187
   43CHL1  H15B 3128   1.428   2.056   7.645  1.3851 -0.1861 -0.1305
   43CHL1   C16 3129   1.384   1.933   7.824 -0.4939 -0.2410 -0.2526
   43CHL1  H16A 3130   1.461   1.873   7.877 -0.9728  0.2203  1.0033
   43CHL1  H16B 3131   1.366   2.033   7.870 -0.3732  0.2791 -1.3015
   43CHL1   C17 3132   1.244   1.859   7.816  0.3069  0.1274 -0.1929
   43CHL1   H17 3133   1.170   1.940   7.801 -0.9111 -0.3742  2.5526
   43CHL1   C13 3134   1.250   1.774   7.692  0.7799 -0.1825  0.9242
   43CHL1   C18 3135   1.351   1.652   7.701  0.3684  0.2003  0.3139
   43CHL1  H18A 3136   1.372   1.606   7.602 -2.1260  0.9841 -0.6572
   43CHL1  H18B 3137   1.447   1.681   7.750 -0.4552 -2.6128  4.0414
   43CHL1  H18C 3138   1.308   1.571   7.764 -0.3923  0.0960 -0.3278
   43CHL1   C12 3139   1.123   1.729   7.629  0.8395 -0.2285 -0.1943
   43CHL1  H12A 3140   1.071   1.647   7.682 -0.4354  0.5152 -0.2506
   43CHL1  H12B 3141   1.054   1.816   7.619 -2.8440 -2.9030  0.0080
   43CHL1   C11 3142   1.134   1.685   7.484  0.6671 -0.5562 -0.0932
   43CHL1  H11A 3143   1.191   1.590   7.476 -1.6060 -1.9268 -0.6825
   43CHL1  H11B 3144   1.033   1.679   7.439  0.7415  0.5017 -0.4193
   43CHL1    C9 3145   1.222   1.778   7.387  0.3056 -0.2884  0.2342
   43CHL1    H9 3146   1.166   1.874   7.386 -1.5580 -1.3034  1.7232
   43CHL1   C10 3147   1.235   1.746   7.241  0.1446  0.5089  0.9598
   43CHL1   C19 3148   1.290   1.601   7.226 -0.3027  0.6236 -0.5424
   43CHL1  H19A 3149   1.317   1.572   7.122 -1.4286  0.2446 -0.7471
   43CHL1  H19B 3150   1.387   1.595   7.279 -0.2391 -2.6964 -0.7794
   43CHL1  H19C 3151   1.220   1.526   7.268  0.3384  1.2870  1.8605
   43CHL1    C1 3152   1.097   1.753   7.161 -0.0923 -0.2458  0.2925
   43CHL1   H1A 3153   1.021   1.679   7.196  1.8206 -1.3666  2.2889
   43CHL1   H1B 3154   1.062   1.856   7.182  0.6404  0.4225 -1.6249
   43CHL1    C2 3155   1.105   1.734   7.011 -0.2994  0.4991 -0.8416
   43CHL1   H2A 3156   1.002   1.746   6.973 -1.4002  0.0034  1.8114
   43CHL1   H2B 3157   1.131   1.630   6.979  0.6602  0.5960 -0.4298
   43CHL1   C20 3158   1.204   1.797   7.957 -0.2610 -0.5587 -0.0344
   43CHL1   H20 3159   1.259   1.700   7.956 -1.1256 -1.0911  1.2957
   43CHL1   C21 3160   1.062   1.748   7.961 -0.0892  0.1797  0.3265
   43CHL1  H21A 3161   1.033   1.722   8.065  1.3414  0.6533  0.8683
   43CHL1  H21B 3162   1.045   1.663   7.891  0.0560 -0.0087  0.5231
   43CHL1  H21C 3163   0.987   1.822   7.925 -0.3167  0.7129  1.8285
   43CHL1   C22 3164   1.244   1.887   8.079 -0.4196  0.4456 -0.3036
   43CHL1  H22A 3165   1.354   1.903   8.081  0.1803 -2.9948  1.0492
   43CHL1  H22B 3166   1.202   1.990   8.078  1.5503  1.2960 -0.2052
   43CHL1   C23 3167   1.213   1.821   8.219  0.0082 -0.2373 -0.3708
   43CHL1  H23A 3168   1.104   1.802   8.227  0.0069  0.3580  1.6057
   43CHL1  H23B 3169   1.277   1.730   8.229  2.1347  1.1243 -1.0144
   43CHL1   C24 3170   1.252   1.902   8.340 -0.7926  0.0440  0.0144
   43CHL1  H24A 3171   1.359   1.928   8.330 -0.2999 -0.0576  3.7764
   43CHL1  H24B 3172   1.191   1.994   8.347  1.1132  1.2892  1.1911
   43CHL1   C25 3173   1.230   1.832   8.475 -0.6415  0.1747 -0.5254
   43CHL1   H25 3174   1.121   1.823   8.489 -0.7260  0.6807 -0.8206
   43CHL1   C26 3175   1.314   1.701   8.491  0.4595  1.3957 -0.4035
   43CHL1  H26A 3176   1.294   1.662   8.593  0.3830 -1.3482 -1.3962
   43CHL1  H26B 3177   1.276   1.625   8.420 -2.4930 -1.3395  3.6706
   43CHL1  H26C 3178   1.423   1.721   8.479  1.0280 -0.7633  0.7386
   43CHL1   C27 3179   1.270   1.934   8.585  0.0427 -0.0785  0.2714
   43CHL1  H27A 3180   1.226   2.032   8.559  3.0038  1.7186  1.5176
   43CHL1  H27B 3181   1.248   1.892   8.686  0.0677 -0.0468  0.2897
   43CHL1  H27C 3182   1.379   1.956   8.583  0.0969 -0.3507 -1.8265
   44CHL1    C3 3183   1.766   1.442   6.915  0.2015 -0.3419  0.1551
   44CHL1    H3 3184   1.834   1.354   6.925  1.5867  0.7886  1.0854
   44CHL1    O3 3185   1.716   1.443   6.779 -0.6590  0.3960 -0.8655
   44CHL1   H3' 3186   1.648   1.510   6.767  0.8137  1.8901 -1.2146
   44CHL1    C4 3187   1.643   1.426   7.006  0.1996 -0.4697  0.4958
   44CHL1   H4A 3188   1.563   1.493   6.969  1.2567 -0.0688 -1.1684
   44CHL1   H4B 3189   1.604   1.323   6.988 -3.0205  1.1539 -3.2060
   44CHL1    C5 3190   1.674   1.441   7.152 -0.5464  0.8267 -0.9779
   44CHL1    C6 3191   1.636   1.352   7.246  1.1020 -0.6847  0.0000
   44CHL1    H6 3192   1.559   1.281   7.213 -2.1878  2.8246 -0.7432
   44CHL1    C7 3193   1.671   1.364   7.392  0.1832  0.6645 -0.2870
   44CHL1   H7A 3194   1.589   1.348   7.466 -0.1439  0.8723 -0.6001
   44CHL1   H7B 3195   1.740   1.278   7.403 -0.7945  0.1084  2.4053
   44CHL1    C8 3196   1.737   1.493   7.443  0.5537 -0.5772 -0.0802
   44CHL1    H8 3197   1.660   1.572   7.450  0.6884 -0.4186 -0.3703
   44CHL1   C14 3198   1.823   1.470   7.564  0.4629 -0.5153  0.6300
   44CHL1   H14 3199   1.901   1.404   7.521 -1.5644 -1.9938 -1.0295
   44CHL1   C15 3200   1.758   1.399   7.687 -0.0771  0.4879  0.2030
   44CHL1  H15A 3201   1.651   1.425   7.693  0.2395  1.9682 -0.1356
   44CHL1  H15B 3202   1.774   1.289   7.683 -2.7905 -0.1020  2.6440
   44CHL1   C16 3203   1.837   1.461   7.805  0.4506 -0.1258  0.1305
   44CHL1  H16A 3204   1.772   1.525   7.868 -0.8269  0.5674 -1.7927
   44CHL1  H16B 3205   1.868   1.379   7.873 -4.9885 -0.1197  3.1793
   44CHL1   C17 3206   1.954   1.547   7.747 -0.0246 -0.0521 -0.1567
   44CHL1   H17 3207   2.037   1.481   7.713 -1.1012 -1.4791 -0.1313
   44CHL1   C13 3208   1.890   1.597   7.621 -0.2671 -0.3360 -0.1442
   44CHL1   C18 3209   1.780   1.699   7.669 -0.2244  0.3296 -0.3727
   44CHL1  H18A 3210   1.743   1.700   7.773  0.6055  1.3033 -0.0621
   44CHL1  H18B 3211   1.832   1.796   7.653 -0.4282  0.5125  0.0661
   44CHL1  H18C 3212   1.699   1.701   7.593  0.2250 -0.3919 -0.8853
   44CHL1   C12 3213   1.986   1.652   7.513 -0.1340 -0.3269 -0.4442
   44CHL1  H12A 3214   2.009   1.757   7.542 -2.3775  0.1545 -0.2795
   44CHL1  H12B 3215   2.075   1.585   7.508 -0.3743 -0.8243  1.2944
   44CHL1   C11 3216   1.906   1.668   7.376  0.1128 -0.1939 -0.3014
   44CHL1  H11A 3217   1.840   1.757   7.388  3.4249  2.2273  1.6519
   44CHL1  H11B 3218   1.985   1.699   7.305  1.5085  0.5045  1.4902
   44CHL1    C9 3219   1.835   1.539   7.332 -0.2235  0.0995  0.0290
   44CHL1    H9 3220   1.920   1.467   7.327  0.0534  0.4926 -3.4051
   44CHL1   C10 3221   1.761   1.555   7.189 -0.2226 -0.6200  0.0261
   44CHL1   C19 3222   1.678   1.683   7.187 -0.1981 -0.7946 -0.6484
   44CHL1  H19A 3223   1.738   1.775   7.202 -0.6241 -0.5299 -0.5535
   44CHL1  H19B 3224   1.624   1.700   7.091 -1.4859  0.5192  0.2700
   44CHL1  H19C 3225   1.607   1.676   7.272 -0.3128  1.3282 -0.5165
   44CHL1    C1 3226   1.876   1.580   7.091 -0.0346 -0.2568 -0.4091
   44CHL1   H1A 3227   1.925   1.679   7.103 -1.0857  0.4785 -1.9100
   44CHL1   H1B 3228   1.960   1.510   7.114  0.3889 -0.9614 -3.6185
   44CHL1    C2 3229   1.839   1.572   6.949 -0.3033  0.3266  0.2075
   44CHL1   H2A 3230   1.926   1.583   6.881 -0.7920 -0.0368 -0.4984
   44CHL1   H2B 3231   1.776   1.656   6.914  1.4949  0.7319 -2.3813
   44CHL1   C20 3232   2.005   1.641   7.853  0.7832 -0.9017  0.3137
   44CHL1   H20 3233   1.926   1.703   7.901  1.0022  1.4278 -2.0807
   44CHL1   C21 3234   2.113   1.738   7.798  0.3348  0.0956 -0.9831
   44CHL1  H21A 3235   2.182   1.766   7.880 -1.4690  0.5038  0.4724
   44CHL1  H21B 3236   2.066   1.831   7.760 -1.0277  0.8265  2.1158
   44CHL1  H21C 3237   2.189   1.699   7.728  0.6409 -1.4546  0.1539
   44CHL1   C22 3238   2.070   1.557   7.970  0.5944 -0.6404  0.0375
   44CHL1  H22A 3239   2.016   1.467   8.005 -3.6657  2.0168  1.2041
   44CHL1  H22B 3240   2.169   1.524   7.932 -0.0026 -2.4694  0.0012
   44CHL1   C23 3241   2.091   1.651   8.092 -0.2121  0.4694  0.0314
   44CHL1  H23A 3242   2.187   1.707   8.080  1.6752 -2.6460 -0.5017
   44CHL1  H23B 3243   2.002   1.717   8.097 -0.7618 -0.3642  1.7581
   44CHL1   C24 3244   2.104   1.569   8.228  0.5097 -0.2862 -0.4015
   44CHL1  H24A 3245   2.006   1.518   8.241 -0.7068  2.1187  0.3575
   44CHL1  H24B 3246   2.190   1.499   8.218  0.7460 -0.2176  1.0748
   44CHL1   C25 3247   2.126   1.664   8.345  0.6034  0.1393  0.3223
   44CHL1   H25 3248   2.051   1.745   8.332  1.2418  0.3174 -3.1952
   44CHL1   C26 3249   2.101   1.593   8.479 -0.0146  0.3470  0.5033
   44CHL1  H26A 3250   2.165   1.503   8.493 -0.0651 -0.0752 -1.5803
   44CHL1  H26B 3251   2.112   1.663   8.564  2.3961  1.0400 -0.2943
   44CHL1  H26C 3252   1.995   1.560   8.476  0.5554 -1.5651 -1.1114
   44CHL1   C27 3253   2.264   1.726   8.352 -0.3164  0.5625 -0.1556
   44CHL1  H27A 3254   2.349   1.658   8.378 -0.0326  0.6227 -0.9112
   44CHL1  H27B 3255   2.289   1.760   8.250  0.1280 -0.2703 -0.3369
   44CHL1  H27C 3256   2.262   1.809   8.426  0.1635 -0.8364  1.4978
   45CHL1    C3 3257   3.255   6.525   6.777  0.0408  0.0510  0.1098
   45CHL1    H3 3258   3.145   6.537   6.781  0.1913  2.7530 -1.1795
   45CHL1    O3 3259   3.300   6.491   6.643  0.4775 -0.2448  0.0672
   45CHL1   H3' 3260   3.395   6.504   6.634  0.2241  0.4506 -2.4044
   45CHL1    C4 3261   3.312   6.660   6.822  0.6627  0.4379  0.4971
   45CHL1   H4A 3262   3.423   6.659   6.818  0.6557  2.0855 -1.2625
   45CHL1   H4B 3263   3.274   6.729   6.744 -1.3106  0.5718  1.5273
   45CHL1    C5 3264   3.262   6.694   6.959 -0.5624 -0.5126  0.4427
   45CHL1    C6 3265   3.185   6.803   6.977 -0.5575 -0.1808 -0.3540
   45CHL1    H6 3266   3.171   6.871   6.891 -0.5596 -0.0067 -0.2156
   45CHL1    C7 3267   3.125   6.834   7.111  0.1952 -0.5539  0.8322
   45CHL1   H7A 3268   3.143   6.940   7.140  0.7652  0.4169 -2.6684
   45CHL1   H7B 3269   3.015   6.820   7.100  0.3777  0.1866 -3.6278
   45CHL1    C8 3270   3.181   6.755   7.230 -0.4582 -0.1698  0.5343
   45CHL1    H8 3271   3.282   6.793   7.254 -1.6960  1.8334  3.0046
   45CHL1   C14 3272   3.089   6.755   7.352  0.0514 -0.3089  0.1997
   45CHL1   H14 3273   3.006   6.683   7.334  0.8369 -1.2932  0.4504
   45CHL1   C15 3274   3.020   6.890   7.382 -0.2093 -0.6141  0.6274
   45CHL1  H15A 3275   3.107   6.959   7.376 -0.6475 -0.1806 -2.5059
   45CHL1  H15B 3276   2.946   6.935   7.311  1.3848 -0.9223 -1.3273
   45CHL1   C16 3277   2.981   6.875   7.530 -0.4048  0.0291 -0.1666
   45CHL1  H16A 3278   3.024   6.960   7.586 -0.0665 -0.3350  0.1252
   45CHL1  H16B 3279   2.870   6.873   7.544 -0.1361 -0.3196  2.3487
   45CHL1   C17 3280   3.045   6.741   7.582  0.5202  0.4421  0.2422
   45CHL1   H17 3281   2.975   6.657   7.567  0.6232  0.4602 -0.3758
   45CHL1   C13 3282   3.153   6.708   7.478  0.0351 -0.5117  0.0824
   45CHL1   C18 3283   3.270   6.804   7.512 -0.6275 -0.3778 -0.1083
   45CHL1  H18A 3284   3.240   6.909   7.531 -1.1775 -0.6428  0.5583
   45CHL1  H18B 3285   3.322   6.760   7.600  1.0497  2.6089  0.5240
   45CHL1  H18C 3286   3.347   6.797   7.433 -1.4537  0.1112 -0.9668
   45CHL1   C12 3287   3.190   6.560   7.450 -0.7551  0.5805 -0.1146
   45CHL1  H12A 3288   3.248   6.523   7.538  0.5807 -1.3199 -1.7037
   45CHL1  H12B 3289   3.092   6.508   7.441  0.8005 -2.7716  0.6141
   45CHL1   C11 3290   3.258   6.542   7.315 -0.1919 -0.3593  0.2353
   45CHL1  H11A 3291   3.362   6.577   7.333  0.3146 -2.8483  2.8096
   45CHL1  H11B 3292   3.259   6.433   7.294 -0.4234 -0.2904 -0.1313
   45CHL1    C9 3293   3.198   6.614   7.189 -0.2083  0.7626  0.1644
   45CHL1    H9 3294   3.096   6.572   7.172  1.5463 -2.5752 -3.5578
   45CHL1   C10 3295   3.271   6.581   7.068 -0.4580 -0.1974  0.4477
   45CHL1   C19 3296   3.425   6.585   7.094 -0.0005 -0.4084 -0.4955
   45CHL1  H19A 3297   3.487   6.565   7.005 -0.6466 -1.7416 -0.6720
   45CHL1  H19B 3298   3.458   6.682   7.138 -1.5599  0.2797 -0.7826
   45CHL1  H19C 3299   3.446   6.500   7.162 -1.6339 -0.7261 -0.3368
   45CHL1    C1 3300   3.237   6.440   7.012  0.7808  0.3740 -0.2656
   45CHL1   H1A 3301   3.279   6.365   7.083 -0.8954 -0.8275 -0.4847
   45CHL1   H1B 3302   3.127   6.426   7.012  0.6527  1.1945  1.1307
   45CHL1    C2 3303   3.292   6.406   6.870  0.0940 -0.7092 -0.1597
   45CHL1   H2A 3304   3.259   6.307   6.831  1.6319 -1.0202 -0.7180
   45CHL1   H2B 3305   3.402   6.401   6.874  0.3779  1.6415 -2.2039
   45CHL1   C20 3306   3.075   6.752   7.728  0.0396  0.0668  0.2623
   45CHL1   H20 3307   3.147   6.835   7.748 -1.6184  2.4699 -2.7588
   45CHL1   C21 3308   3.141   6.618   7.769  0.2499  0.1116  0.5509
   45CHL1  H21A 3309   3.247   6.617   7.735 -0.3387  1.6919 -1.5315
   45CHL1  H21B 3310   3.078   6.531   7.741  1.2780 -1.1613  2.0450
   45CHL1  H21C 3311   3.141   6.614   7.880  1.6193 -0.9186  0.5326
   45CHL1   C22 3312   2.940   6.782   7.796 -0.3821 -0.4527 -0.9322
   45CHL1  H22A 3313   2.895   6.875   7.755  0.4182 -0.4714 -1.8779
   45CHL1  H22B 3314   2.861   6.706   7.778 -0.9110 -0.3023  0.6051
   45CHL1   C23 3315   2.956   6.803   7.945 -0.5790  0.5025 -0.1874
   45CHL1  H23A 3316   2.968   6.700   7.987  2.0459  0.5785 -0.6202
   45CHL1  H23B 3317   3.047   6.862   7.969 -0.6996  1.1068 -1.1925
   45CHL1   C24 3318   2.834   6.873   8.007 -0.0294  0.5387  0.5290
   45CHL1  H24A 3319   2.832   6.965   7.946  1.8477  0.4756  0.3117
   45CHL1  H24B 3320   2.746   6.810   7.985  1.4306 -1.5979  0.4544
   45CHL1   C25 3321   2.846   6.909   8.160  0.7672 -0.2267 -0.0926
   45CHL1   H25 3322   2.747   6.947   8.193 -0.2254 -1.6477 -1.2740
   45CHL1   C26 3323   2.854   6.779   8.240 -0.1666 -0.0049 -0.0698
   45CHL1  H26A 3324   2.790   6.695   8.207  0.7736 -0.6691 -0.2410
   45CHL1  H26B 3325   2.956   6.737   8.230 -0.2971 -0.2753 -0.2609
   45CHL1  H26C 3326   2.842   6.795   8.349  2.2267  1.4554  0.0616
   45CHL1   C27 3327   2.953   7.003   8.200  0.6298  0.6236  0.3636
   45CHL1  H27A 3328   3.051   6.952   8.201 -0.3446 -1.3775 -0.3003
   45CHL1  H27B 3329   2.966   7.096   8.141  0.1740  0.6082  0.2358
   45CHL1  H27C 3330   2.943   7.034   8.307  2.1024  1.1957  0.3590
   46CHL1    C3 3331   2.854   0.659   7.129 -0.6624 -0.7669  0.0520
   46CHL1    H3 3332   2.948   0.705   7.167 -2.0175  2.0162  0.2392
   46CHL1    O3 3333   2.841   0.644   6.992 -0.2869 -0.1675 -0.8585
   46CHL1   H3' 3334   2.898   0.568   6.977  0.5397  0.0843  0.7500
   46CHL1    C4 3335   2.824   0.523   7.199 -0.3336 -0.0000  0.1236
   46CHL1   H4A 3336   2.723   0.505   7.156  0.5344  1.1600 -2.5688
   46CHL1   H4B 3337   2.899   0.450   7.164 -0.9726 -0.8614  0.5092
   46CHL1    C5 3338   2.805   0.540   7.352 -0.1819  0.1826  0.2020
   46CHL1    C6 3339   2.881   0.462   7.435 -0.0558 -0.0221 -0.7152
   46CHL1    H6 3340   2.944   0.384   7.389  0.0451 -0.5598  0.2978
   46CHL1    C7 3341   2.862   0.457   7.582  0.6923 -0.1808 -0.2823
   46CHL1   H7A 3342   2.844   0.348   7.592  0.6023 -0.1736 -0.3682
   46CHL1   H7B 3343   2.950   0.492   7.640  1.7624  2.2093 -3.0837
   46CHL1    C8 3344   2.727   0.532   7.629 -0.2956 -0.3290  0.4187
   46CHL1    H8 3345   2.642   0.463   7.607 -1.1154  0.6529  0.4598
   46CHL1   C14 3346   2.724   0.563   7.781 -0.0815 -0.1453  0.6970
   46CHL1   H14 3347   2.805   0.636   7.802  0.3449 -0.4038 -0.0350
   46CHL1   C15 3348   2.742   0.453   7.882 -0.2385  1.0577 -0.0893
   46CHL1  H15A 3349   2.668   0.370   7.873  0.4806  0.4894 -0.9006
   46CHL1  H15B 3350   2.844   0.410   7.883 -0.8318 -0.6094 -2.2723
   46CHL1   C16 3351   2.705   0.513   8.012  0.5851  0.0865 -0.4679
   46CHL1  H16A 3352   2.624   0.452   8.057  2.7060 -1.5308  1.3813
   46CHL1  H16B 3353   2.787   0.518   8.087 -1.2133 -0.3905  1.6507
   46CHL1   C17 3354   2.640   0.655   7.983  0.1313  0.0358 -0.4586
   46CHL1   H17 3355   2.719   0.733   7.991 -1.4710  1.8477 -1.3194
   46CHL1   C13 3356   2.603   0.637   7.837 -0.0537  0.6710 -0.0274
   46CHL1   C18 3357   2.478   0.542   7.831 -0.1935 -0.2679 -0.1342
   46CHL1  H18A 3358   2.386   0.603   7.839  0.3730  0.4734  0.8342
   46CHL1  H18B 3359   2.466   0.496   7.730  0.6589 -0.9581  0.0613
   46CHL1  H18C 3360   2.477   0.450   7.893 -1.3600 -0.3967 -0.3119
   46CHL1   C12 3361   2.579   0.762   7.759  0.6851 -0.4490  1.3595
   46CHL1  H12A 3362   2.489   0.814   7.797  0.6621  0.7920 -0.2849
   46CHL1  H12B 3363   2.664   0.830   7.782 -1.3385  2.7200  0.1048
   46CHL1   C11 3364   2.576   0.738   7.607  0.0106 -0.2397  0.4382
   46CHL1  H11A 3365   2.480   0.686   7.589 -0.3149  1.0868 -2.1993
   46CHL1  H11B 3366   2.567   0.830   7.545  1.0309 -0.6341 -0.3277
   46CHL1    C9 3367   2.705   0.662   7.556 -0.3406 -0.3264 -0.4672
   46CHL1    H9 3368   2.786   0.731   7.589  1.4911 -1.8524 -1.5233
   46CHL1   C10 3369   2.701   0.640   7.402  0.3112 -0.2756  0.1400
   46CHL1   C19 3370   2.563   0.585   7.370 -0.3083 -0.0767  0.2770
   46CHL1  H19A 3371   2.484   0.657   7.401  0.8929  1.9052 -1.0374
   46CHL1  H19B 3372   2.553   0.593   7.259 -1.3970  0.6259  0.4091
   46CHL1  H19C 3373   2.566   0.482   7.410  4.5010 -0.6479 -0.9337
   46CHL1    C1 3374   2.733   0.777   7.326 -0.5743  0.3478  0.2963
   46CHL1   H1A 3375   2.662   0.856   7.359  0.6087  1.1455  0.9754
   46CHL1   H1B 3376   2.828   0.806   7.374  0.7163 -2.4665 -0.3237
   46CHL1    C2 3377   2.747   0.764   7.174 -0.2012 -0.1926  0.6298
   46CHL1   H2A 3378   2.777   0.862   7.131  0.0345  0.1263  1.4890
   46CHL1   H2B 3379   2.653   0.740   7.118 -0.3764  1.9042 -0.0465
   46CHL1   C20 3380   2.534   0.686   8.089  0.2329 -0.4218 -0.4577
   46CHL1   H20 3381   2.445   0.624   8.062 -1.6331  1.2251  1.5552
   46CHL1   C21 3382   2.490   0.835   8.072  0.0144  0.9710 -0.1619
   46CHL1  H21A 3383   2.418   0.834   7.987 -1.2863  1.2151  0.8916
   46CHL1  H21B 3384   2.583   0.894   8.054  0.1339  0.7502 -0.2664
   46CHL1  H21C 3385   2.433   0.882   8.155  0.3303 -0.4452  0.8956
   46CHL1   C22 3386   2.571   0.659   8.235 -0.0819 -0.2974  0.2158
   46CHL1  H22A 3387   2.486   0.704   8.290 -0.6253 -0.6712 -0.3031
   46CHL1  H22B 3388   2.592   0.553   8.257 -0.8206 -0.2748  1.0514
   46CHL1   C23 3389   2.697   0.731   8.282  0.3840 -0.4118  0.7110
   46CHL1  H23A 3390   2.787   0.677   8.246  0.8001  0.2216  0.7810
   46CHL1  H23B 3391   2.702   0.839   8.255 -3.7558 -0.7503 -2.3144
   46CHL1   C24 3392   2.703   0.729   8.435 -0.0266  0.3618  0.1919
   46CHL1  H24A 3393   2.602   0.767   8.463 -1.7641 -3.0056 -0.9286
   46CHL1  H24B 3394   2.714   0.624   8.470 -0.4866  0.7262  1.4765
   46CHL1   C25 3395   2.825   0.818   8.488  1.0593  0.6767  0.2660
   46CHL1   H25 3396   2.830   0.910   8.427 -1.6328  0.9301  0.3389
   46CHL1   C26 3397   2.799   0.862   8.636 -1.1249  0.1134  0.2195
   46CHL1  H26A 3398   2.809   0.778   8.709  1.7259  0.4429  0.3211
   46CHL1  H26B 3399   2.882   0.931   8.660 -2.5114  2.1635 -0.6237
   46CHL1  H26C 3400   2.699   0.911   8.639 -1.4358 -0.1546 -2.7540
   46CHL1   C27 3401   2.958   0.741   8.468 -0.8223  0.1744  0.2810
   46CHL1  H27A 3402   3.044   0.796   8.511 -0.3000  1.6650 -2.5182
   46CHL1  H27B 3403   2.950   0.639   8.513 -0.9775 -0.2127 -0.5974
   46CHL1  H27C 3404   2.981   0.743   8.360  0.7187 -0.4095  0.5689
   47CHL1    C3 3405   2.005   0.937   6.782  0.2984  0.6775 -0.5939
   47CHL1    H3 3406   2.108   0.911   6.813 -0.0147  0.8553  0.6919
   47CHL1    O3 3407   2.014   0.963   6.642  0.1584 -0.1786 -0.8923
   47CHL1   H3' 3408   2.072   1.039   6.636 -0.7583  0.6785  0.5879
   47CHL1    C4 3409   1.898   0.823   6.805 -0.3671 -0.0464  0.0621
   47CHL1   H4A 3410   1.812   0.857   6.744 -0.8113 -1.0865  0.0997
   47CHL1   H4B 3411   1.932   0.731   6.752  3.0036  2.0944 -1.9174
   47CHL1    C5 3412   1.867   0.807   6.956  0.3558  0.0852  0.9929
   47CHL1    C6 3413   1.873   0.688   7.014 -0.2489 -0.8566 -0.0584
   47CHL1    H6 3414   1.896   0.601   6.951  1.7452 -1.5093  1.4832
   47CHL1    C7 3415   1.853   0.657   7.159 -0.8875 -0.3109 -0.7048
   47CHL1   H7A 3416   1.800   0.560   7.172  0.4620 -0.7416  2.6960
   47CHL1   H7B 3417   1.946   0.637   7.216 -3.1872 -1.2515  3.0979
   47CHL1    C8 3418   1.769   0.769   7.219  1.0203 -0.0699 -0.6059
   47CHL1    H8 3419   1.664   0.774   7.182  0.6193 -2.9268 -0.0664
   47CHL1   C14 3420   1.775   0.752   7.366 -1.1087 -0.6143  0.3735
   47CHL1   H14 3421   1.882   0.752   7.394 -0.7433  0.3022 -0.9397
   47CHL1   C15 3422   1.719   0.625   7.432  0.6020  0.1038  0.8086
   47CHL1  H15A 3423   1.614   0.608   7.399  0.9734  1.7501 -1.5267
   47CHL1  H15B 3424   1.773   0.530   7.412  0.2258  0.2976 -1.3773
   47CHL1   C16 3425   1.721   0.664   7.581 -0.3304  0.2379 -0.1778
   47CHL1  H16A 3426   1.628   0.619   7.622 -1.4031  1.6460 -0.9759
   47CHL1  H16B 3427   1.803   0.612   7.634 -1.6907 -1.0993  0.6860
   47CHL1   C17 3428   1.725   0.816   7.591 -0.7483  0.6788 -0.1775
   47CHL1   H17 3429   1.830   0.838   7.619 -0.2693 -0.8902 -0.6515
   47CHL1   C13 3430   1.716   0.871   7.450  0.1769  0.2510  0.0854
   47CHL1   C18 3431   1.570   0.905   7.414  0.8544  0.0965 -0.1023
   47CHL1  H18A 3432   1.545   0.922   7.307  1.9454 -1.3207 -0.6176
   47CHL1  H18B 3433   1.505   0.827   7.459  1.0197  0.1262  0.1882
   47CHL1  H18C 3434   1.533   0.997   7.464 -4.4491 -1.4233 -0.5503
   47CHL1   C12 3435   1.801   0.985   7.420  0.6797 -0.0791  0.0239
   47CHL1  H12A 3436   1.776   1.076   7.478 -1.1870 -2.7037  3.7575
   47CHL1  H12B 3437   1.905   0.956   7.446  0.7037 -1.2530 -1.3131
   47CHL1   C11 3438   1.793   1.028   7.271 -0.2275 -0.0919 -0.7364
   47CHL1  H11A 3439   1.690   1.064   7.254 -0.2533 -0.3337 -1.0996
   47CHL1  H11B 3440   1.864   1.114   7.268  1.8111 -1.6319  0.5802
   47CHL1    C9 3441   1.836   0.907   7.182  0.0859  0.0530  0.4254
   47CHL1    H9 3442   1.943   0.890   7.206  0.5036  1.1152 -0.5598
   47CHL1   C10 3443   1.828   0.936   7.026  0.1642 -0.3135 -0.3474
   47CHL1   C19 3444   1.691   0.989   6.984  0.2754 -0.0711 -0.1737
   47CHL1  H19A 3445   1.612   0.922   7.024 -0.8975  0.9779 -0.6826
   47CHL1  H19B 3446   1.672   1.091   7.022 -1.2308 -0.6363  0.6933
   47CHL1  H19C 3447   1.681   0.992   6.874 -0.6683 -0.7505 -0.1184
   47CHL1    C1 3448   1.933   1.044   6.999 -0.7979  0.8798 -0.9483
   47CHL1   H1A 3449   1.899   1.146   7.030  2.1864  2.2985 -2.0064
   47CHL1   H1B 3450   2.030   1.009   7.039 -1.3839 -0.4933 -0.6588
   47CHL1    C2 3451   1.974   1.072   6.850 -0.0224  0.4385 -0.4472
   47CHL1   H2A 3452   2.067   1.133   6.845  0.3704 -0.0585  0.6387
   47CHL1   H2B 3453   1.902   1.124   6.783  1.3527  0.4086 -2.0307
   47CHL1   C20 3454   1.626   0.867   7.699  0.2828 -0.1248  0.6283
   47CHL1   H20 3455   1.521   0.855   7.666  0.6489 -0.8173 -0.3495
   47CHL1   C21 3456   1.653   1.022   7.716  0.1633 -0.2022 -0.0109
   47CHL1  H21A 3457   1.589   1.076   7.788  1.9813  0.7835  0.9549
   47CHL1  H21B 3458   1.633   1.077   7.621  0.9544 -1.1192 -0.7466
   47CHL1  H21C 3459   1.763   1.038   7.725  0.7850 -2.2795 -2.4961
   47CHL1   C22 3460   1.653   0.793   7.831  0.1608  0.0947 -0.0340
   47CHL1  H22A 3461   1.646   0.683   7.812  3.3307 -0.0547 -0.8320
   47CHL1  H22B 3462   1.757   0.814   7.864  0.0370  1.4169 -0.4252
   47CHL1   C23 3463   1.555   0.831   7.950 -0.2999 -0.0074  0.3566
   47CHL1  H23A 3464   1.563   0.942   7.956  1.0042 -0.1662  2.6041
   47CHL1  H23B 3465   1.451   0.804   7.922  0.3338 -1.7328 -0.4361
   47CHL1   C24 3466   1.589   0.766   8.084  0.0660 -0.1269  0.1113
   47CHL1  H24A 3467   1.581   0.656   8.074  1.6849 -0.3659  1.1378
   47CHL1  H24B 3468   1.699   0.778   8.093  0.0941 -0.3687  0.1027
   47CHL1   C25 3469   1.528   0.822   8.214  0.4728 -1.0891  0.0789
   47CHL1   H25 3470   1.420   0.801   8.203 -0.0155  1.9985 -2.0359
   47CHL1   C26 3471   1.572   0.738   8.334  0.5880 -0.3065 -0.2359
   47CHL1  H26A 3472   1.574   0.631   8.307 -0.0239  0.1631 -2.2832
   47CHL1  H26B 3473   1.673   0.763   8.374 -0.9216  1.6513  2.7486
   47CHL1  H26C 3474   1.502   0.760   8.417  1.7358  1.0090  0.4248
   47CHL1   C27 3475   1.549   0.973   8.232  0.0768  0.1531  0.3887
   47CHL1  H27A 3476   1.655   1.003   8.240 -0.0781  1.2100 -1.1601
   47CHL1  H27B 3477   1.503   1.029   8.149  0.3014 -1.3242 -0.7834
   47CHL1  H27C 3478   1.503   1.007   8.328 -0.6215  3.3358 -0.9706
   48CHL1    C3 3479   6.457   3.185   6.491 -0.1982 -0.4467 -0.3773
   48CHL1    H3 3480   6.518   3.273   6.520  1.1772 -2.2662  2.7844
   48CHL1    O3 3481   6.481   3.155   6.356 -0.5288 -0.0883  0.1566
   48CHL1   H3' 3482   6.485   3.059   6.358  0.7520 -0.0908  3.1236
   48CHL1    C4 3483   6.496   3.061   6.575 -0.0891  0.6584 -0.1100
   48CHL1   H4A 3484   6.440   2.967   6.556 -0.8286  0.8895  0.8603
   48CHL1   H4B 3485   6.602   3.034   6.555 -0.4641 -0.5995 -0.4926
   48CHL1    C5 3486   6.471   3.102   6.716 -0.7893  0.1290 -0.1427
   48CHL1    C6 3487   6.575   3.115   6.808  0.7210  0.4478  0.5792
   48CHL1    H6 3488   6.673   3.090   6.766 -0.6725 -2.0473 -1.4964
   48CHL1    C7 3489   6.566   3.130   6.954  0.7141 -0.6122  0.6099
   48CHL1   H7A 3490   6.612   3.042   7.004 -1.9158 -3.3424 -1.4029
   48CHL1   H7B 3491   6.609   3.228   6.982  2.2224  0.0490 -3.4056
   48CHL1    C8 3492   6.414   3.122   7.002  0.2583  0.3298 -0.0278
   48CHL1    H8 3493   6.385   3.015   7.007 -0.9282  0.4645 -2.6326
   48CHL1   C14 3494   6.399   3.169   7.149 -0.2636  0.5571 -0.8742
   48CHL1   H14 3495   6.418   3.278   7.144  1.1183  0.4605  1.0025
   48CHL1   C15 3496   6.495   3.125   7.254  0.4636 -0.2056  0.3329
   48CHL1  H15A 3497   6.508   3.015   7.245 -0.3737 -0.3230  0.4572
   48CHL1  H15B 3498   6.594   3.171   7.234  0.6380  0.0713  1.7548
   48CHL1   C16 3499   6.431   3.161   7.382  0.5641 -0.2203  0.5446
   48CHL1  H16A 3500   6.439   3.080   7.458 -1.7888 -0.8071  0.2585
   48CHL1  H16B 3501   6.482   3.255   7.414  2.2619 -1.2533  0.9819
   48CHL1   C17 3502   6.284   3.201   7.350  0.1511  0.9356  0.1854
   48CHL1   H17 3503   6.283   3.312   7.345 -0.7388  0.8952 -1.4327
   48CHL1   C13 3504   6.256   3.156   7.203 -0.2551 -0.3848  0.6435
   48CHL1   C18 3505   6.212   3.009   7.210 -0.0145 -0.3457  0.2371
   48CHL1  H18A 3506   6.112   3.013   7.259  0.7476  3.0106  1.8226
   48CHL1  H18B 3507   6.215   2.963   7.109 -0.4931 -0.2143  0.1603
   48CHL1  H18C 3508   6.275   2.939   7.268  3.0289  0.1222 -2.2326
   48CHL1   C12 3509   6.166   3.242   7.113  0.8016 -0.1277 -0.1835
   48CHL1  H12A 3510   6.058   3.248   7.140  0.6593 -0.3078 -0.6985
   48CHL1  H12B 3511   6.194   3.349   7.112  0.5965 -0.0491  1.0920
   48CHL1   C11 3512   6.172   3.188   6.964  0.0671  0.1354  0.4993
   48CHL1  H11A 3513   6.133   3.084   6.963 -0.0206  0.1587  1.1238
   48CHL1  H11B 3514   6.107   3.250   6.899 -1.2681 -1.9334 -0.2114
   48CHL1    C9 3515   6.320   3.188   6.908  0.3932 -0.0834 -0.4624
   48CHL1    H9 3516   6.356   3.293   6.903 -2.4195  0.9417 -1.8972
   48CHL1   C10 3517   6.332   3.134   6.756  0.1501  0.7019  0.5553
   48CHL1   C19 3518   6.249   3.003   6.748 -0.1493 -0.1190 -0.1477
   48CHL1  H19A 3519   6.289   2.921   6.812 -1.0578 -0.2554  0.2726
   48CHL1  H19B 3520   6.141   3.004   6.775 -0.3095 -1.0797 -0.6831
   48CHL1  H19C 3521   6.245   2.964   6.644  0.7281 -1.6086  0.3494
   48CHL1    C1 3522   6.276   3.238   6.661 -0.5075 -0.1262  0.6068
   48CHL1   H1A 3523   6.166   3.246   6.671 -0.4708  2.7479 -0.2604
   48CHL1   H1B 3524   6.320   3.338   6.685  1.1933 -0.4817 -0.7823
   48CHL1    C2 3525   6.301   3.199   6.507 -0.2233 -0.1862 -0.0170
   48CHL1   H2A 3526   6.258   3.282   6.448 -1.4661  0.2592  1.4498
   48CHL1   H2B 3527   6.251   3.104   6.481  0.1981 -0.7348  1.0860
   48CHL1   C20 3528   6.180   3.171   7.458  0.0888  0.7036  0.3224
   48CHL1   H20 3529   6.172   3.060   7.469  0.6175  0.5862 -0.4455
   48CHL1   C21 3530   6.042   3.229   7.423 -0.2675 -0.2829  0.0546
   48CHL1  H21A 3531   5.972   3.244   7.508 -1.6776  1.9644 -1.3901
   48CHL1  H21B 3532   5.993   3.160   7.352  2.0230 -2.9656  0.8857
   48CHL1  H21C 3533   6.044   3.331   7.379 -1.8403 -1.1601 -2.2458
   48CHL1   C22 3534   6.215   3.218   7.605 -0.0086 -0.0908 -0.0128
   48CHL1  H22A 3535   6.324   3.215   7.625 -0.1653  1.0373  1.1475
   48CHL1  H22B 3536   6.194   3.327   7.605  0.3919  0.0133  1.8470
   48CHL1   C23 3537   6.144   3.160   7.727 -0.1398 -0.7697  0.1712
   48CHL1  H23A 3538   6.036   3.180   7.709 -0.0152 -0.9161 -0.7576
   48CHL1  H23B 3539   6.173   3.053   7.736  2.3235 -0.4023 -2.0953
   48CHL1   C24 3540   6.173   3.235   7.858  0.6259  0.0125 -0.6114
   48CHL1  H24A 3541   6.279   3.230   7.893  0.2317 -1.5999  0.4626
   48CHL1  H24B 3542   6.159   3.338   7.820  0.0350 -0.3977 -1.5556
   48CHL1   C25 3543   6.066   3.206   7.964  0.1869  0.6296 -0.3518
   48CHL1   H25 3544   6.021   3.105   7.956  0.0258  0.7739 -1.4040
   48CHL1   C26 3545   6.141   3.203   8.100  0.2162  0.2068 -0.0609
   48CHL1  H26A 3546   6.168   3.305   8.135 -0.5311  1.4713 -2.8786
   48CHL1  H26B 3547   6.074   3.163   8.179 -2.4462  1.4208 -1.5579
   48CHL1  H26C 3548   6.241   3.156   8.086 -0.0859  0.1326 -2.4726
   48CHL1   C27 3549   5.952   3.301   7.968 -0.1460 -0.3282  0.1224
   48CHL1  H27A 3550   5.996   3.403   7.966  1.3863 -0.9039  1.8908
   48CHL1  H27B 3551   5.897   3.287   7.872 -2.2529 -1.3158  1.4083
   48CHL1  H27C 3552   5.880   3.297   8.052  1.1397 -1.0919  1.2435
   49CHL1    C3 3553   4.573   4.365   6.781  0.1238 -0.8492  0.8005
   49CHL1    H3 3554   4.684   4.376   6.781 -0.0125  1.9887  3.3822
   49CHL1    O3 3555   4.519   4.336   6.654  0.2955 -0.7996 -0.3000
   49CHL1   H3' 3556   4.424   4.349   6.659  0.1934 -1.8302  0.6530
   49CHL1    C4 3557   4.512   4.265   6.882  0.7769  0.1206 -0.7742
   49CHL1   H4A 3558   4.402   4.256   6.867  0.5044 -0.4825  1.2737
   49CHL1   H4B 3559   4.543   4.163   6.853 -0.1373 -0.9934  1.8813
   49CHL1    C5 3560   4.567   4.301   7.019  0.5140  0.4700  0.5202
   49CHL1    C6 3561   4.636   4.220   7.086 -0.1121 -0.1234  0.6499
   49CHL1    H6 3562   4.659   4.124   7.037  0.4830  0.7968 -0.9174
   49CHL1    C7 3563   4.686   4.232   7.228  0.1159 -0.2405 -0.3003
   49CHL1   H7A 3564   4.675   4.144   7.295  0.3678 -0.4679 -0.5520
   49CHL1   H7B 3565   4.792   4.264   7.234  0.3947 -1.2350  0.3276
   49CHL1    C8 3566   4.604   4.345   7.296 -0.5128  0.9562  0.2651
   49CHL1    H8 3567   4.508   4.301   7.330  0.9767 -2.2604  0.7555
   49CHL1   C14 3568   4.679   4.397   7.422  0.1195 -0.3146 -0.1465
   49CHL1   H14 3569   4.759   4.464   7.383  1.9012 -1.6144  1.1457
   49CHL1   C15 3570   4.751   4.310   7.520  0.2094 -0.1293 -0.3341
   49CHL1  H15A 3571   4.689   4.219   7.535  0.0858  0.0920  0.5494
   49CHL1  H15B 3572   4.852   4.283   7.482  0.9439  0.8362  0.8667
   49CHL1   C16 3573   4.773   4.397   7.647  0.0484 -0.1765  0.0887
   49CHL1  H16A 3574   4.716   4.336   7.720 -0.4741  0.1302 -0.0544
   49CHL1  H16B 3575   4.882   4.393   7.671  0.4544  0.7758 -1.4338
   49CHL1   C17 3576   4.709   4.539   7.619  0.8606 -0.2534  0.1883
   49CHL1   H17 3577   4.794   4.595   7.574  0.1752  0.6446 -0.0241
   49CHL1   C13 3578   4.606   4.508   7.505 -0.5378 -0.0737  0.7845
   49CHL1   C18 3579   4.483   4.449   7.573  0.4614 -0.8172 -0.4424
   49CHL1  H18A 3580   4.511   4.390   7.663 -0.3754  1.7265  1.6046
   49CHL1  H18B 3581   4.424   4.537   7.606  1.4967 -0.9024  1.7952
   49CHL1  H18C 3582   4.415   4.397   7.502 -0.9987 -0.6935  0.8267
   49CHL1   C12 3583   4.572   4.625   7.405  0.0378  0.1789  0.0168
   49CHL1  H12A 3584   4.514   4.703   7.458 -1.2528  0.0547 -1.1568
   49CHL1  H12B 3585   4.657   4.679   7.358  0.0416  1.1063  1.0509
   49CHL1   C11 3586   4.491   4.568   7.288  0.0077  0.0077  0.3119
   49CHL1  H11A 3587   4.404   4.513   7.329 -1.4480  1.4477 -0.7010
   49CHL1  H11B 3588   4.449   4.650   7.225 -2.7569 -1.2972  0.3295
   49CHL1    C9 3589   4.575   4.466   7.210  0.1416 -0.7706  0.1788
   49CHL1    H9 3590   4.673   4.510   7.182  0.1925 -0.6356  0.5548
   49CHL1   C10 3591   4.515   4.430   7.070 -0.0642 -0.5029 -0.2586
   49CHL1   C19 3592   4.363   4.438   7.082  0.4922 -0.1710  0.0413
   49CHL1  H19A 3593   4.326   4.540   7.101 -1.4816 -0.7082 -0.6967
   49CHL1  H19B 3594   4.322   4.407   6.984 -2.4627  1.8816  0.4986
   49CHL1  H19C 3595   4.335   4.370   7.165 -0.5042  0.5632  0.3189
   49CHL1    C1 3596   4.565   4.538   6.967  0.9327  0.1826 -0.0998
   49CHL1   H1A 3597   4.519   4.637   6.989  3.6605  1.8608 -1.4610
   49CHL1   H1B 3598   4.675   4.549   6.975  0.8325  0.2142  1.6584
   49CHL1    C2 3599   4.531   4.505   6.818  0.3430  0.4675 -0.0758
   49CHL1   H2A 3600   4.577   4.580   6.751 -0.6861 -1.8147 -3.6332
   49CHL1   H2B 3601   4.421   4.519   6.808  0.7611  3.7435 -1.1375
   49CHL1   C20 3602   4.663   4.616   7.746 -1.1810  0.4985  0.2418
   49CHL1   H20 3603   4.585   4.551   7.791 -0.0936  0.0799  1.5525
   49CHL1   C21 3604   4.606   4.755   7.711  0.0491  0.2842  0.1628
   49CHL1  H21A 3605   4.676   4.809   7.643 -0.1772  0.7909  0.3227
   49CHL1  H21B 3606   4.592   4.811   7.806 -0.9145 -0.3669  0.4253
   49CHL1  H21C 3607   4.507   4.737   7.664  0.3661  1.2333 -0.9474
   49CHL1   C22 3608   4.786   4.621   7.838 -0.0707  0.6314  0.2493
   49CHL1  H22A 3609   4.805   4.520   7.879  0.7862  0.9139  0.5615
   49CHL1  H22B 3610   4.876   4.654   7.781 -1.3183  1.3623 -1.4046
   49CHL1   C23 3611   4.772   4.718   7.959  0.6846  0.3417 -0.0613
   49CHL1  H23A 3612   4.793   4.820   7.921 -1.7297  1.4480  1.2940
   49CHL1  H23B 3613   4.664   4.716   7.986  0.3898  0.5713 -1.1836
   49CHL1   C24 3614   4.868   4.690   8.077 -0.1442 -0.4608 -0.7961
   49CHL1  H24A 3615   4.891   4.582   8.066  1.3855 -0.0982 -1.3813
   49CHL1  H24B 3616   4.961   4.745   8.055 -0.3317 -0.1459 -0.8039
   49CHL1   C25 3617   4.818   4.742   8.215 -0.7802  0.0575  0.2808
   49CHL1   H25 3618   4.731   4.678   8.242  1.8296 -4.4519 -0.9835
   49CHL1   C26 3619   4.918   4.715   8.327  0.4086  0.9738  0.5162
   49CHL1  H26A 3620   4.896   4.771   8.420 -1.1235  1.6355 -0.2151
   49CHL1  H26B 3621   4.916   4.605   8.344  0.3727  0.9687  0.4782
   49CHL1  H26C 3622   5.019   4.742   8.288 -0.4069  1.2691 -1.5053
   49CHL1   C27 3623   4.799   4.894   8.203 -0.6451  0.5815 -0.3137
   49CHL1  H27A 3624   4.756   4.928   8.300 -0.1901 -0.8979  0.4445
   49CHL1  H27B 3625   4.898   4.941   8.186 -0.5443  0.4315 -0.1545
   49CHL1  H27C 3626   4.721   4.917   8.128 -0.6157  1.4543 -0.0844
   50CHL1    C3 3627   4.917   5.850   6.874  0.2908 -0.6357  0.6102
   50CHL1    H3 3628   4.812   5.855   6.910 -0.1182 -1.6636 -0.3460
   50CHL1    O3 3629   4.918   5.839   6.731 -0.3096  0.5245 -0.5469
   50CHL1   H3' 3630   4.826   5.851   6.707 -0.3064 -0.2042 -0.9687
   50CHL1    C4 3631   5.001   5.973   6.909  0.4095 -0.1711 -0.2528
   50CHL1   H4A 3632   5.105   5.964   6.871  0.3814  3.6116 -1.7221
   50CHL1   H4B 3633   4.956   6.059   6.854  3.2260  1.4373 -0.2368
   50CHL1    C5 3634   5.000   5.995   7.064 -0.1296 -0.5410  0.0208
   50CHL1    C6 3635   4.954   6.108   7.124  0.0961  0.0586  0.3955
   50CHL1    H6 3636   4.922   6.195   7.064  1.3634 -0.8519 -1.7279
   50CHL1    C7 3637   4.945   6.132   7.273 -0.1962 -0.2136 -0.9991
   50CHL1   H7A 3638   4.986   6.230   7.305 -0.7958 -0.4621  0.6000
   50CHL1   H7B 3639   4.841   6.141   7.311  0.7427 -0.2323  1.8141
   50CHL1    C8 3640   5.038   6.035   7.346  0.2375  0.3772 -0.3091
   50CHL1    H8 3641   5.143   6.069   7.335  0.1313  0.3391 -1.5573
   50CHL1   C14 3642   5.003   6.030   7.495 -0.3868  0.2500 -0.3048
   50CHL1   H14 3643   4.898   5.994   7.494 -0.0835 -0.6682 -1.7645
   50CHL1   C15 3644   5.004   6.159   7.573  0.6714  0.5607 -0.5156
   50CHL1  H15A 3645   5.089   6.222   7.540  2.0227 -0.3036  1.2100
   50CHL1  H15B 3646   4.916   6.227   7.562  0.4068  0.7341  2.0780
   50CHL1   C16 3647   5.037   6.125   7.721 -0.2058  0.7251  0.0698
   50CHL1  H16A 3648   5.138   6.168   7.739 -0.0200  0.2585  0.1736
   50CHL1  H16B 3649   4.968   6.161   7.800 -0.7641 -1.7685  0.8003
   50CHL1   C17 3650   5.043   5.967   7.725  0.2567  0.1366 -0.8426
   50CHL1   H17 3651   4.937   5.939   7.733  0.6108 -2.3294 -3.3434
   50CHL1   C13 3652   5.078   5.930   7.582 -0.0413 -0.5023  0.0732
   50CHL1   C18 3653   5.236   5.946   7.567  0.2713 -0.5418  0.5074
   50CHL1  H18A 3654   5.281   5.908   7.473  0.4138  1.9921 -0.5417
   50CHL1  H18B 3655   5.272   6.050   7.583  1.1875 -0.3669 -2.1999
   50CHL1  H18C 3656   5.297   5.888   7.639 -0.2143  0.8180  2.0806
   50CHL1   C12 3657   5.040   5.786   7.533  0.6205 -0.5449  0.0944
   50CHL1  H12A 3658   5.103   5.711   7.587  2.3074 -1.1563 -2.5296
   50CHL1  H12B 3659   4.932   5.788   7.560 -0.0742  0.7141 -2.4723
   50CHL1   C11 3660   5.058   5.766   7.378  0.0756 -0.3886 -0.2930
   50CHL1  H11A 3661   5.166   5.744   7.364 -0.3144 -2.3501 -0.5808
   50CHL1  H11B 3662   4.998   5.676   7.353  0.8627 -1.2167  0.6689
   50CHL1    C9 3663   5.018   5.895   7.288 -0.2260 -0.2847 -0.4430
   50CHL1    H9 3664   4.910   5.867   7.291 -0.1956 -0.4946 -1.0843
   50CHL1   C10 3665   5.052   5.875   7.139  0.5390  0.3133  0.8068
   50CHL1   C19 3666   5.206   5.860   7.129 -0.5299  0.0375 -0.3608
   50CHL1  H19A 3667   5.256   5.948   7.174 -0.4557  0.3208 -0.9882
   50CHL1  H19B 3668   5.249   5.774   7.185  3.2133  1.1429 -1.2601
   50CHL1  H19C 3669   5.230   5.836   7.023 -2.8511 -3.2460 -0.3029
   50CHL1    C1 3670   4.988   5.736   7.084  0.3320  0.4749  0.1510
   50CHL1   H1A 3671   5.040   5.645   7.121 -1.6142 -2.3187 -3.3856
   50CHL1   H1B 3672   4.885   5.721   7.123 -0.2743  1.1767 -1.1409
   50CHL1    C2 3673   4.995   5.726   6.931  0.5324 -0.0406 -0.4838
   50CHL1   H2A 3674   4.960   5.630   6.888  1.3281 -0.3082 -0.5503
   50CHL1   H2B 3675   5.104   5.720   6.912  0.4214  0.6838 -1.4297
   50CHL1   C20 3676   5.123   5.905   7.849  0.3867 -0.5201  0.0415
   50CHL1   H20 3677   5.214   5.858   7.804 -0.2231  0.4074 -2.2900
   50CHL1   C21 3678   5.035   5.781   7.877 -0.3541 -0.0090  0.5108
   50CHL1  H21A 3679   5.082   5.728   7.962  0.9460  2.6499  1.5739
   50CHL1  H21B 3680   5.012   5.714   7.792 -1.6311 -0.3963  1.1406
   50CHL1  H21C 3681   4.939   5.819   7.920 -0.4752  1.2972 -0.8259
   50CHL1   C22 3682   5.160   6.001   7.969 -0.3199  0.0854 -0.0225
   50CHL1  H22A 3683   5.238   6.069   7.930 -1.0557  0.1518 -1.4491
   50CHL1  H22B 3684   5.069   6.055   8.004  1.4192  2.8433  0.5314
   50CHL1   C23 3685   5.205   5.936   8.096 -0.8834 -0.1028 -0.9544
   50CHL1  H23A 3686   5.127   5.866   8.130 -0.3348 -0.9446 -1.3999
   50CHL1  H23B 3687   5.292   5.873   8.069  1.2902  1.5819  1.6236
   50CHL1   C24 3688   5.255   6.023   8.218  0.1873  0.1576  0.1687
   50CHL1  H24A 3689   5.314   6.109   8.180  0.2663  0.6998  1.4824
   50CHL1  H24B 3690   5.173   6.074   8.272 -1.0567 -2.4873  0.9311
   50CHL1   C25 3691   5.326   5.950   8.335  0.0082 -0.1529 -0.0083
   50CHL1   H25 3692   5.387   5.870   8.287 -2.2583 -0.3014 -2.8686
   50CHL1   C26 3693   5.416   6.044   8.413 -0.0420 -0.2517 -0.4940
   50CHL1  H26A 3694   5.476   6.104   8.341 -0.7818 -0.5239 -1.3645
   50CHL1  H26B 3695   5.353   6.115   8.471 -2.2848 -2.0126 -0.6408
   50CHL1  H26C 3696   5.488   5.998   8.483 -2.5877 -1.5297  1.4341
   50CHL1   C27 3697   5.228   5.873   8.430 -0.5282 -0.5890 -0.1863
   50CHL1  H27A 3698   5.146   5.813   8.383 -0.6418 -1.7879  1.4599
   50CHL1  H27B 3699   5.284   5.804   8.496  0.7324  0.3011 -0.2926
   50CHL1  H27C 3700   5.183   5.951   8.495 -0.5939 -1.4628  0.8367
   51CHL1    C3 3701   4.731   5.085   6.835  0.4152 -0.6536  0.3178
   51CHL1    H3 3702   4.623   5.112   6.840  0.4028 -0.4089 -0.9245
   51CHL1    O3 3703   4.756   5.039   6.704 -0.0231 -0.1779  0.2443
   51CHL1   H3' 3704   4.762   5.121   6.655 -0.1714  0.2460  0.9167
   51CHL1    C4 3705   4.826   5.206   6.875  0.5117 -0.2272 -1.2086
   51CHL1   H4A 3706   4.931   5.170   6.867  0.6186 -0.8448  1.7316
   51CHL1   H4B 3707   4.820   5.290   6.803 -0.4789  0.1902 -0.6486
   51CHL1    C5 3708   4.806   5.254   7.021  0.2860 -0.0465 -0.7295
   51CHL1    C6 3709   4.779   5.383   7.038  0.3308 -0.1976 -0.2065
   51CHL1    H6 3710   4.762   5.455   6.957  0.5939 -0.7195 -0.7344
   51CHL1    C7 3711   4.755   5.433   7.179 -0.0805 -0.1243  0.4323
   51CHL1   H7A 3712   4.809   5.530   7.194 -0.7308  0.4445 -0.7408
   51CHL1   H7B 3713   4.648   5.461   7.188  0.3276  2.0397 -0.7011
   51CHL1    C8 3714   4.790   5.341   7.291 -0.0761 -0.0573 -1.0025
   51CHL1    H8 3715   4.900   5.351   7.305 -0.2597  0.2044  0.4338
   51CHL1   C14 3716   4.732   5.382   7.425  0.4970 -0.9044  0.1732
   51CHL1   H14 3717   4.624   5.361   7.413  0.6143 -0.5460 -1.6940
   51CHL1   C15 3718   4.742   5.531   7.471  0.0223 -1.2034 -0.4899
   51CHL1  H15A 3719   4.846   5.567   7.461 -0.6878  1.5127  0.8734
   51CHL1  H15B 3720   4.676   5.593   7.407  1.6411  0.5596 -0.5325
   51CHL1   C16 3721   4.711   5.524   7.625  0.3683  0.1147 -0.2030
   51CHL1  H16A 3722   4.794   5.575   7.676  0.5096  0.7964 -1.0807
   51CHL1  H16B 3723   4.610   5.567   7.646 -0.2104 -1.6242  0.7234
   51CHL1   C17 3724   4.712   5.370   7.668 -0.8037  0.2025  0.4767
   51CHL1   H17 3725   4.605   5.346   7.656 -0.9028  1.0059 -0.3659
   51CHL1   C13 3726   4.782   5.294   7.546  0.2624 -0.4991  0.4684
   51CHL1   C18 3727   4.932   5.309   7.570 -0.2523  0.3528 -0.0736
   51CHL1  H18A 3728   4.992   5.282   7.481  1.0907  1.3062  0.5123
   51CHL1  H18B 3729   4.963   5.415   7.583 -3.9328  1.3676  1.6399
   51CHL1  H18C 3730   4.956   5.251   7.663 -1.6700 -1.5795 -0.8391
   51CHL1   C12 3731   4.734   5.153   7.513 -0.2386  0.6067 -0.1145
   51CHL1  H12A 3732   4.772   5.087   7.594 -0.4725 -2.0145 -1.9960
   51CHL1  H12B 3733   4.623   5.160   7.506 -0.1366  1.5180 -1.0596
   51CHL1   C11 3734   4.792   5.102   7.380  0.4799 -0.5731  0.0409
   51CHL1  H11A 3735   4.903   5.094   7.390  0.7390  2.5396  0.5453
   51CHL1  H11B 3736   4.752   4.999   7.386 -0.5111 -0.1302  2.8547
   51CHL1    C9 3737   4.756   5.196   7.261  0.3489  0.6050 -0.5425
   51CHL1    H9 3738   4.646   5.202   7.250  0.4472  0.7132 -1.5791
   51CHL1   C10 3739   4.814   5.141   7.128 -0.3501 -0.2098 -0.5992
   51CHL1   C19 3740   4.967   5.114   7.140 -0.1887  0.5948  0.7276
   51CHL1  H19A 3741   5.015   5.205   7.181  2.5115 -0.4327  0.0939
   51CHL1  H19B 3742   4.993   5.024   7.201 -2.3329 -1.1792 -0.7984
   51CHL1  H19C 3743   5.007   5.072   7.046  1.2221 -1.1795  2.0490
   51CHL1    C1 3744   4.724   5.025   7.080  0.5903 -0.6397  0.7074
   51CHL1   H1A 3745   4.741   4.940   7.150  2.8493 -0.9771 -0.1662
   51CHL1   H1B 3746   4.618   5.057   7.092  0.3535 -0.9966 -0.3005
   51CHL1    C2 3747   4.747   4.971   6.939 -0.3862  0.1330  0.1110
   51CHL1   H2A 3748   4.684   4.882   6.918  1.5983 -1.3110  0.0590
   51CHL1   H2B 3749   4.854   4.944   6.939 -0.1225  0.7835 -2.9710
   51CHL1   C20 3750   4.754   5.344   7.818 -0.2275  0.1060 -0.1441
   51CHL1   H20 3751   4.853   5.391   7.836  0.0357 -0.2577 -0.6159
   51CHL1   C21 3752   4.769   5.193   7.852  0.1532  0.8475 -0.4777
   51CHL1  H21A 3753   4.777   5.164   7.959  0.0569 -0.1907 -0.7501
   51CHL1  H21B 3754   4.850   5.144   7.794 -0.2081 -0.3699  0.0257
   51CHL1  H21C 3755   4.681   5.143   7.807 -0.1458  1.0019 -0.0692
   51CHL1   C22 3756   4.653   5.411   7.910  0.1960  0.0398 -0.1641
   51CHL1  H22A 3757   4.632   5.514   7.875  0.0976 -0.1523 -0.6689
   51CHL1  H22B 3758   4.562   5.348   7.906  1.0757 -1.1954 -2.0394
   51CHL1   C23 3759   4.704   5.413   8.051 -0.3938 -0.8839  0.0527
   51CHL1  H23A 3760   4.747   5.314   8.077 -2.1265 -1.7490 -0.2300
   51CHL1  H23B 3761   4.793   5.479   8.052 -0.5067 -0.7341  0.6167
   51CHL1   C24 3762   4.603   5.464   8.158 -0.0707 -0.1916  0.4623
   51CHL1  H24A 3763   4.569   5.563   8.121  2.8242  0.5591 -0.4469
   51CHL1  H24B 3764   4.517   5.393   8.156  1.1440 -1.7886  1.8110
   51CHL1   C25 3765   4.649   5.458   8.305  0.1057  0.1715  0.1097
   51CHL1   H25 3766   4.739   5.523   8.302  1.4908 -1.5204  2.2068
   51CHL1   C26 3767   4.534   5.518   8.393 -0.2127  0.4349  0.5517
   51CHL1  H26A 3768   4.558   5.524   8.501  0.2308  0.0542  0.4743
   51CHL1  H26B 3769   4.502   5.618   8.357 -0.5832  0.2963  0.4865
   51CHL1  H26C 3770   4.447   5.449   8.384 -0.0047  0.3934 -1.7916
   51CHL1   C27 3771   4.692   5.324   8.363 -0.0344  0.5864 -0.1037
   51CHL1  H27A 3772   4.741   5.334   8.462  2.5392  2.5142 -1.4442
   51CHL1  H27B 3773   4.601   5.262   8.382 -0.6395  1.8498  1.3292
   51CHL1  H27C 3774   4.769   5.279   8.296  1.5548  2.6899  0.1942
   52CHL1    C3 3775   0.416   5.516   6.956  0.4035  0.0161  0.3046
   52CHL1    H3 3776   0.413   5.413   6.997  1.1742  0.8113  2.5436
   52CHL1    O3 3777   0.438   5.509   6.819 -0.7079 -0.3913  0.4132
   52CHL1   H3' 3778   0.423   5.415   6.808  0.4096 -0.7230  1.4217
   52CHL1    C4 3779   0.274   5.573   6.984 -0.0678 -0.9400 -0.5671
   52CHL1   H4A 3780   0.259   5.673   6.937 -0.0469  1.4709  3.9423
   52CHL1   H4B 3781   0.195   5.508   6.939 -0.5638 -0.2516 -0.7114
   52CHL1    C5 3782   0.250   5.598   7.135  0.2894 -0.6111 -0.0453
   52CHL1    C6 3783   0.140   5.545   7.189 -0.2608 -0.2773  0.0442
   52CHL1    H6 3784   0.069   5.498   7.119 -0.7959  0.8228 -0.1721
   52CHL1    C7 3785   0.097   5.582   7.327 -0.2374 -0.5425 -0.0312
   52CHL1   H7A 3786  -0.005   5.626   7.321 -0.5208 -1.3836 -2.0931
   52CHL1   H7B 3787   0.084   5.491   7.389 -1.2456  1.2240  2.5477
   52CHL1    C8 3788   0.185   5.682   7.402 -0.4293  0.3547  0.4242
   52CHL1    H8 3789   0.160   5.786   7.371 -0.0284  0.4645  0.4618
   52CHL1   C14 3790   0.170   5.669   7.548 -0.7236 -0.6034 -1.2726
   52CHL1   H14 3791   0.215   5.574   7.583 -0.4921  0.3770  1.3055
   52CHL1   C15 3792   0.031   5.676   7.599  0.2470 -0.2092  0.3549
   52CHL1  H15A 3793  -0.020   5.753   7.538  0.7702  0.3619  0.6269
   52CHL1  H15B 3794  -0.018   5.576   7.592  2.0419 -1.1320  0.4394
   52CHL1   C16 3795   0.049   5.706   7.752  0.9829 -0.0115  0.4579
   52CHL1  H16A 3796  -0.008   5.801   7.758  1.8791  0.5178  0.5849
   52CHL1  H16B 3797  -0.010   5.638   7.817 -1.2598  0.2221 -1.1663
   52CHL1   C17 3798   0.196   5.747   7.780  0.0807 -0.4646  0.4527
   52CHL1   H17 3799   0.235   5.652   7.822 -0.0821  0.6540  3.3665
   52CHL1   C13 3800   0.250   5.777   7.632 -0.0282 -0.0846 -0.3138
   52CHL1   C18 3801   0.215   5.921   7.591  0.6798  0.2875  0.0877
   52CHL1  H18A 3802   0.256   5.998   7.660  0.0454  0.1464  0.6366
   52CHL1  H18B 3803   0.243   5.957   7.490  0.3202  0.6849  0.1295
   52CHL1  H18C 3804   0.105   5.931   7.594  0.8198  1.9166  1.9378
   52CHL1   C12 3805   0.398   5.750   7.608 -0.5713  0.0369 -0.2247
   52CHL1  H12A 3806   0.473   5.817   7.657 -0.8544  0.4655 -0.3655
   52CHL1  H12B 3807   0.424   5.649   7.646  1.4607 -0.2237 -2.0507
   52CHL1   C11 3808   0.424   5.752   7.457  0.5189  0.4112  1.0781
   52CHL1  H11A 3809   0.428   5.859   7.428  0.7184 -0.1912 -1.3457
   52CHL1  H11B 3810   0.527   5.714   7.444  0.0906 -0.1983 -0.9079
   52CHL1    C9 3811   0.331   5.665   7.365  0.1336 -0.8329  0.6296
   52CHL1    H9 3812   0.341   5.559   7.397 -1.9795 -1.4768 -0.6545
   52CHL1   C10 3813   0.357   5.667   7.214 -0.4286 -0.1205  0.0318
   52CHL1   C19 3814   0.359   5.814   7.174 -0.0294  0.2180 -0.4076
   52CHL1  H19A 3815   0.268   5.872   7.203 -1.1397 -1.6956  0.1195
   52CHL1  H19B 3816   0.439   5.873   7.223 -0.5219 -0.2920  1.0721
   52CHL1  H19C 3817   0.373   5.818   7.064  1.7270  1.6683 -0.1751
   52CHL1    C1 3818   0.488   5.604   7.180  0.3913  1.2628  0.2927
   52CHL1   H1A 3819   0.567   5.652   7.242 -1.2435  1.1525  2.5705
   52CHL1   H1B 3820   0.490   5.500   7.219 -0.0390  1.8963  2.0983
   52CHL1    C2 3821   0.523   5.596   7.029  0.4885 -0.5156  0.2572
   52CHL1   H2A 3822   0.617   5.547   6.997 -0.6486 -2.4177 -0.2920
   52CHL1   H2B 3823   0.524   5.701   6.992 -1.5768 -0.5425 -0.0081
   52CHL1   C20 3824   0.221   5.844   7.899 -0.6636  0.6042  0.1135
   52CHL1   H20 3825   0.176   5.944   7.879 -0.3068  1.1479  1.8257
   52CHL1   C21 3826   0.375   5.870   7.917 -0.0940  0.5239 -0.2542
   52CHL1  H21A 3827   0.392   5.940   8.002  2.4203  0.3793 -0.5877
   52CHL1  H21B 3828   0.416   5.916   7.825  0.8817  1.1422  0.4711
   52CHL1  H21C 3829   0.410   5.769   7.945  0.8538  1.5663  2.7067
   52CHL1   C22 3830   0.160   5.801   8.032  0.1520  0.9623 -0.0273
   52CHL1  H22A 3831   0.052   5.825   8.025  0.5716  3.4015  1.0389
   52CHL1  H22B 3832   0.160   5.691   8.047 -2.3834  0.8989 -0.0543
   52CHL1   C23 3833   0.207   5.872   8.163  0.9185  0.0594  0.4944
   52CHL1  H23A 3834   0.316   5.856   8.170  0.7552 -1.1933  0.3769
   52CHL1  H23B 3835   0.180   5.979   8.149  2.9239  0.7167  1.4082
   52CHL1   C24 3836   0.143   5.813   8.287 -0.2500  0.0290  0.2707
   52CHL1  H24A 3837   0.035   5.818   8.261 -0.0259 -0.6267 -0.8563
   52CHL1  H24B 3838   0.165   5.706   8.307 -1.0626 -0.6462 -2.1278
   52CHL1   C25 3839   0.166   5.888   8.420  0.0823  0.2384  0.5180
   52CHL1   H25 3840   0.270   5.893   8.457  0.2812  1.9779 -0.1859
   52CHL1   C26 3841   0.127   6.034   8.405  0.0872  0.2939 -0.3020
   52CHL1  H26A 3842   0.136   6.105   8.490 -0.9262  1.8817 -1.4626
   52CHL1  H26B 3843   0.180   6.092   8.326  2.5655  1.0898  1.8045
   52CHL1  H26C 3844   0.019   6.030   8.379  0.4295  0.0566 -1.8048
   52CHL1   C27 3845   0.087   5.819   8.533 -0.3302  0.0499 -0.4142
   52CHL1  H27A 3846   0.076   5.873   8.629  0.5058 -1.4963  0.5906
   52CHL1  H27B 3847  -0.015   5.792   8.499  0.0105 -2.0845  0.1134
   52CHL1  H27C 3848   0.135   5.722   8.559 -1.3155 -0.4421 -0.3915
   53CHL1    C3 3849   4.034   1.303   7.086  0.0753 -0.3264  0.0753
   53CHL1    H3 3850   3.954   1.380   7.085 -0.9561 -1.3707 -0.3666
   53CHL1    O3 3851   4.071   1.295   6.953 -0.4522  0.1377  0.1875
   53CHL1   H3' 3852   4.156   1.250   6.956 -0.7829 -0.6570 -1.2467
   53CHL1    C4 3853   4.159   1.348   7.165 -0.1107 -0.0500  0.8689
   53CHL1   H4A 3854   4.245   1.289   7.127 -0.8277 -0.4540 -0.1727
   53CHL1   H4B 3855   4.182   1.448   7.122 -1.2534 -2.0133 -5.3823
   53CHL1    C5 3856   4.138   1.351   7.316 -0.5476  0.2449  1.1079
   53CHL1    C6 3857   4.140   1.469   7.385  0.7512  0.2767  0.0808
   53CHL1    H6 3858   4.174   1.558   7.330 -1.6872  0.8727 -0.6168
   53CHL1    C7 3859   4.116   1.482   7.533  0.0611  1.2089 -0.2381
   53CHL1   H7A 3860   4.172   1.567   7.577 -3.4114  3.1405  0.8544
   53CHL1   H7B 3861   4.006   1.495   7.546 -0.1452 -0.6725  0.2740
   53CHL1    C8 3862   4.131   1.338   7.591  0.5062  0.2840 -0.2584
   53CHL1    H8 3863   4.238   1.308   7.591  0.9721  0.9538  4.7112
   53CHL1   C14 3864   4.087   1.352   7.739  0.2074 -0.3223  0.5730
   53CHL1   H14 3865   3.978   1.368   7.721  0.4799 -1.1418 -2.3131
   53CHL1   C15 3866   4.126   1.478   7.829  0.3891  0.7152 -0.7263
   53CHL1  H15A 3867   4.234   1.496   7.808  0.7395 -1.0444 -0.5651
   53CHL1  H15B 3868   4.076   1.576   7.817  1.6870  1.4325 -0.5362
   53CHL1   C16 3869   4.117   1.416   7.978  0.3876  0.3344 -0.2040
   53CHL1  H16A 3870   4.219   1.396   8.018  0.8110  0.8762 -0.9853
   53CHL1  H16B 3871   4.064   1.485   8.048  2.6670  1.3592  0.6239
   53CHL1   C17 3872   4.048   1.278   7.964 -0.0364 -0.5518 -0.0151
   53CHL1   H17 3873   3.938   1.294   7.964  0.2786  2.1522 -0.3028
   53CHL1   C13 3874   4.094   1.221   7.825  0.0256 -0.6002  0.4442
   53CHL1   C18 3875   4.233   1.181   7.833 -0.1914  0.4443  0.3512
   53CHL1  H18A 3876   4.299   1.264   7.866 -2.3438  1.8382  1.3483
   53CHL1  H18B 3877   4.251   1.099   7.906 -0.8744 -0.8271 -0.8607
   53CHL1  H18C 3878   4.260   1.146   7.731 -3.2659  1.0402 -0.7738
   53CHL1   C12 3879   4.011   1.111   7.752  0.5295  0.1846 -0.2505
   53CHL1  H12A 3880   4.009   1.010   7.798 -0.6069 -0.1884 -1.0696
   53CHL1  H12B 3881   3.902   1.132   7.746  0.7351  1.4614  0.1494
   53CHL1   C11 3882   4.039   1.093   7.602 -0.6519 -0.0024  0.4715
   53CHL1  H11A 3883   4.140   1.047   7.593  0.0970  1.8161 -1.7373
   53CHL1  H11B 3884   3.962   1.022   7.567 -1.7512  1.1755  0.4562
   53CHL1    C9 3885   4.046   1.227   7.524  0.6500  0.4648  0.0654
   53CHL1    H9 3886   3.940   1.258   7.512  0.9735  1.0848 -1.5553
   53CHL1   C10 3887   4.094   1.217   7.376 -0.2640  0.6625 -0.8737
   53CHL1   C19 3888   4.216   1.121   7.368  0.5508 -0.2839  0.1149
   53CHL1  H19A 3889   4.286   1.155   7.448  0.9311 -0.3224 -0.2010
   53CHL1  H19B 3890   4.184   1.016   7.389  1.4253 -0.5431  0.1836
   53CHL1  H19C 3891   4.265   1.116   7.269 -0.6043 -0.3842 -0.4777
   53CHL1    C1 3892   3.980   1.151   7.297  0.3501 -0.7284 -0.0182
   53CHL1   H1A 3893   3.967   1.047   7.334  0.5927 -0.9966 -0.6801
   53CHL1   H1B 3894   3.885   1.202   7.327  1.0289 -0.3084  1.5482
   53CHL1    C2 3895   3.994   1.163   7.143 -0.4421 -0.1391 -0.2470
   53CHL1   H2A 3896   3.898   1.143   7.090 -0.4229 -0.1433 -0.2803
   53CHL1   H2B 3897   4.073   1.093   7.107  2.4010  3.0214 -0.6302
   53CHL1   C20 3898   4.079   1.194   8.091 -0.3495  0.8203 -0.1254
   53CHL1   H20 3899   4.187   1.176   8.106 -0.9982 -2.1900  1.9651
   53CHL1   C21 3900   4.030   1.049   8.074 -0.0932 -0.1022 -0.1338
   53CHL1  H21A 3901   3.926   1.044   8.035  1.0629  0.8968 -3.6758
   53CHL1  H21B 3902   4.034   0.988   8.167  0.1550  2.1438  1.4045
   53CHL1  H21C 3903   4.103   0.995   8.009  0.8567  0.4934  0.4102
   53CHL1   C22 3904   4.028   1.265   8.215  0.0269  0.0102 -0.3151
   53CHL1  H22A 3905   4.088   1.211   8.291  0.0723 -0.3628 -0.6143
   53CHL1  H22B 3906   4.081   1.363   8.228  0.1468 -0.0629 -0.2526
   53CHL1   C23 3907   3.881   1.273   8.255  0.0731 -0.4477  0.0472
   53CHL1  H23A 3908   3.827   1.333   8.179  1.7042 -0.3883 -1.1143
   53CHL1  H23B 3909   3.832   1.174   8.251 -1.0183 -0.0159  1.6986
   53CHL1   C24 3910   3.865   1.335   8.391  0.4942  0.4537  0.0337
   53CHL1  H24A 3911   3.937   1.296   8.466  0.1278  0.5475  0.4446
   53CHL1  H24B 3912   3.885   1.443   8.377 -1.0542  0.6265 -1.1314
   53CHL1   C25 3913   3.723   1.320   8.451  0.3232 -0.4113 -0.5156
   53CHL1   H25 3914   3.704   1.211   8.461  2.0033 -0.6034  1.0968
   53CHL1   C26 3915   3.702   1.360   8.598  0.2406 -0.4344  0.1366
   53CHL1  H26A 3916   3.777   1.309   8.662 -1.5576 -1.4298  1.5621
   53CHL1  H26B 3917   3.707   1.471   8.608 -0.0269 -0.4373  0.3255
   53CHL1  H26C 3918   3.605   1.322   8.638  1.0092 -1.5406  1.0091
   53CHL1   C27 3919   3.615   1.379   8.356 -0.0559  1.3410 -0.7612
   53CHL1  H27A 3920   3.634   1.349   8.250 -0.7287  0.2528 -0.5925
   53CHL1  H27B 3921   3.509   1.365   8.389  0.5968  0.6674  1.1794
   53CHL1  H27C 3922   3.619   1.490   8.363  1.4134  1.2369  0.2894
   54CHL1    C3 3923   3.488   3.719   7.101 -0.4416 -0.0271  0.1503
   54CHL1    H3 3924   3.404   3.650   7.124  0.7220 -1.8362 -0.7825
   54CHL1    O3 3925   3.505   3.726   6.961 -0.2241  0.3321 -0.4550
   54CHL1   H3' 3926   3.590   3.767   6.948  0.0688 -0.5550 -1.4836
   54CHL1    C4 3927   3.481   3.857   7.168 -0.3373 -0.3130  0.3049
   54CHL1   H4A 3928   3.574   3.914   7.147 -0.1531 -0.9471 -0.6655
   54CHL1   H4B 3929   3.396   3.918   7.132  0.5450 -0.2325 -1.7485
   54CHL1    C5 3930   3.476   3.834   7.320 -0.5255 -1.2774  0.0271
   54CHL1    C6 3931   3.371   3.883   7.389  0.2082 -0.4125  0.3748
   54CHL1    H6 3932   3.286   3.927   7.335  2.4110  2.5435 -0.9527
   54CHL1    C7 3933   3.358   3.874   7.539  0.2412 -0.8698  0.2723
   54CHL1   H7A 3934   3.323   3.971   7.581 -0.5830 -0.7161 -0.7207
   54CHL1   H7B 3935   3.269   3.815   7.567 -2.0813  2.6830  1.0067
   54CHL1    C8 3936   3.482   3.830   7.615  0.4110  0.0182  0.2893
   54CHL1    H8 3937   3.541   3.924   7.612 -1.4730  1.2384 -0.1417
   54CHL1   C14 3938   3.437   3.788   7.755 -0.2190  0.7463  0.4638
   54CHL1   H14 3939   3.387   3.689   7.742  2.0485 -0.4121 -0.1248
   54CHL1   C15 3940   3.333   3.867   7.843 -0.4244  1.2561 -0.5107
   54CHL1  H15A 3941   3.355   3.976   7.832 -0.1936  1.2339 -0.2884
   54CHL1  H15B 3942   3.228   3.847   7.814 -0.4235 -0.5276  0.6109
   54CHL1   C16 3943   3.360   3.826   7.988  0.4868 -0.1051 -0.2266
   54CHL1  H16A 3944   3.382   3.917   8.047  0.5048  1.8958 -3.0696
   54CHL1  H16B 3945   3.276   3.773   8.038 -0.7196 -0.6157 -2.6108
   54CHL1   C17 3946   3.490   3.728   7.982 -0.1080 -0.0539 -0.1863
   54CHL1   H17 3947   3.454   3.625   7.963 -1.7666  0.7918 -2.0032
   54CHL1   C13 3948   3.558   3.750   7.845 -0.2671 -0.9372  0.6130
   54CHL1   C18 3949   3.660   3.870   7.858  0.4245 -0.5820 -0.4109
   54CHL1  H18A 3950   3.686   3.923   7.764 -4.5115  1.7217 -0.8191
   54CHL1  H18B 3951   3.613   3.952   7.917  0.5616 -0.6203 -0.2479
   54CHL1  H18C 3952   3.756   3.840   7.906  0.1819  0.6269  0.8939
   54CHL1   C12 3953   3.632   3.632   7.778  0.4102 -1.1239 -0.7577
   54CHL1  H12A 3954   3.723   3.596   7.831  1.0120  0.8417 -0.3472
   54CHL1  H12B 3955   3.563   3.546   7.772 -1.0028  0.0750 -2.8579
   54CHL1   C11 3956   3.670   3.674   7.633 -0.2394 -0.2298  0.0429
   54CHL1  H11A 3957   3.753   3.747   7.641 -2.6475  2.6524  0.6651
   54CHL1  H11B 3958   3.708   3.576   7.598  1.3563  0.1140  0.7093
   54CHL1    C9 3959   3.559   3.726   7.539 -0.0149  1.1305 -0.5852
   54CHL1    H9 3960   3.497   3.634   7.532  0.2016  0.8795  0.5706
   54CHL1   C10 3961   3.594   3.765   7.388  0.8997 -0.1574 -0.3139
   54CHL1   C19 3962   3.719   3.843   7.399  0.5867  0.1515 -0.1130
   54CHL1  H19A 3963   3.809   3.780   7.417 -0.0071 -0.0349  2.7988
   54CHL1  H19B 3964   3.743   3.886   7.300  0.1487  1.6084  0.3805
   54CHL1  H19C 3965   3.704   3.912   7.485 -1.6605  0.0080 -0.3304
   54CHL1    C1 3966   3.613   3.636   7.308  0.3916  0.2062  0.0699
   54CHL1   H1A 3967   3.697   3.583   7.357 -0.4304  0.8425  2.2600
   54CHL1   H1B 3968   3.522   3.575   7.329 -0.1697  0.7433 -0.7718
   54CHL1    C2 3969   3.615   3.650   7.155 -0.3260  0.0111 -0.1331
   54CHL1   H2A 3970   3.625   3.545   7.121 -1.1427 -0.0406 -0.2395
   54CHL1   H2B 3971   3.708   3.697   7.117  0.3465 -1.2413 -0.0854
   54CHL1   C20 3972   3.577   3.737   8.108 -0.0500  0.4086  0.4777
   54CHL1   H20 3973   3.614   3.842   8.115 -0.6116  0.5856  0.9439
   54CHL1   C21 3974   3.695   3.638   8.099 -0.0222 -0.1341 -0.7206
   54CHL1  H21A 3975   3.747   3.627   8.196 -0.1462  0.7175 -0.5496
   54CHL1  H21B 3976   3.765   3.679   8.022 -2.1043  0.5963 -2.3242
   54CHL1  H21C 3977   3.670   3.536   8.063  2.0147 -0.0236 -2.6607
   54CHL1   C22 3978   3.492   3.713   8.230  0.2905 -0.6579 -0.6728
   54CHL1  H22A 3979   3.393   3.765   8.230  1.0483  0.8267 -0.6291
   54CHL1  H22B 3980   3.461   3.607   8.243 -3.1207  0.1688 -1.0531
   54CHL1   C23 3981   3.553   3.783   8.355 -0.2668  0.3171 -0.0154
   54CHL1  H23A 3982   3.659   3.753   8.369 -0.2805  0.1402 -0.2814
   54CHL1  H23B 3983   3.556   3.892   8.333  1.3454  0.1284 -0.9121
   54CHL1   C24 3984   3.476   3.776   8.487  0.1654  0.3279 -0.2548
   54CHL1  H24A 3985   3.505   3.855   8.560  1.6209  0.3815 -0.8502
   54CHL1  H24B 3986   3.369   3.789   8.460 -0.4057 -2.2598  0.4345
   54CHL1   C25 3987   3.484   3.631   8.546  0.4668 -0.0280 -0.1532
   54CHL1   H25 3988   3.468   3.561   8.461 -0.4534  0.1836 -0.1629
   54CHL1   C26 3989   3.619   3.593   8.617  0.1236 -0.2857  0.2281
   54CHL1  H26A 3990   3.693   3.589   8.534  0.5683  0.3581  0.5845
   54CHL1  H26B 3991   3.653   3.676   8.682 -1.6315  1.8568 -1.4362
   54CHL1  H26C 3992   3.620   3.495   8.668 -1.8688 -0.0285  0.8206
   54CHL1   C27 3993   3.368   3.603   8.644  0.9341  0.8930  0.0734
   54CHL1  H27A 3994   3.371   3.682   8.723  0.0705  0.4274  0.5823
   54CHL1  H27B 3995   3.268   3.611   8.596  1.0566  0.3782 -0.2714
   54CHL1  H27C 3996   3.376   3.500   8.684  2.3441  0.2199 -1.7838
   55CHL1    C3 3997   3.085   6.036   7.008 -0.1165 -0.5193  0.2045
   55CHL1    H3 3998   3.058   5.928   6.999  2.3001 -1.1647  0.0848
   55CHL1    O3 3999   3.094   6.087   6.877 -0.0059 -0.8635  0.4285
   55CHL1   H3' 4000   3.181   6.057   6.848  0.2752 -0.5571  0.9493
   55CHL1    C4 4001   2.981   6.123   7.076  0.1080  0.3601  0.5321
   55CHL1   H4A 4002   3.021   6.226   7.087  1.1562  0.3334 -2.1462
   55CHL1   H4B 4003   2.894   6.137   7.008  1.0930  0.7756 -0.6846
   55CHL1    C5 4004   2.942   6.065   7.211  0.5214 -0.8903  0.0971
   55CHL1    C6 4005   2.818   6.014   7.237  0.3921 -0.0694 -0.6332
   55CHL1    H6 4006   2.745   6.000   7.156  0.3575 -1.9383 -0.3316
   55CHL1    C7 4007   2.779   5.959   7.374  0.4627 -0.2044 -0.0471
   55CHL1   H7A 4008   2.680   6.004   7.395 -0.5388 -1.2744 -2.0979
   55CHL1   H7B 4009   2.764   5.849   7.378 -0.1546 -0.2040 -1.5416
   55CHL1    C8 4010   2.886   5.986   7.476 -0.0301 -0.2302 -0.1724
   55CHL1    H8 4011   2.864   6.086   7.520 -1.7963 -1.4319  1.8627
   55CHL1   C14 4012   2.871   5.887   7.593 -0.0493  0.0433 -0.3755
   55CHL1   H14 4013   2.888   5.786   7.549  0.3852 -1.0280  2.0532
   55CHL1   C15 4014   2.737   5.881   7.665  0.0044 -0.5053  0.3134
   55CHL1  H15A 4015   2.710   5.988   7.675 -1.1217 -0.6226 -1.1285
   55CHL1  H15B 4016   2.649   5.845   7.608 -0.3896  0.5089  0.2546
   55CHL1   C16 4017   2.760   5.813   7.804  0.2559 -0.3694 -0.7879
   55CHL1  H16A 4018   2.721   5.873   7.890  0.1006 -1.4454 -0.0846
   55CHL1  H16B 4019   2.722   5.709   7.791 -0.8709 -0.2090  0.8227
   55CHL1   C17 4020   2.919   5.797   7.807 -0.1001  0.0310  0.5324
   55CHL1   H17 4021   2.938   5.696   7.767  2.9589 -1.1126  4.2546
   55CHL1   C13 4022   2.973   5.905   7.711 -0.3570  0.3796  0.1911
   55CHL1   C18 4023   2.969   6.045   7.785 -0.5438 -0.2275 -0.5958
   55CHL1  H18A 4024   3.058   6.064   7.849 -0.4045 -2.0264 -0.2064
   55CHL1  H18B 4025   2.979   6.120   7.704 -0.4757  1.5466  0.9827
   55CHL1  H18C 4026   2.872   6.059   7.838  0.2859 -0.4129  1.0316
   55CHL1   C12 4027   3.116   5.884   7.652  0.2923 -0.4719 -0.1813
   55CHL1  H12A 4028   3.187   5.918   7.731 -0.3793 -1.3593  0.8333
   55CHL1  H12B 4029   3.136   5.777   7.630  1.6190 -0.1669 -0.5663
   55CHL1   C11 4030   3.145   5.968   7.529  0.6685  0.4174  0.0336
   55CHL1  H11A 4031   3.167   6.073   7.558 -2.4842  2.0833 -2.8101
   55CHL1  H11B 4032   3.234   5.924   7.479 -1.2957 -2.9972 -0.8363
   55CHL1    C9 4033   3.028   5.965   7.419  0.0530  0.5895  0.0231
   55CHL1    H9 4034   3.025   5.862   7.378  1.1372 -0.3532  2.1465
   55CHL1   C10 4035   3.062   6.061   7.306  0.1550 -0.1068 -0.4558
   55CHL1   C19 4036   3.074   6.200   7.364 -0.2423 -0.1848 -0.5580
   55CHL1  H19A 4037   3.166   6.218   7.423 -1.0341  2.8489 -0.0731
   55CHL1  H19B 4038   3.093   6.275   7.284  2.8353 -0.0006  0.2247
   55CHL1  H19C 4039   2.989   6.233   7.428 -1.5626 -0.8235 -1.9135
   55CHL1    C1 4040   3.192   6.011   7.237  0.4830 -0.7559  0.1224
   55CHL1   H1A 4041   3.276   6.056   7.294  1.8366 -1.1502 -1.4875
   55CHL1   H1B 4042   3.196   5.900   7.239 -0.4025 -0.8370 -1.4175
   55CHL1    C2 4043   3.215   6.052   7.091  0.5497  0.2880 -0.8084
   55CHL1   H2A 4044   3.287   5.985   7.039 -0.6404 -0.6886 -1.2524
   55CHL1   H2B 4045   3.235   6.159   7.073  0.4019 -0.0891 -3.5612
   55CHL1   C20 4046   2.984   5.789   7.950 -0.5700 -0.5986  1.0540
   55CHL1   H20 4047   3.040   5.883   7.968 -0.4993 -0.3544 -0.3728
   55CHL1   C21 4048   3.088   5.677   7.936  0.2223 -0.2808  0.2517
   55CHL1  H21A 4049   3.165   5.723   7.870 -0.5166  0.8658  0.1616
   55CHL1  H21B 4050   3.058   5.585   7.882 -0.4774  1.1999 -2.0460
   55CHL1  H21C 4051   3.137   5.647   8.031  1.9640  1.0411 -0.1621
   55CHL1   C22 4052   2.883   5.773   8.065 -0.5164 -0.1141 -0.4164
   55CHL1  H22A 4053   2.824   5.867   8.073 -0.7946 -0.1188 -2.0439
   55CHL1  H22B 4054   2.811   5.693   8.038 -1.5920  0.0115  1.8802
   55CHL1   C23 4055   2.958   5.740   8.197 -0.0822  0.2820 -0.2845
   55CHL1  H23A 4056   2.995   5.637   8.180  0.2085  0.5679 -1.5347
   55CHL1  H23B 4057   3.047   5.805   8.211  0.0353  0.0508  0.0358
   55CHL1   C24 4058   2.872   5.748   8.322  0.0738 -0.6440 -0.7066
   55CHL1  H24A 4059   2.827   5.849   8.317 -2.0475 -1.2533  3.0252
   55CHL1  H24B 4060   2.792   5.675   8.300 -1.4344  1.1859 -1.5525
   55CHL1   C25 4061   2.942   5.743   8.460 -1.1512 -0.0024  0.8667
   55CHL1   H25 4062   2.998   5.647   8.464 -0.3495  0.4297  0.3110
   55CHL1   C26 4063   3.050   5.856   8.482 -0.4584  0.2461  0.5162
   55CHL1  H26A 4064   3.008   5.958   8.485 -0.0379  0.7069 -3.5371
   55CHL1  H26B 4065   3.119   5.825   8.564 -0.1644 -1.4660 -0.3190
   55CHL1  H26C 4066   3.121   5.857   8.397 -0.0552  1.0221  0.8526
   55CHL1   C27 4067   2.830   5.754   8.566  0.1585 -0.5532 -0.3232
   55CHL1  H27A 4068   2.749   5.679   8.550 -0.7462  0.2850  0.2517
   55CHL1  H27B 4069   2.868   5.755   8.670  3.4348 -0.1612 -1.3994
   55CHL1  H27C 4070   2.787   5.854   8.545 -1.2645 -0.9634  0.4934
   56CHL1    C3 4071   1.839   2.774   6.768  0.2972 -0.5372  0.4746
   56CHL1    H3 4072   1.846   2.884   6.758  1.3074 -0.8068 -2.7334
   56CHL1    O3 4073   1.865   2.716   6.641 -0.2858  0.2152  0.2439
   56CHL1   H3' 4074   1.889   2.624   6.654 -1.7756 -0.7580 -2.7340
   56CHL1    C4 4075   1.949   2.719   6.866 -0.1040 -0.0008 -0.8779
   56CHL1   H4A 4076   1.943   2.609   6.862  0.6793 -0.1580  1.1825
   56CHL1   H4B 4077   2.053   2.751   6.841 -0.2179  2.6010  1.3732
   56CHL1    C5 4078   1.923   2.756   7.013 -0.5507 -0.7113  0.8429
   56CHL1    C6 4079   2.014   2.822   7.087  0.4962 -0.2709  0.1436
   56CHL1    H6 4080   2.108   2.857   7.042 -1.0076  1.4530 -1.8655
   56CHL1    C7 4081   1.990   2.863   7.227  1.0058  0.0973 -0.3627
   56CHL1   H7A 4082   2.085   2.852   7.283  0.1222  0.5892  1.2770
   56CHL1   H7B 4083   1.957   2.969   7.222 -2.2247 -0.6474  1.9428
   56CHL1    C8 4084   1.883   2.771   7.291  0.0233  0.3049 -0.7489
   56CHL1    H8 4085   1.925   2.668   7.292 -1.4535 -0.3464 -1.8552
   56CHL1   C14 4086   1.856   2.831   7.425  0.2513 -0.0565  0.6358
   56CHL1   H14 4087   1.807   2.930   7.413  0.3892 -0.1158 -0.4857
   56CHL1   C15 4088   1.976   2.850   7.513 -0.2360  0.0176 -0.2584
   56CHL1  H15A 4089   2.050   2.768   7.502  0.1820 -0.0671  2.5186
   56CHL1  H15B 4090   2.028   2.947   7.495  3.1569 -1.9638 -2.1672
   56CHL1   C16 4091   1.909   2.850   7.663  0.1122  0.3926 -0.3586
   56CHL1  H16A 4092   1.970   2.775   7.717 -0.1403  0.9308  0.7004
   56CHL1  H16B 4093   1.926   2.944   7.720  1.6920  0.4756 -0.9310
   56CHL1   C17 4094   1.761   2.816   7.641 -0.3628  0.0174  0.3807
   56CHL1   H17 4095   1.718   2.918   7.631  1.6940  0.9661  0.6731
   56CHL1   C13 4096   1.752   2.748   7.504 -0.2993  0.1701  0.1421
   56CHL1   C18 4097   1.796   2.601   7.519  0.1419  0.1422  0.8718
   56CHL1  H18A 4098   1.710   2.550   7.567 -0.4090  1.5442  1.4209
   56CHL1  H18B 4099   1.823   2.541   7.430 -1.4736 -2.6168  2.1213
   56CHL1  H18C 4100   1.874   2.590   7.597 -0.7242 -1.7188  1.5165
   56CHL1   C12 4101   1.623   2.760   7.431  0.0700  0.1507  0.2216
   56CHL1  H12A 4102   1.534   2.716   7.481 -0.7104  2.2042  0.7555
   56CHL1  H12B 4103   1.598   2.868   7.423 -0.5959  0.2126  2.3824
   56CHL1   C11 4104   1.639   2.700   7.294  0.6403 -0.2951  0.5396
   56CHL1  H11A 4105   1.654   2.591   7.307  2.8689 -0.2731 -1.1279
   56CHL1  H11B 4106   1.552   2.719   7.227  0.9399  1.9100  0.6917
   56CHL1    C9 4107   1.754   2.766   7.207 -0.1824 -0.3932 -0.9569
   56CHL1    H9 4108   1.722   2.871   7.192 -1.6142 -0.7623 -0.5729
   56CHL1   C10 4109   1.785   2.709   7.071 -0.0358 -0.0866  0.6848
   56CHL1   C19 4110   1.783   2.554   7.092 -0.1708  0.5965 -0.4090
   56CHL1  H19A 4111   1.793   2.517   6.987 -1.2831  0.9132 -0.6401
   56CHL1  H19B 4112   1.877   2.518   7.137 -0.0483 -2.2295 -2.5796
   56CHL1  H19C 4113   1.696   2.495   7.128 -0.1719 -0.0582 -1.4134
   56CHL1    C1 4114   1.685   2.762   6.965  0.5551 -0.1489  0.9336
   56CHL1   H1A 4115   1.585   2.719   6.985 -0.2414  0.7761 -0.8470
   56CHL1   H1B 4116   1.669   2.871   6.976 -1.4920  0.0342 -2.4774
   56CHL1    C2 4117   1.705   2.727   6.815 -0.0710  0.2414  0.2437
   56CHL1   H2A 4118   1.626   2.777   6.755 -0.0143 -0.6606 -0.5995
   56CHL1   H2B 4119   1.701   2.617   6.803  0.1439  0.1657  0.8536
   56CHL1   C20 4120   1.696   2.748   7.760 -1.3105 -0.2668  0.2051
   56CHL1   H20 4121   1.746   2.650   7.772  0.0352  0.4401  0.6370
   56CHL1   C21 4122   1.545   2.750   7.734 -0.3808  0.0775 -0.1416
   56CHL1  H21A 4123   1.515   2.849   7.692 -2.6426  0.1816  1.5632
   56CHL1  H21B 4124   1.499   2.742   7.834  0.6291 -2.0841  0.2034
   56CHL1  H21C 4125   1.499   2.663   7.681 -0.8752 -0.8908  1.8054
   56CHL1   C22 4126   1.727   2.827   7.890  0.4542  0.2885  0.0163
   56CHL1  H22A 4127   1.837   2.817   7.905  0.4091 -0.9592 -0.3629
   56CHL1  H22B 4128   1.708   2.936   7.883  0.4454  0.2415 -0.7367
   56CHL1   C23 4129   1.677   2.772   8.026  0.3576  0.1175 -0.4200
   56CHL1  H23A 4130   1.571   2.806   8.036  0.7262  1.2619 -0.2100
   56CHL1  H23B 4131   1.702   2.664   8.023  3.2681  0.6408 -5.0620
   56CHL1   C24 4132   1.760   2.837   8.141  0.2932 -0.0825  0.5316
   56CHL1  H24A 4133   1.864   2.802   8.129 -0.1521 -0.8750 -1.5029
   56CHL1  H24B 4134   1.759   2.947   8.122 -1.8601 -0.2775 -0.9465
   56CHL1   C25 4135   1.709   2.795   8.276 -0.1574 -0.8038 -0.5111
   56CHL1   H25 4136   1.598   2.799   8.283 -0.1431 -0.1382 -0.6028
   56CHL1   C26 4137   1.746   2.652   8.307 -0.5264 -0.3769 -0.6160
   56CHL1  H26A 4138   1.722   2.577   8.227  1.7117  0.9575 -2.6584
   56CHL1  H26B 4139   1.689   2.612   8.394 -0.5619 -0.1521 -0.5376
   56CHL1  H26C 4140   1.853   2.645   8.334 -0.8059 -0.8631  0.4166
   56CHL1   C27 4141   1.771   2.880   8.385 -0.4632 -0.1324 -0.4345
   56CHL1  H27A 4142   1.763   2.837   8.487 -1.5226 -0.2894 -0.5710
   56CHL1  H27B 4143   1.881   2.887   8.373 -0.4726 -1.2230 -1.3371
   56CHL1  H27C 4144   1.730   2.983   8.376  1.6133  0.7113 -0.8383
   57SAPC     N 4145   2.771   0.347  11.188 -0.2239 -0.5561  0.2035
   57SAPC   C12 4146   2.842   0.424  11.080  0.2522 -0.9832 -0.2327
   57SAPC  H12A 4147   2.914   0.492  11.123 -1.8359  0.2781  1.5132
   57SAPC  H12B 4148   2.773   0.493  11.032  1.4183 -0.6275 -1.4599
   57SAPC   C13 4149   2.718   0.440  11.292  0.1424 -0.0179 -0.3322
   57SAPC  H13A 4150   2.649   0.504  11.239 -0.1951 -0.0010  0.1149
   57SAPC  H13B 4151   2.666   0.386  11.370 -1.2398  0.5377 -0.8330
   57SAPC  H13C 4152   2.792   0.511  11.324 -0.9926  0.9939  0.1291
   57SAPC   C14 4153   2.666   0.268  11.133 -0.6642  0.3013 -0.2726
   57SAPC  H14A 4154   2.642   0.185  11.199  0.3612  0.0299 -0.2196
   57SAPC  H14B 4155   2.576   0.322  11.108  0.3671  1.3721 -1.8938
   57SAPC  H14C 4156   2.690   0.219  11.040  0.3975 -1.1296  0.7042
   57SAPC   C15 4157   2.872   0.258  11.250  0.3618  0.5002 -0.5426
   57SAPC  H15A 4158   2.917   0.201  11.170 -1.8059 -2.6017  0.2899
   57SAPC  H15B 4159   2.949   0.309  11.307 -1.1653  0.6476  1.5029
   57SAPC  H15C 4160   2.818   0.197  11.320  0.6242 -0.8981 -1.5105
   57SAPC   C11 4161   2.914   0.347  10.966 -0.0418 -0.2031 -0.0328
   57SAPC  H11A 4162   2.957   0.420  10.893  1.1778  0.5805  1.4114
   57SAPC  H11B 4163   2.838   0.277  10.926 -0.3039 -1.6397  2.7092
   57SAPC     P 4164   3.172   0.316  11.023 -0.0355 -0.2527  0.4854
   57SAPC   O13 4165   3.190   0.419  11.134 -0.4569 -0.4440  0.2002
   57SAPC   O14 4166   3.251   0.192  11.035  0.0974  0.0162 -0.2665
   57SAPC   O12 4167   3.024   0.267  11.013  0.4022 -0.1410 -0.0086
   57SAPC   O11 4168   3.194   0.393  10.881  0.1672 -0.3114 -0.2860
   57SAPC    C1 4169   3.177   0.318  10.757 -0.4337  0.2188  0.3688
   57SAPC    HA 4170   3.240   0.226  10.760 -0.8272 -0.0249  1.4540
   57SAPC    HB 4171   3.079   0.268  10.742  0.0084 -0.8235  0.8652
   57SAPC    C2 4172   3.201   0.411  10.630  0.3272  0.7227 -0.6031
   57SAPC    HS 4173   3.201   0.355  10.534  0.7983 -0.1829 -0.0831
   57SAPC   O21 4174   3.327   0.477  10.656  0.5794  0.0739  0.2182
   57SAPC   C21 4175   3.431   0.411  10.629 -0.1772 -0.0403 -0.1960
   57SAPC   O22 4176   3.449   0.289  10.611 -0.3797 -0.2656  0.2280
   57SAPC   C22 4177   3.549   0.511  10.611  0.0718 -0.8165  0.1890
   57SAPC   H2R 4178   3.519   0.614  10.586  2.1823 -0.2660 -0.3252
   57SAPC   H2S 4179   3.605   0.505  10.706  1.0294  0.0532 -0.2999
   57SAPC    C3 4180   3.095   0.522  10.616 -0.2933 -0.2034 -0.0158
   57SAPC    HX 4181   3.098   0.584  10.708 -1.6085  1.1688 -0.8645
   57SAPC    HY 4182   2.990   0.488  10.612 -0.7048  0.9887  0.2273
   57SAPC   O31 4183   3.128   0.616  10.510 -0.0045  0.6519 -0.0209
   57SAPC   C31 4184   3.099   0.570  10.390  0.0670 -0.0671  0.0134
   57SAPC   O32 4185   3.046   0.461  10.368  0.5454  0.5165 -0.3630
   57SAPC   C32 4186   3.158   0.672  10.290  1.1160  0.3198  0.4442
   57SAPC   H2X 4187   3.255   0.714  10.323  0.9053  0.4264  0.9491
   57SAPC   H2Y 4188   3.080   0.751  10.297 -1.4445 -1.9739 -0.6008
   57SAPC   C23 4189   3.651   0.470  10.505 -1.0674  0.4062  0.6363
   57SAPC   H3R 4190   3.678   0.363  10.512  0.4274  0.8144  1.5529
   57SAPC   H3S 4191   3.743   0.528  10.529 -1.3201  0.4440  1.5714
   57SAPC   C24 4192   3.606   0.529  10.366 -0.2839  0.2567  0.0439
   57SAPC   H4R 4193   3.697   0.534  10.303 -0.2573  0.4716  0.0967
   57SAPC   H4S 4194   3.581   0.636  10.381 -0.7390  0.3159 -1.0655
   57SAPC   C25 4195   3.490   0.458  10.295  0.0731 -1.0257  0.1048
   57SAPC   H5R 4196   3.392   0.444  10.343 -1.8872 -2.2244 -3.8232
   57SAPC   C26 4197   3.501   0.421  10.162 -0.5257 -0.1543  0.6510
   57SAPC   H6R 4198   3.409   0.372  10.127 -1.1679  0.4348  1.4650
   57SAPC   C27 4199   3.619   0.441  10.068 -0.6654 -0.0359 -0.0002
   57SAPC   H7R 4200   3.624   0.370   9.984 -1.2313 -0.5764  0.4171
   57SAPC   H7S 4201   3.710   0.423  10.130 -0.1732  0.5347 -0.5432
   57SAPC   C28 4202   3.638   0.578  10.001 -0.2303  0.0857  0.0478
   57SAPC   H8R 4203   3.598   0.662  10.060  1.7924  1.3736 -0.3398
   57SAPC   C29 4204   3.693   0.608   9.878  0.3807 -0.0079 -0.7329
   57SAPC   H9R 4205   3.693   0.714   9.848  0.5624  1.1776  2.8875
   57SAPC  C210 4206   3.756   0.501   9.794  0.3590  0.1613 -0.9110
   57SAPC  H10R 4207   3.671   0.458   9.739 -0.7687  0.1590  0.7582
   57SAPC  H10S 4208   3.808   0.424   9.855 -2.0275 -1.6774 -1.0816
   57SAPC  C211 4209   3.857   0.562   9.694 -0.5679  0.2747 -0.7797
   57SAPC  H11R 4210   3.827   0.579   9.589  0.1725 -2.6156 -1.5519
   57SAPC  C212 4211   3.985   0.584   9.723 -0.0419  0.2523 -0.5752
   57SAPC  H12R 4212   4.051   0.622   9.644 -0.8778  0.0638 -1.3912
   57SAPC  C213 4213   4.056   0.543   9.854 -0.7032  0.0749  0.6391
   57SAPC  H13R 4214   3.985   0.484   9.916 -0.4169 -0.3513  0.5695
   57SAPC  H13S 4215   4.089   0.637   9.904  1.6497 -0.0921 -0.4731
   57SAPC  C214 4216   4.193   0.479   9.839  0.4023 -0.3552 -0.0876
   57SAPC  H14R 4217   4.261   0.543   9.780 -3.2357  3.0988 -0.9775
   57SAPC  C215 4218   4.236   0.372   9.892  0.0453  0.4315 -0.2080
   57SAPC  H15R 4219   4.338   0.349   9.858 -0.0203 -0.4362  0.1472
   57SAPC  C216 4220   4.161   0.274   9.973 -0.0420  0.0743 -0.9702
   57SAPC  H16R 4221   4.215   0.179   9.994 -0.6738  0.3569  2.5808
   57SAPC  H16S 4222   4.065   0.252   9.921 -0.6198  2.0370 -0.8151
   57SAPC  C217 4223   4.126   0.332  10.107 -0.1874  0.3902  0.1461
   57SAPC  H17R 4224   4.062   0.422  10.093  0.3138  0.4455 -2.2164
   57SAPC  H17S 4225   4.216   0.361  10.166  0.7515 -0.4225 -0.8464
   57SAPC  C218 4226   4.066   0.228  10.201  0.3156  0.8481  0.3788
   57SAPC  H18R 4227   4.146   0.155  10.227  1.2705  2.1008  1.0955
   57SAPC  H18S 4228   3.979   0.181  10.151  0.2242  0.6648  0.7067
   57SAPC  C219 4229   4.016   0.287  10.334  0.0887 -0.1706 -0.2707
   57SAPC  H19R 4230   3.957   0.208  10.387 -1.9490  0.3707 -1.6320
   57SAPC  H19S 4231   3.936   0.355  10.298  1.5961  0.9583 -1.6373
   57SAPC  C220 4232   4.109   0.374  10.419 -0.2038  0.1116 -0.0772
   57SAPC  H20R 4233   4.135   0.465  10.362  2.0234  0.8921  1.9904
   57SAPC  H20S 4234   4.205   0.325  10.447 -0.5447  0.4055  1.7261
   57SAPC  H20T 4235   4.058   0.397  10.515 -0.3258 -0.9096  0.1115
   57SAPC   C33 4236   3.146   0.614  10.143  0.2296 -0.2667  0.6408
   57SAPC   H3X 4237   3.043   0.574  10.129  0.3316  0.5663 -3.5459
   57SAPC   H3Y 4238   3.209   0.522  10.143  1.8522  0.7958  0.7634
   57SAPC   C34 4239   3.211   0.711  10.045  0.6655 -0.3523 -0.3750
   57SAPC   H4X 4240   3.310   0.750  10.079 -0.1796 -0.0008  1.8457
   57SAPC   H4Y 4241   3.153   0.806  10.042 -0.1475 -0.8502 -2.2213
   57SAPC   C35 4242   3.240   0.647   9.907 -0.4848  0.4003 -0.9275
   57SAPC   H5X 4243   3.147   0.610   9.859 -0.6192 -0.8695  0.2239
   57SAPC   H5Y 4244   3.293   0.549   9.917 -2.9014 -1.0787 -1.8616
   57SAPC   C36 4245   3.326   0.737   9.816  1.4258  0.0561 -0.6318
   57SAPC   H6X 4246   3.434   0.726   9.841  1.7384  1.4970 -1.2433
   57SAPC   H6Y 4247   3.300   0.844   9.826 -1.3840 -0.6388  0.2506
   57SAPC   C37 4248   3.336   0.681   9.676  0.0623 -0.0884  0.4274
   57SAPC   H7X 4249   3.237   0.667   9.628  1.1627 -2.2852 -1.3867
   57SAPC   H7Y 4250   3.389   0.584   9.686  2.0665  0.7210 -1.3910
   57SAPC   C38 4251   3.427   0.765   9.584  0.0659  0.0563  0.5247
   57SAPC   H8X 4252   3.527   0.774   9.631 -0.7151 -0.1006  2.2828
   57SAPC   H8Y 4253   3.381   0.864   9.563 -2.0823 -1.2051 -1.2416
   57SAPC   C39 4254   3.450   0.686   9.451  0.1375 -1.1516 -0.1863
   57SAPC   H9X 4255   3.348   0.672   9.410 -0.2721  0.3683  0.2541
   57SAPC   H9Y 4256   3.491   0.583   9.466 -0.8618 -1.6443 -0.7258
   57SAPC  C310 4257   3.536   0.756   9.347  0.3612 -0.1948  0.3107
   57SAPC  H10X 4258   3.545   0.696   9.254  2.9743 -1.6764  1.4048
   57SAPC  H10Y 4259   3.645   0.768   9.370  0.7326 -1.8246 -0.5144
   57SAPC  C311 4260   3.492   0.895   9.303  0.2302  0.1929 -0.6544
   57SAPC  H11X 4261   3.497   0.962   9.391  0.7729  0.4975 -0.9124
   57SAPC  H11Y 4262   3.383   0.886   9.285  0.1733 -1.1517  0.2011
   57SAPC  C312 4263   3.569   0.936   9.180 -0.2665 -0.0507 -0.1482
   57SAPC  H12X 4264   3.548   0.875   9.089 -0.9728 -2.9852  1.8414
   57SAPC  H12Y 4265   3.678   0.925   9.199 -0.2868  2.0945  1.5498
   57SAPC  C313 4266   3.571   1.084   9.135 -0.0443  0.1866 -0.2344
   57SAPC  H13X 4267   3.593   1.155   9.217 -0.4824 -1.5711  1.4815
   57SAPC  H13Y 4268   3.466   1.108   9.108  0.2591  0.2296 -1.4387
   57SAPC  C314 4269   3.651   1.111   9.002 -0.3925 -0.1074 -0.5107
   57SAPC  H14X 4270   3.632   1.213   8.963 -0.3708 -0.7601 -2.3170
   57SAPC  H14Y 4271   3.613   1.032   8.934 -0.8294  0.3755 -0.8318
   57SAPC  C315 4272   3.805   1.101   9.014  0.1993 -0.4513  0.3920
   57SAPC  H15X 4273   3.837   0.998   9.042  1.3641  0.5230  3.0274
   57SAPC  H15Y 4274   3.843   1.162   9.099  3.6404 -0.9582 -0.6368
   57SAPC  C316 4275   3.885   1.145   8.893 -0.1009  0.0583  0.5081
   57SAPC  H16X 4276   3.857   1.248   8.862  2.5738  0.8049  0.3163
   57SAPC  H16Y 4277   3.856   1.080   8.808 -2.5261  1.2787  0.2962
   57SAPC  C317 4278   4.034   1.142   8.919 -0.5341 -0.1764 -0.5833
   57SAPC  H17X 4279   4.066   1.037   8.940 -2.2922 -0.5656  0.3997
   57SAPC  H17Y 4280   4.065   1.200   9.008 -0.5062 -0.7728 -0.1946
   57SAPC  C318 4281   4.113   1.196   8.801  0.2018 -0.2946 -0.3727
   57SAPC  H18X 4282   4.102   1.306   8.812  0.4349 -0.5224  3.8037
   57SAPC  H18Y 4283   4.070   1.170   8.702  0.6408  2.0994 -1.2650
   57SAPC  H18Z 4284   4.220   1.167   8.803  0.1090 -0.7122  2.9209
   58SAPC     N 4285   5.722   5.321  10.977 -0.0963 -0.5195  0.6736
   58SAPC   C12 4286   5.694   5.363  10.833 -0.2004  0.4098  0.3083
   58SAPC  H12A 4287   5.595   5.406  10.829 -0.4479 -0.0840  0.9275
   58SAPC  H12B 4288   5.681   5.278  10.768 -1.2520  1.2225 -0.5811
   58SAPC   C13 4289   5.854   5.244  10.989 -0.2391  0.5306  0.2157
   58SAPC  H13A 4290   5.869   5.164  10.918  2.0061 -1.7805  3.0222
   58SAPC  H13B 4291   5.933   5.316  10.973 -0.1430  0.3622 -0.0937
   58SAPC  H13C 4292   5.868   5.199  11.086  1.9578 -2.2228 -1.2297
   58SAPC   C14 4293   5.732   5.448  11.062 -0.2040 -0.2689 -0.8485
   58SAPC  H14A 4294   5.760   5.532  11.001 -0.4057  1.5264  1.3645
   58SAPC  H14B 4295   5.639   5.482  11.105  1.6433  0.3078  3.2296
   58SAPC  H14C 4296   5.808   5.435  11.139  1.1806  0.6752 -1.9943
   58SAPC   C15 4297   5.620   5.234  11.036 -0.5190 -1.0143  0.1341
   58SAPC  H15A 4298   5.637   5.223  11.142  1.8048 -0.8037 -0.1710
   58SAPC  H15B 4299   5.520   5.274  11.029  0.2556  1.0456  0.2406
   58SAPC  H15C 4300   5.626   5.136  10.990  0.0892 -2.3886  2.9432
   58SAPC   C11 4301   5.792   5.458  10.756  0.9333 -1.0084 -0.3414
   58SAPC  H11A 4302   5.759   5.480  10.652  0.9522 -3.7905 -1.0099
   58SAPC  H11B 4303   5.884   5.396  10.746  0.4293 -2.0921  1.2436
   58SAPC     P 4304   5.752   5.718  10.805 -0.0914 -0.1780  0.4967
   58SAPC   O13 4305   5.602   5.703  10.809  0.3673  0.1959  0.0622
   58SAPC   O14 4306   5.805   5.827  10.891 -0.1620 -0.0420 -0.2666
   58SAPC   O12 4307   5.818   5.578  10.834  0.4944  0.2791 -0.1967
   58SAPC   O11 4308   5.798   5.742  10.653  0.7783 -0.4064 -0.0116
   58SAPC    C1 4309   5.935   5.770  10.628 -0.1856 -0.3056  0.0702
   58SAPC    HA 4310   5.971   5.858  10.686 -0.8811 -1.2184  1.9724
   58SAPC    HB 4311   5.992   5.678  10.651  0.3628  0.1794  0.7139
   58SAPC    C2 4312   5.945   5.797  10.473  0.1330  0.2528 -0.3835
   58SAPC    HS 4313   6.046   5.761  10.443  0.4877 -1.0442  2.0993
   58SAPC   O21 4314   5.909   5.930  10.447 -0.2853 -0.1624 -0.0698
   58SAPC   C21 4315   6.008   5.998  10.401  0.2911 -0.3210  0.3007
   58SAPC   O22 4316   6.126   5.967  10.395 -0.3607  0.2735 -0.1108
   58SAPC   C22 4317   5.952   6.138  10.383 -0.2524 -0.4678 -0.0255
   58SAPC   H2R 4318   5.845   6.147  10.414 -0.1168 -1.4421  0.7791
   58SAPC   H2S 4319   6.020   6.197  10.448  0.6546 -0.4813 -0.9539
   58SAPC    C3 4320   5.849   5.695  10.400  0.8147  0.3751 -0.6261
   58SAPC    HX 4321   5.745   5.712  10.432  0.4332 -3.5534  0.8021
   58SAPC    HY 4322   5.866   5.594  10.445 -1.1799  0.3625  0.2161
   58SAPC   O31 4323   5.853   5.695  10.250 -0.6180 -0.1203  0.1699
   58SAPC   C31 4324   5.771   5.611  10.184  0.4096  0.2290  1.1694
   58SAPC   O32 4325   5.686   5.540  10.236  0.0399 -0.1216  0.4998
   58SAPC   C32 4326   5.802   5.600  10.030 -0.6072  0.5463  0.1817
   58SAPC   H2X 4327   5.853   5.503  10.014 -2.5651 -0.4530 -0.4269
   58SAPC   H2Y 4328   5.873   5.681  10.006  0.0075 -0.1080 -0.2431
   58SAPC   C23 4329   5.973   6.194  10.242  0.7914  0.8752  0.0572
   58SAPC   H3R 4330   6.075   6.189  10.196  0.0474 -0.2260 -1.5657
   58SAPC   H3S 4331   5.946   6.302  10.247 -0.2529  0.6435 -0.3887
   58SAPC   C24 4332   5.869   6.147  10.146  0.3749 -0.5976 -0.3283
   58SAPC   H4R 4333   5.875   6.227  10.069  1.6406 -0.2750  0.0881
   58SAPC   H4S 4334   5.769   6.157  10.193 -0.1489 -0.9036 -1.3329
   58SAPC   C25 4335   5.896   6.017  10.081 -0.1356 -0.6404 -0.5905
   58SAPC   H5R 4336   5.893   5.929  10.147 -1.0841 -1.8006 -2.1202
   58SAPC   C26 4337   5.923   5.996   9.961 -0.0866 -0.3786  0.7623
   58SAPC   H6R 4338   5.949   5.895   9.924  1.4412 -0.3016  1.5393
   58SAPC   C27 4339   5.933   6.104   9.854  0.2706 -0.0817  1.3434
   58SAPC   H7R 4340   6.035   6.117   9.812  0.9086  0.4499  3.0107
   58SAPC   H7S 4341   5.889   6.203   9.880  0.3405  0.6309 -1.0122
   58SAPC   C28 4342   5.835   6.047   9.748  0.1888  0.2215 -0.1273
   58SAPC   H8R 4343   5.735   6.043   9.793  1.4196  0.6318  2.8650
   58SAPC   C29 4344   5.847   6.027   9.607  0.5842 -0.3904 -0.4381
   58SAPC   H9R 4345   5.764   5.983   9.550 -1.3491  0.8615  1.2787
   58SAPC  C210 4346   5.981   6.027   9.543 -0.4905 -0.2854  0.1954
   58SAPC  H10R 4347   5.991   5.950   9.463  1.5916 -0.3338  0.4383
   58SAPC  H10S 4348   6.063   6.014   9.618 -0.9151  2.8614  1.3850
   58SAPC  C211 4349   6.012   6.167   9.492 -0.2068 -0.3871 -0.1643
   58SAPC  H11R 4350   5.991   6.248   9.563  1.9817 -0.9112  1.1957
   58SAPC  C212 4351   6.052   6.207   9.374  0.4907 -0.4975  0.2626
   58SAPC  H12R 4352   6.082   6.312   9.363  1.2792 -0.5348  1.8084
   58SAPC  C213 4353   6.077   6.109   9.260 -0.6509 -0.1632 -0.5977
   58SAPC  H13R 4354   6.049   6.154   9.163 -1.1152  0.3379 -0.2329
   58SAPC  H13S 4355   6.003   6.027   9.271  0.3519 -1.1168 -0.7508
   58SAPC  C214 4356   6.221   6.063   9.254  1.1453  0.3895 -0.3107
   58SAPC  H14R 4357   6.285   6.052   9.344 -0.8426 -1.9249  0.9314
   58SAPC  C215 4358   6.294   6.049   9.140 -0.3605 -0.3356  0.1674
   58SAPC  H15R 4359   6.402   6.031   9.152  0.0524  2.7963  2.1828
   58SAPC  C216 4360   6.249   6.075   8.997 -0.5319  0.0112  0.4648
   58SAPC  H16R 4361   6.303   6.162   8.953 -1.9452  0.7239  0.0522
   58SAPC  H16S 4362   6.141   6.097   8.984 -1.1006 -2.7859  0.0107
   58SAPC  C217 4363   6.279   5.949   8.912  0.6885  0.1264  0.2792
   58SAPC  H17R 4364   6.231   5.867   8.970 -2.1101  1.0261 -0.5810
   58SAPC  H17S 4365   6.387   5.938   8.890  0.4801  1.7763 -1.7666
   58SAPC  C218 4366   6.216   5.965   8.778  0.2594 -0.0702  0.0532
   58SAPC  H18R 4367   6.254   6.055   8.724 -0.9760  0.6510  0.3570
   58SAPC  H18S 4368   6.109   5.990   8.794  0.5599  2.5783 -1.4569
   58SAPC  C219 4369   6.235   5.850   8.683  0.1432  0.3823 -0.0968
   58SAPC  H19R 4370   6.222   5.747   8.722 -0.8635 -0.0730 -1.5321
   58SAPC  H19S 4371   6.336   5.861   8.637  1.4336  1.4513  2.7556
   58SAPC  C220 4372   6.133   5.859   8.572  0.4894  0.2176  0.2431
   58SAPC  H20R 4373   6.135   5.770   8.504  2.3304  1.1008 -0.9683
   58SAPC  H20S 4374   6.145   5.944   8.502  0.2158  1.7304  1.9741
   58SAPC  H20T 4375   6.029   5.866   8.609  0.4408  1.6979 -0.1131
   58SAPC   C33 4376   5.674   5.603   9.944 -0.1398 -0.5178  0.1901
   58SAPC   H3X 4377   5.612   5.692   9.969  0.3864  1.5399 -4.7400
   58SAPC   H3Y 4378   5.619   5.507   9.954  3.4908 -2.8803 -0.6568
   58SAPC   C34 4379   5.705   5.615   9.797  0.6945 -0.2555  0.0187
   58SAPC   H4X 4380   5.778   5.697   9.785  2.1899 -1.5754 -0.1968
   58SAPC   H4Y 4381   5.619   5.629   9.728  1.1630 -0.1696 -0.5494
   58SAPC   C35 4382   5.766   5.484   9.750  0.5353 -0.2780  0.2846
   58SAPC   H5X 4383   5.707   5.396   9.783 -0.0238  0.2283  0.6659
   58SAPC   H5Y 4384   5.865   5.465   9.797  0.6067 -1.4636 -0.3043
   58SAPC   C36 4385   5.784   5.476   9.597  0.3752  0.3208 -0.3202
   58SAPC   H6X 4386   5.682   5.462   9.555  0.2150  0.2771  0.0700
   58SAPC   H6Y 4387   5.832   5.383   9.561 -0.8411 -1.5527  2.4823
   58SAPC   C37 4388   5.835   5.599   9.518 -0.9701  0.2301  0.0121
   58SAPC   H7X 4389   5.946   5.605   9.527 -0.8114 -0.4572 -1.2679
   58SAPC   H7Y 4390   5.797   5.694   9.560 -0.1694  0.4957  0.1570
   58SAPC   C38 4391   5.809   5.584   9.365  0.5791 -0.0796  0.0495
   58SAPC   H8X 4392   5.700   5.599   9.350  0.2432 -1.8998  0.4959
   58SAPC   H8Y 4393   5.835   5.487   9.318  0.9803 -0.5020  1.1087
   58SAPC   C39 4394   5.877   5.693   9.279  0.0566  0.0617 -0.5198
   58SAPC   H9X 4395   5.987   5.681   9.287 -0.2202 -2.5254  0.2089
   58SAPC   H9Y 4396   5.841   5.792   9.315  0.0472 -0.2572  0.3616
   58SAPC  C310 4397   5.837   5.674   9.133 -0.2897  0.2878 -0.1944
   58SAPC  H10X 4398   5.729   5.680   9.110 -0.4012  0.2817  0.3195
   58SAPC  H10Y 4399   5.851   5.568   9.102  1.2679  0.7061 -1.0579
   58SAPC  C311 4400   5.932   5.764   9.046  0.0260 -0.0171  0.0049
   58SAPC  H11X 4401   6.035   5.772   9.087 -0.2948 -0.3147  0.9004
   58SAPC  H11Y 4402   5.903   5.871   9.041  0.3106  0.0593 -0.0396
   58SAPC  C312 4403   5.947   5.690   8.906  0.2592 -0.1411  0.0628
   58SAPC  H12X 4404   5.980   5.591   8.943  0.0278 -0.6260 -0.9817
   58SAPC  H12Y 4405   6.031   5.732   8.846  1.1326 -1.0643  0.6013
   58SAPC  C313 4406   5.825   5.689   8.825  1.4551  0.1289 -0.9766
   58SAPC  H13X 4407   5.813   5.795   8.792  2.1228  1.1301  1.7155
   58SAPC  H13Y 4408   5.747   5.656   8.896  2.9293 -0.0374  0.6147
   58SAPC  C314 4409   5.819   5.583   8.711  0.6457 -0.5340 -0.3764
   58SAPC  H14X 4410   5.850   5.493   8.768  2.0443 -0.3806 -0.8557
   58SAPC  H14Y 4411   5.905   5.611   8.646  0.7704 -0.0961 -0.0270
   58SAPC  C315 4412   5.677   5.569   8.650 -0.3533  0.3779 -0.2478
   58SAPC  H15X 4413   5.616   5.556   8.742  1.0073  3.8423  1.3463
   58SAPC  H15Y 4414   5.668   5.478   8.588  3.0474  0.5172 -1.1322
   58SAPC  C316 4415   5.637   5.681   8.557 -0.5617 -0.3232  0.2623
   58SAPC  H16X 4416   5.620   5.781   8.604 -1.0045  0.4114 -1.3736
   58SAPC  H16Y 4417   5.546   5.659   8.498 -1.8252 -1.4435  2.5014
   58SAPC  C317 4418   5.747   5.717   8.455  0.5757  0.0464  0.2791
   58SAPC  H17X 4419   5.832   5.769   8.506  1.2902 -0.6398 -0.1809
   58SAPC  H17Y 4420   5.702   5.783   8.378 -0.2147 -0.4157  0.3452
   58SAPC  C318 4421   5.814   5.603   8.377 -0.3963  0.1079 -0.1953
   58SAPC  H18X 4422   5.893   5.632   8.304 -0.8862  0.9124 -0.4143
   58SAPC  H18Y 4423   5.735   5.550   8.321  1.2650 -1.6861 -0.9261
   58SAPC  H18Z 4424   5.858   5.528   8.446 -1.1912  1.3464  1.7388
   59SAPC     N 4425   0.910   0.546  11.594  0.1917 -0.0631  1.1359
   59SAPC   C12 4426   0.984   0.529  11.461  0.2568 -0.1548  0.0554
   59SAPC  H12A 4427   1.065   0.458  11.466  0.6754  0.1964 -1.3070
   59SAPC  H12B 4428   1.041   0.617  11.437  0.9847 -1.2121 -2.4539
   59SAPC   C13 4429   0.795   0.646  11.587 -0.1711  0.5944 -0.2101
   59SAPC  H13A 4430   0.734   0.603  11.509 -0.2680 -2.1459  1.2507
   59SAPC  H13B 4431   0.739   0.645  11.680 -2.1163  0.4454 -1.3370
   59SAPC  H13C 4432   0.828   0.745  11.559  1.4475  0.4845  1.1301
   59SAPC   C14 4433   0.870   0.411  11.651 -0.0062 -0.6083  0.6943
   59SAPC  H14A 4434   0.836   0.346  11.571  0.5421  2.5244 -2.3438
   59SAPC  H14B 4435   0.961   0.365  11.686  0.1415 -1.4575 -0.7127
   59SAPC  H14C 4436   0.803   0.431  11.732  3.2029  0.4402  3.2958
   59SAPC   C15 4437   1.007   0.604  11.693 -0.2240 -0.5973  0.2082
   59SAPC  H15A 4438   1.099   0.554  11.719 -0.2259 -0.6609  0.0934
   59SAPC  H15B 4439   1.041   0.696  11.647  4.2418 -1.1899  1.8171
   59SAPC  H15C 4440   0.963   0.624  11.789  2.5529  2.6987  1.0012
   59SAPC   C11 4441   0.896   0.505  11.331  0.2627 -0.3316  0.6120
   59SAPC  H11A 4442   0.855   0.404  11.352  0.8438 -0.8115 -0.4698
   59SAPC  H11B 4443   0.963   0.496  11.243 -1.4053  0.0989 -0.7574
   59SAPC     P 4444   0.835   0.742  11.231  0.1208  0.3082 -0.0865
   59SAPC   O13 4445   0.713   0.821  11.192  0.2002 -0.5599  0.2312
   59SAPC   O14 4446   0.945   0.810  11.306 -0.2083  0.7769 -0.5978
   59SAPC   O12 4447   0.797   0.606  11.304 -0.4129  0.2429 -0.4929
   59SAPC   O11 4448   0.892   0.686  11.093 -0.3809  0.0687  0.0430
   59SAPC    C1 4449   0.811   0.593  11.021  0.6009 -0.2709  0.3894
   59SAPC    HA 4450   0.804   0.498  11.077 -1.3648 -0.5935 -0.3140
   59SAPC    HB 4451   0.705   0.626  11.014  0.0119 -1.3459  3.1922
   59SAPC    C2 4452   0.880   0.564  10.882 -0.0776 -0.4085 -0.6424
   59SAPC    HS 4453   0.983   0.535  10.911 -0.3834  0.9475  2.0971
   59SAPC   O21 4454   0.879   0.680  10.798 -0.1564  0.4179  0.8129
   59SAPC   C21 4455   0.964   0.677  10.699 -0.0943  0.5576  0.3148
   59SAPC   O22 4456   1.046   0.590  10.672  0.6954 -0.4900 -0.2351
   59SAPC   C22 4457   0.951   0.815  10.626 -0.0562  0.0855 -0.3093
   59SAPC   H2R 4458   0.901   0.890  10.691 -0.2194 -1.1067  0.9877
   59SAPC   H2S 4459   1.055   0.847  10.602  0.5840 -1.2741  0.5295
   59SAPC    C3 4460   0.811   0.440  10.824  0.7386 -0.3730 -0.7635
   59SAPC    HX 4461   0.807   0.362  10.904  2.5358  1.4559  1.2577
   59SAPC    HY 4462   0.876   0.398  10.744  1.2693  0.3695 -0.7277
   59SAPC   O31 4463   0.671   0.467  10.790 -1.3752 -0.2139 -0.6141
   59SAPC   C31 4464   0.650   0.466  10.659 -0.4458  0.1816 -0.2644
   59SAPC   O32 4465   0.735   0.434  10.577  0.5759 -0.0358  0.1369
   59SAPC   C32 4466   0.509   0.505  10.621 -0.4255 -0.4782 -0.6928
   59SAPC   H2X 4467   0.507   0.616  10.629 -1.3635 -0.5126 -0.3038
   59SAPC   H2Y 4468   0.444   0.462  10.700 -0.2133 -1.4371 -1.0258
   59SAPC   C23 4469   0.868   0.801  10.497  0.9452  0.7869  0.2182
   59SAPC   H3R 4470   0.846   0.900  10.453 -0.1212  0.0969 -0.8636
   59SAPC   H3S 4471   0.768   0.756  10.514  0.4052  0.8917 -2.2831
   59SAPC   C24 4472   0.950   0.717  10.400  0.2490 -0.0748 -0.4364
   59SAPC   H4R 4473   0.977   0.621  10.448  2.1753  1.0062  0.7900
   59SAPC   H4S 4474   1.045   0.774  10.390 -0.1056  0.3650 -1.5584
   59SAPC   C25 4475   0.881   0.678  10.272 -0.9657 -0.2222  0.1210
   59SAPC   H5R 4476   0.776   0.646  10.269 -1.2974  0.8653 -1.0945
   59SAPC   C26 4477   0.935   0.682  10.153  0.4186 -0.7417  0.1239
   59SAPC   H6R 4478   0.869   0.651  10.071 -1.0164 -1.3972  1.4819
   59SAPC   C27 4479   1.080   0.714  10.104  0.2797  0.1883 -0.0293
   59SAPC   H7R 4480   1.135   0.760  10.189 -0.8980  0.5188  0.5803
   59SAPC   H7S 4481   1.079   0.792  10.025  0.3645 -2.0254 -2.3226
   59SAPC   C28 4482   1.136   0.589  10.041  0.1349  0.2967 -0.2070
   59SAPC   H8R 4483   1.222   0.550  10.098 -0.7347  0.4217  1.2609
   59SAPC   C29 4484   1.109   0.548   9.912  0.3891  0.0261 -0.0749
   59SAPC   H9R 4485   1.145   0.455   9.866 -1.1766  0.4346 -2.3107
   59SAPC  C210 4486   1.015   0.628   9.813  1.2729  0.4572 -0.4801
   59SAPC  H10R 4487   1.075   0.661   9.726 -0.6645  2.2682 -1.1989
   59SAPC  H10S 4488   0.987   0.726   9.858  1.0401 -0.3351  1.1719
   59SAPC  C211 4489   0.896   0.553   9.761 -0.0419 -0.4821  0.2261
   59SAPC  H11R 4490   0.851   0.473   9.821 -1.1083 -0.9988 -1.2125
   59SAPC  C212 4491   0.842   0.576   9.634  0.4978  0.4728  0.2603
   59SAPC  H12R 4492   0.747   0.523   9.615 -1.5738  3.4069  1.6801
   59SAPC  C213 4493   0.880   0.686   9.529 -0.3586  0.0569 -0.2603
   59SAPC  H13R 4494   0.975   0.731   9.566  0.2405 -0.9064 -0.5882
   59SAPC  H13S 4495   0.806   0.767   9.517 -0.0097  0.2483 -1.2136
   59SAPC  C214 4496   0.911   0.649   9.384  0.0732  0.4121  0.0980
   59SAPC  H14R 4497   1.016   0.631   9.354  0.5608  2.2132  0.5848
   59SAPC  C215 4498   0.813   0.612   9.295  0.0201 -0.2937 -0.4374
   59SAPC  H15R 4499   0.847   0.564   9.202  0.9577 -2.0179  0.7352
   59SAPC  C216 4500   0.661   0.611   9.319  0.5171  0.1097  0.1879
   59SAPC  H16R 4501   0.643   0.631   9.427 -1.7369  2.8774 -0.5692
   59SAPC  H16S 4502   0.607   0.514   9.308 -1.4822  1.0082  1.5696
   59SAPC  C217 4503   0.591   0.720   9.239  0.2323 -0.0770  0.0538
   59SAPC  H17R 4504   0.637   0.818   9.260  0.2257 -0.0711  0.0404
   59SAPC  H17S 4505   0.484   0.730   9.270 -1.1378 -2.4855 -3.2166
   59SAPC  C218 4506   0.578   0.707   9.084 -0.4216  0.0970 -0.2615
   59SAPC  H18R 4507   0.559   0.601   9.059 -1.9707 -0.6662  3.4450
   59SAPC  H18S 4508   0.668   0.738   9.026 -0.7185  1.9958  0.2288
   59SAPC  C219 4509   0.468   0.798   9.026 -0.0953 -0.2887  0.5599
   59SAPC  H19R 4510   0.485   0.902   9.062  2.4960  0.3337 -2.0550
   59SAPC  H19S 4511   0.366   0.768   9.058 -0.2113 -0.8307 -0.2662
   59SAPC  C220 4512   0.466   0.801   8.868  0.6247  0.2228 -0.4151
   59SAPC  H20R 4513   0.426   0.707   8.824 -0.2860  0.8614 -0.9864
   59SAPC  H20S 4514   0.566   0.813   8.821  0.2555 -0.8666 -1.5469
   59SAPC  H20T 4515   0.407   0.887   8.830 -0.9553  0.1987  1.8091
   59SAPC   C33 4516   0.469   0.453  10.483  0.2155 -0.5970 -0.6932
   59SAPC   H3X 4517   0.360   0.471  10.476  0.3384  0.4249 -0.1428
   59SAPC   H3Y 4518   0.495   0.345  10.475  0.4219 -0.6258  0.3227
   59SAPC   C34 4519   0.537   0.534  10.372 -0.5602 -0.4496 -0.6447
   59SAPC   H4X 4520   0.647   0.528  10.384 -0.7554 -0.7244  1.2224
   59SAPC   H4Y 4521   0.527   0.644  10.381  2.6297 -0.1687  0.5285
   59SAPC   C35 4522   0.483   0.495  10.229 -0.2936  0.3100  0.4388
   59SAPC   H5X 4523   0.373   0.480  10.235 -0.4863  1.4863  0.2133
   59SAPC   H5Y 4524   0.535   0.401  10.201 -1.9114 -0.2689 -0.7980
   59SAPC   C36 4525   0.515   0.605  10.122 -0.4864  0.2760  0.2575
   59SAPC   H6X 4526   0.624   0.616  10.137 -0.4037 -1.2672  1.0087
   59SAPC   H6Y 4527   0.467   0.702  10.148 -1.0042 -0.1037  0.7538
   59SAPC   C37 4528   0.456   0.578   9.982  0.0009  0.5899 -0.4608
   59SAPC   H7X 4529   0.346   0.576   9.994 -0.0156  3.5634  0.6418
   59SAPC   H7Y 4530   0.482   0.476   9.947 -2.6594 -0.4716  0.3980
   59SAPC   C38 4531   0.493   0.687   9.894 -0.4982 -0.5931 -0.3622
   59SAPC   H8X 4532   0.602   0.679   9.871  0.0866  2.0446  1.1112
   59SAPC   H8Y 4533   0.473   0.790   9.929 -0.8986 -0.1020 -1.9607
   59SAPC   C39 4534   0.416   0.691   9.764  0.0845 -0.0893  0.1759
   59SAPC   H9X 4535   0.429   0.785   9.706 -1.8589  0.7075  0.9436
   59SAPC   H9Y 4536   0.308   0.692   9.790 -0.2869  1.2588 -1.2528
   59SAPC  C310 4537   0.420   0.570   9.675  0.3975 -0.7987  0.4874
   59SAPC  H10X 4538   0.380   0.483   9.731  0.0533  0.5470  2.4359
   59SAPC  H10Y 4539   0.526   0.537   9.670  0.1414 -1.5815  0.0457
   59SAPC  C311 4540   0.358   0.583   9.536  0.3193 -0.0047 -0.0320
   59SAPC  H11X 4541   0.399   0.665   9.473 -2.4775  2.8653  1.5417
   59SAPC  H11Y 4542   0.248   0.601   9.538  0.3297  0.5956 -2.4041
   59SAPC  C312 4543   0.360   0.448   9.467  0.3561  0.3666 -0.8746
   59SAPC  H12X 4544   0.294   0.372   9.514 -0.9315 -0.4088 -3.7081
   59SAPC  H12Y 4545   0.463   0.407   9.456  1.0637  1.1420  2.0437
   59SAPC  C313 4546   0.313   0.450   9.321 -0.8384 -0.2820  0.3804
   59SAPC  H13X 4547   0.385   0.511   9.261 -1.8339  0.1729 -0.3683
   59SAPC  H13Y 4548   0.218   0.507   9.312  0.8768  2.7566  0.0051
   59SAPC  C314 4549   0.298   0.312   9.244 -0.5668 -0.8208  0.0712
   59SAPC  H14X 4550   0.236   0.244   9.306  1.5125 -1.2084  1.8477
   59SAPC  H14Y 4551   0.400   0.268   9.235 -0.1953 -0.4833  2.0248
   59SAPC  C315 4552   0.245   0.323   9.107 -0.6441  0.2019 -0.2338
   59SAPC  H15X 4553   0.153   0.385   9.110 -0.9931 -0.2529 -1.0278
   59SAPC  H15Y 4554   0.212   0.220   9.081 -2.8513  0.5745  0.8289
   59SAPC  C316 4555   0.344   0.388   9.007  0.5392  0.0491  0.2758
   59SAPC  H16X 4556   0.443   0.394   9.056  1.3859  0.8065 -1.4532
   59SAPC  H16Y 4557   0.320   0.497   9.005  0.4840  0.0552  1.0539
   59SAPC  C317 4558   0.346   0.330   8.869 -0.1498 -0.7906  0.8150
   59SAPC  H17X 4559   0.248   0.334   8.818  1.1246  1.1334 -1.7477
   59SAPC  H17Y 4560   0.368   0.222   8.882  1.5513 -0.1856  3.6757
   59SAPC  C318 4561   0.452   0.382   8.764  0.5738  0.1208  0.1242
   59SAPC  H18X 4562   0.553   0.401   8.807  0.2296  2.1323  0.1319
   59SAPC  H18Y 4563   0.417   0.481   8.730 -0.8632  0.7133  2.9774
   59SAPC  H18Z 4564   0.468   0.307   8.684 -2.1207 -0.8026  0.3654
   60SAPC     N 4565   1.725   3.976  11.143 -0.2289  0.2592  0.1175
   60SAPC   C12 4566   1.777   3.992  11.003  0.6880  0.1679 -0.2687
   60SAPC  H12A 4567   1.710   3.940  10.936  1.6769 -0.5499 -0.7274
   60SAPC  H12B 4568   1.878   3.955  11.003  0.3825 -0.7462 -1.3441
   60SAPC   C13 4569   1.759   3.831  11.184  0.5226 -0.7376  0.3177
   60SAPC  H13A 4570   1.693   3.800  11.264 -2.8761 -0.6185 -2.2301
   60SAPC  H13B 4571   1.730   3.766  11.103 -1.2388 -0.4749  0.7111
   60SAPC  H13C 4572   1.864   3.810  11.197  1.0081  1.4120  0.2057
   60SAPC   C14 4573   1.790   4.060  11.245  0.1434 -0.8165 -0.6012
   60SAPC  H14A 4574   1.894   4.036  11.261  0.7124  2.4964  1.6431
   60SAPC  H14B 4575   1.801   4.163  11.216 -1.7887 -0.7663 -1.2764
   60SAPC  H14C 4576   1.744   4.059  11.343  0.5465  1.1034 -0.3580
   60SAPC   C15 4577   1.578   3.992  11.150 -0.0316  0.4510  0.2916
   60SAPC  H15A 4578   1.524   3.904  11.115  1.6923 -0.6249  0.2308
   60SAPC  H15B 4579   1.534   4.014  11.247 -0.2853  0.9940  0.0581
   60SAPC  H15C 4580   1.558   4.078  11.088  2.9435  1.2036  0.2345
   60SAPC   C11 4581   1.771   4.138  10.943 -0.9285 -0.7361  0.2697
   60SAPC  H11A 4582   1.837   4.142  10.854 -1.1319 -4.0712 -0.1385
   60SAPC  H11B 4583   1.820   4.205  11.017  1.9353 -2.0014 -0.3593
   60SAPC     P 4584   1.565   4.157  10.783  0.1816  0.1986  0.3387
   60SAPC   O13 4585   1.538   4.011  10.777  0.2666  0.7898  0.3454
   60SAPC   O14 4586   1.446   4.251  10.776  0.2606  0.3648 -0.6749
   60SAPC   O12 4587   1.637   4.191  10.916 -0.1219  0.1571  0.0982
   60SAPC   O11 4588   1.664   4.200  10.670  0.2806  0.4902  0.9117
   60SAPC    C1 4589   1.610   4.289  10.561  0.0405 -0.1878 -0.4841
   60SAPC    HA 4590   1.527   4.231  10.515 -0.8178 -1.2966  2.2042
   60SAPC    HB 4591   1.564   4.381  10.605 -1.1241 -1.4970  1.1820
   60SAPC    C2 4592   1.711   4.327  10.455 -0.4065 -0.3740 -0.2620
   60SAPC    HS 4593   1.659   4.408  10.398  1.6163  1.0211 -0.2256
   60SAPC   O21 4594   1.752   4.224  10.360  0.4773  0.0074 -0.2016
   60SAPC   C21 4595   1.661   4.199  10.280 -0.2924  0.4011  0.3280
   60SAPC   O22 4596   1.554   4.257  10.268 -0.7699 -0.1493  1.0763
   60SAPC   C22 4597   1.709   4.069  10.204 -0.4338  0.1924  0.5648
   60SAPC   H2R 4598   1.795   4.097  10.140 -1.0830 -0.9205 -0.8652
   60SAPC   H2S 4599   1.731   3.996  10.286 -0.5065 -0.2080  0.2310
   60SAPC    C3 4600   1.841   4.389  10.518 -0.1595 -0.3137  0.0576
   60SAPC    HX 4601   1.884   4.318  10.593  0.0502 -1.0976 -0.7855
   60SAPC    HY 4602   1.808   4.478  10.576  0.0915 -1.1153  1.4855
   60SAPC   O31 4603   1.940   4.431  10.412 -0.1183  1.0261  0.6911
   60SAPC   C31 4604   2.027   4.337  10.385  0.0585 -0.2554 -0.2439
   60SAPC   O32 4605   2.037   4.231  10.445 -0.2487  0.2729  0.2076
   60SAPC   C32 4606   2.123   4.373  10.270 -0.2061 -0.6355 -0.1746
   60SAPC   H2X 4607   2.204   4.298  10.268  2.8156  2.3693  0.8218
   60SAPC   H2Y 4608   2.167   4.470  10.302 -1.5509  0.2645 -0.9015
   60SAPC   C23 4609   1.596   4.007  10.122  0.7559 -0.3955 -0.7490
   60SAPC   H3R 4610   1.497   4.020  10.171  0.6044  1.2436 -1.4010
   60SAPC   H3S 4611   1.618   3.899  10.110  2.1681 -0.0507 -1.4802
   60SAPC   C24 4612   1.602   4.041   9.977 -0.1944 -0.3937  0.0950
   60SAPC   H4R 4613   1.544   3.968   9.917  0.0281 -0.1778 -0.4000
   60SAPC   H4S 4614   1.707   4.036   9.939  0.0370  0.6603  0.5601
   60SAPC   C25 4615   1.541   4.172   9.950  0.3398 -0.3470 -0.0493
   60SAPC   H5R 4616   1.554   4.242  10.034 -2.7273 -0.0466  0.2907
   60SAPC   C26 4617   1.478   4.211   9.834  0.5530  0.3616  0.3972
   60SAPC   H6R 4618   1.438   4.313   9.843  0.0987  0.1534  0.8370
   60SAPC   C27 4619   1.460   4.123   9.713  0.1439 -0.6848 -0.0963
   60SAPC   H7R 4620   1.371   4.157   9.656  0.8050  0.7218 -0.3237
   60SAPC   H7S 4621   1.437   4.023   9.756  0.8778 -0.8695 -0.1173
   60SAPC   C28 4622   1.583   4.104   9.630 -0.6998  0.8054  0.0263
   60SAPC   H8R 4623   1.675   4.078   9.685  0.1919  0.8151 -1.4101
   60SAPC   C29 4624   1.576   4.103   9.494  0.2896  0.0486 -0.1725
   60SAPC   H9R 4625   1.669   4.091   9.437 -0.1550 -0.0948 -0.8924
   60SAPC  C210 4626   1.455   4.130   9.406  0.5497  0.2430  0.6295
   60SAPC  H10R 4627   1.363   4.116   9.467 -0.1278 -2.6548 -0.8894
   60SAPC  H10S 4628   1.448   4.056   9.323  0.7720  0.5513  0.3340
   60SAPC  C211 4629   1.457   4.271   9.349  0.0928  0.7289 -0.0392
   60SAPC  H11R 4630   1.443   4.347   9.427  1.2215  1.8771 -0.9102
   60SAPC  C212 4631   1.460   4.312   9.219 -0.8897  0.1507 -0.3100
   60SAPC  H12R 4632   1.467   4.421   9.206 -1.4865  0.2226 -0.0591
   60SAPC  C213 4633   1.479   4.216   9.100 -0.2537  0.3013 -0.7881
   60SAPC  H13R 4634   1.377   4.180   9.073 -0.7982  1.8376 -0.8522
   60SAPC  H13S 4635   1.532   4.120   9.122 -0.2280  0.1037 -1.6746
   60SAPC  C214 4636   1.555   4.283   8.989 -0.3287  0.0383  0.1952
   60SAPC  H14R 4637   1.595   4.383   9.014 -1.5124  0.8152 -0.8379
   60SAPC  C215 4638   1.560   4.238   8.870  0.0922  0.0623  0.6769
   60SAPC  H15R 4639   1.622   4.288   8.794  4.2629 -3.3524  1.4760
   60SAPC  C216 4640   1.506   4.111   8.812  0.3836  0.7503  0.2404
   60SAPC  H16R 4641   1.482   4.039   8.894  0.9041 -0.1594 -0.3895
   60SAPC  H16S 4642   1.580   4.052   8.753 -0.7178  0.0682 -0.4796
   60SAPC  C217 4643   1.372   4.131   8.734  0.3631 -1.4415  0.1185
   60SAPC  H17R 4644   1.308   4.194   8.798  1.2243  2.3986 -2.4262
   60SAPC  H17S 4645   1.333   4.028   8.723  2.1214 -2.0391 -1.0463
   60SAPC  C218 4646   1.392   4.197   8.597 -0.6239  0.7710  0.4320
   60SAPC  H18R 4647   1.465   4.127   8.550  0.9869  0.2169  3.5230
   60SAPC  H18S 4648   1.447   4.293   8.606  0.4215  0.1589  0.7721
   60SAPC  C219 4649   1.264   4.205   8.509 -0.3946 -0.1353 -0.2314
   60SAPC  H19R 4650   1.295   4.261   8.418 -1.4028  1.0559  0.1327
   60SAPC  H19S 4651   1.185   4.249   8.572 -0.6288 -2.0572  0.8635
   60SAPC  C220 4652   1.209   4.071   8.450  0.2542  0.6014  1.1140
   60SAPC  H20R 4653   1.270   4.036   8.364 -1.4099 -0.2928  0.2573
   60SAPC  H20S 4654   1.105   4.081   8.412  0.4835 -0.0548  0.2848
   60SAPC  H20T 4655   1.218   3.989   8.524 -0.8283 -2.6690 -2.0663
   60SAPC   C33 4656   2.045   4.387  10.136  0.0369 -0.0314  0.9031
   60SAPC   H3X 4657   2.110   4.441  10.064  2.1093 -0.8618  2.0824
   60SAPC   H3Y 4658   1.956   4.449  10.161  0.6963  1.2342  0.2652
   60SAPC   C34 4659   2.028   4.250  10.064 -0.3016 -0.5816 -0.0804
   60SAPC   H4X 4660   1.987   4.188  10.146  2.4597 -1.2255  0.9375
   60SAPC   H4Y 4661   2.127   4.204  10.044 -0.2137 -0.6509  0.5053
   60SAPC   C35 4662   1.943   4.253   9.937  0.1670  0.1187 -0.0821
   60SAPC   H5X 4663   1.847   4.308   9.941 -0.0843 -0.1719 -1.5740
   60SAPC   H5Y 4664   1.908   4.150   9.919 -0.8606  0.7290 -1.8361
   60SAPC   C36 4665   2.020   4.299   9.809 -0.2050  0.6779 -0.5923
   60SAPC   H6X 4666   2.116   4.245   9.825  0.8865  3.1334  2.4329
   60SAPC   H6Y 4667   2.052   4.405   9.815 -0.0655  0.6033  0.0991
   60SAPC   C37 4668   1.941   4.264   9.687 -0.2806  0.7072 -0.1644
   60SAPC   H7X 4669   1.841   4.311   9.677 -0.3193  0.3223 -2.1256
   60SAPC   H7Y 4670   1.913   4.156   9.686  1.7830  0.0337  2.7547
   60SAPC   C38 4671   2.020   4.291   9.562 -0.1685 -0.1711 -0.2073
   60SAPC   H8X 4672   2.124   4.259   9.584  0.6088  0.6927 -2.4023
   60SAPC   H8Y 4673   2.022   4.399   9.536 -3.1892  0.2089  0.6684
   60SAPC   C39 4674   1.978   4.233   9.423  0.9634  0.3769 -0.3198
   60SAPC   H9X 4675   1.881   4.276   9.390  0.1204 -1.4766 -0.3915
   60SAPC   H9Y 4676   1.967   4.124   9.440 -0.3448 -0.0150 -3.0788
   60SAPC  C310 4677   2.091   4.251   9.320  0.3322 -0.2092  0.3622
   60SAPC  H10X 4678   2.120   4.155   9.272  0.1027  0.3398 -0.9268
   60SAPC  H10Y 4679   2.188   4.286   9.361 -0.2319 -0.6801  2.1990
   60SAPC  C311 4680   2.058   4.346   9.198  0.6646 -0.1783  0.0527
   60SAPC  H11X 4681   2.052   4.446   9.244  0.3163 -0.6407  1.0320
   60SAPC  H11Y 4682   1.961   4.311   9.155  1.4409 -1.8677 -0.4139
   60SAPC  C312 4683   2.177   4.352   9.096  0.9638 -0.0492  0.4792
   60SAPC  H12X 4684   2.192   4.244   9.078 -1.5311 -0.7006  1.8394
   60SAPC  H12Y 4685   2.251   4.401   9.163 -0.0704  1.3897  0.6129
   60SAPC  C313 4686   2.133   4.433   8.970 -0.7517  0.3396 -0.0193
   60SAPC  H13X 4687   2.218   4.436   8.899 -1.6627 -1.6645 -1.2767
   60SAPC  H13Y 4688   2.096   4.532   9.004  2.7349  1.1159  2.0853
   60SAPC  C314 4689   2.023   4.359   8.890 -0.5251 -0.3020 -0.4870
   60SAPC  H14X 4690   1.923   4.342   8.936 -1.4378 -1.0138 -2.5935
   60SAPC  H14Y 4691   2.066   4.264   8.852 -0.9189 -0.7566  0.1789
   60SAPC  C315 4692   1.982   4.452   8.773  0.1716  0.7415  0.4465
   60SAPC  H15X 4693   2.069   4.472   8.707 -1.2042  0.2650 -1.5910
   60SAPC  H15Y 4694   1.948   4.548   8.817 -0.4573  0.6286  0.2126
   60SAPC  C316 4695   1.876   4.393   8.670  0.0904  0.1987 -0.4983
   60SAPC  H16X 4696   1.782   4.391   8.728 -0.5973  1.5408 -1.5046
   60SAPC  H16Y 4697   1.912   4.296   8.632  0.4619 -0.0498  0.4587
   60SAPC  C317 4698   1.851   4.496   8.555  0.3547 -0.0808 -0.3708
   60SAPC  H17X 4699   1.944   4.516   8.497  0.3720 -0.1771 -0.3774
   60SAPC  H17Y 4700   1.824   4.594   8.600  0.1165 -0.2374 -0.1699
   60SAPC  C318 4701   1.736   4.468   8.456 -0.4112  0.4718  0.0055
   60SAPC  H18X 4702   1.647   4.426   8.508 -1.6066  1.3647 -1.2475
   60SAPC  H18Y 4703   1.765   4.383   8.391  0.1311  0.1501  0.6467
   60SAPC  H18Z 4704   1.699   4.552   8.394 -0.9103  2.2227  2.5004
   61SAPC     N 4705   2.444   3.536  10.948  0.2695 -0.1181 -0.2538
   61SAPC   C12 4706   2.434   3.409  11.028  0.2632 -0.1595 -0.4237
   61SAPC  H12A 4707   2.369   3.421  11.114  3.4466  1.2896  2.0174
   61SAPC  H12B 4708   2.530   3.391  11.074  0.1203 -2.3956 -0.9226
   61SAPC   C13 4709   2.534   3.642  11.009  0.4473  0.1784  0.6851
   61SAPC  H13A 4710   2.635   3.604  11.011 -0.0340 -1.1371  0.8962
   61SAPC  H13B 4711   2.545   3.730  10.948 -0.6045 -0.2888 -0.2131
   61SAPC  H13C 4712   2.507   3.677  11.108 -1.7974  0.8191 -0.1004
   61SAPC   C14 4713   2.498   3.506  10.816 -0.1197 -0.4224  0.2493
   61SAPC  H14A 4714   2.601   3.472  10.821  1.0729  2.6547 -1.1538
   61SAPC  H14B 4715   2.440   3.432  10.764 -1.8345  1.8871 -1.2784
   61SAPC  H14C 4716   2.509   3.596  10.758  0.0885 -0.2106  0.6083
   61SAPC   C15 4717   2.302   3.586  10.926 -1.1597 -0.3771 -0.6931
   61SAPC  H15A 4718   2.240   3.501  10.902  0.3614 -1.7219 -0.0906
   61SAPC  H15B 4719   2.258   3.614  11.020  1.3919 -1.5754  0.9534
   61SAPC  H15C 4720   2.295   3.667  10.855  0.4643  0.7977  0.4213
   61SAPC   C11 4721   2.405   3.272  10.952 -0.7894 -0.1804 -0.3088
   61SAPC  H11A 4722   2.419   3.193  11.029 -1.8679  0.4579  0.5827
   61SAPC  H11B 4723   2.486   3.253  10.880  0.3040  1.3079  0.4749
   61SAPC     P 4724   2.153   3.234  10.974  0.0393  0.1671 -0.0478
   61SAPC   O13 4725   2.193   3.157  11.088  0.0277 -0.1396 -0.9140
   61SAPC   O14 4726   2.059   3.354  11.001 -0.1364  0.6767  0.2872
   61SAPC   O12 4727   2.275   3.279  10.888 -0.1720  0.1087 -0.0821
   61SAPC   O11 4728   2.070   3.139  10.877  0.3004  0.2739 -0.0578
   61SAPC    C1 4729   2.134   3.025  10.824 -0.6521 -0.2529 -1.0015
   61SAPC    HA 4730   2.243   3.036  10.809 -0.5518 -0.9131 -0.8161
   61SAPC    HB 4731   2.116   2.941  10.895 -2.4592  2.3694  1.8639
   61SAPC    C2 4732   2.088   3.004  10.681 -0.0240 -0.1521 -0.4095
   61SAPC    HS 4733   2.140   2.923  10.625  0.1871 -1.2226  1.2628
   61SAPC   O21 4734   2.087   3.131  10.606 -0.8043  1.0169  0.3312
   61SAPC   C21 4735   2.205   3.175  10.571  0.0283  0.5828  0.6847
   61SAPC   O22 4736   2.308   3.106  10.575 -0.2352 -0.3042 -0.3374
   61SAPC   C22 4737   2.201   3.320  10.525 -0.1498 -0.3366 -0.2461
   61SAPC   H2R 4738   2.107   3.341  10.469  0.6472  2.8206 -0.6050
   61SAPC   H2S 4739   2.203   3.380  10.618  0.6257 -1.5652  0.5521
   61SAPC    C3 4740   1.948   2.951  10.690  0.5399  0.0810 -0.3061
   61SAPC    HX 4741   1.888   3.040  10.663  1.5182  0.2299 -2.1713
   61SAPC    HY 4742   1.924   2.915  10.792  0.7827 -0.7359 -0.5254
   61SAPC   O31 4743   1.916   2.846  10.593  0.1065 -0.2855 -0.7216
   61SAPC   C31 4744   1.974   2.731  10.619  0.3082 -0.4536 -0.0064
   61SAPC   O32 4745   2.037   2.701  10.721 -0.1916 -0.5932 -0.5843
   61SAPC   C32 4746   1.960   2.643  10.496 -0.3674 -0.3849 -0.1711
   61SAPC   H2X 4747   1.853   2.635  10.466 -0.3386 -0.5623 -0.2311
   61SAPC   H2Y 4748   1.990   2.539  10.521  0.8388 -0.2164 -0.8420
   61SAPC   C23 4749   2.326   3.363  10.447  0.4626 -0.3132  0.4668
   61SAPC   H3R 4750   2.371   3.277  10.394 -0.9529 -1.3551  0.9125
   61SAPC   H3S 4751   2.411   3.410  10.501 -1.6487  2.0670  1.9543
   61SAPC   C24 4752   2.292   3.472  10.340 -0.1292 -0.0495  0.6805
   61SAPC   H4R 4753   2.386   3.509  10.295 -0.8196 -0.1359 -0.9032
   61SAPC   H4S 4754   2.247   3.555  10.400 -1.5860  0.7134 -1.3438
   61SAPC   C25 4755   2.202   3.426  10.225  0.6642  1.2990  0.0423
   61SAPC   H5R 4756   2.214   3.322  10.191 -0.7787  0.7931  0.9949
   61SAPC   C26 4757   2.113   3.495  10.149  0.1285 -0.3351 -0.1617
   61SAPC   H6R 4758   2.057   3.444  10.069 -2.8693  1.0162  0.9381
   61SAPC   C27 4759   2.078   3.643  10.151  0.1056 -0.4748  0.2291
   61SAPC   H7R 4760   2.104   3.683  10.050  2.0406 -1.3455  0.3383
   61SAPC   H7S 4761   2.140   3.702  10.222  0.6708 -0.8699  0.0686
   61SAPC   C28 4762   1.938   3.673  10.190  0.4168 -0.6288  0.4967
   61SAPC   H8R 4763   1.925   3.674  10.299 -2.4305  3.7894  0.3837
   61SAPC   C29 4764   1.835   3.711  10.111  0.2923  0.0701  0.0391
   61SAPC   H9R 4765   1.738   3.741  10.155  0.8897  1.3321  0.5297
   61SAPC  C210 4766   1.842   3.726   9.966  0.4637 -0.1076  0.3517
   61SAPC  H10R 4767   1.740   3.719   9.923  0.4284 -0.5122  0.5022
   61SAPC  H10S 4768   1.900   3.642   9.922  1.4055  0.3202  0.7389
   61SAPC  C211 4769   1.900   3.861   9.927  0.1566 -0.0326  0.2866
   61SAPC  H11R 4770   1.893   3.938  10.006 -2.5226  0.9064 -0.7663
   61SAPC  C212 4771   1.946   3.886   9.805 -0.6367  0.2670  0.2785
   61SAPC  H12R 4772   1.998   3.983   9.793 -1.4886  1.0183  2.2131
   61SAPC  C213 4773   1.944   3.792   9.686  0.0354 -0.3477  0.0439
   61SAPC  H13R 4774   1.883   3.703   9.713 -1.6036  1.1835  1.6932
   61SAPC  H13S 4775   2.050   3.759   9.675  0.6905  1.6034  0.0483
   61SAPC  C214 4776   1.896   3.864   9.557 -0.5009 -0.1457  0.0853
   61SAPC  H14R 4777   1.891   3.974   9.556 -1.3405 -0.1646  0.9402
   61SAPC  C215 4778   1.854   3.795   9.447 -0.1936 -0.3317 -0.0567
   61SAPC  H15R 4779   1.822   3.853   9.359  0.4720  1.5844  0.9276
   61SAPC  C216 4780   1.831   3.643   9.434  0.5724  0.2494 -0.0581
   61SAPC  H16R 4781   1.742   3.621   9.370  0.4012 -0.5526  0.4419
   61SAPC  H16S 4782   1.798   3.605   9.533 -0.5109  0.4110 -0.3329
   61SAPC  C217 4783   1.945   3.557   9.376 -0.5003  0.5045 -0.5579
   61SAPC  H17R 4784   2.029   3.555   9.448  0.2661  2.4500 -1.3238
   61SAPC  H17S 4785   1.973   3.610   9.282  0.7236 -1.3960 -1.3230
   61SAPC  C218 4786   1.912   3.415   9.323  0.0178 -0.4148 -0.1252
   61SAPC  H18R 4787   1.815   3.413   9.269 -0.3329  0.2399  0.4601
   61SAPC  H18S 4788   1.891   3.358   9.416  1.7133  1.0897  1.2714
   61SAPC  C219 4789   2.031   3.349   9.252  0.6199 -0.1110  0.3215
   61SAPC  H19R 4790   2.109   3.329   9.329  0.6358  0.5666  0.4902
   61SAPC  H19S 4791   2.075   3.427   9.186 -0.3899 -0.4514 -0.7846
   61SAPC  C220 4792   2.006   3.231   9.159 -0.5106  0.0664  0.5384
   61SAPC  H20R 4793   1.941   3.255   9.072  0.5371  2.0101  0.2544
   61SAPC  H20S 4794   1.963   3.137   9.203 -0.5188 -0.4382 -0.5177
   61SAPC  H20T 4795   2.099   3.193   9.113 -1.8802 -1.7287 -0.9455
   61SAPC   C33 4796   2.056   2.680  10.373  0.8754 -0.0112 -0.1444
   61SAPC   H3X 4797   2.103   2.779  10.389  3.2108 -1.0535 -0.2111
   61SAPC   H3Y 4798   1.997   2.681  10.279  1.4952 -0.3884 -0.5381
   61SAPC   C34 4799   2.175   2.586  10.357 -0.1445 -0.0167  0.1196
   61SAPC   H4X 4800   2.136   2.484  10.335 -0.0135 -0.0042 -0.1697
   61SAPC   H4Y 4801   2.228   2.575  10.454  2.4854 -1.9351 -1.4036
   61SAPC   C35 4802   2.288   2.631  10.263  0.0551  0.8670  0.1428
   61SAPC   H5X 4803   2.383   2.581  10.292 -0.6619 -1.5508 -1.3745
   61SAPC   H5Y 4804   2.311   2.738  10.281 -0.7041  1.0147  0.2984
   61SAPC   C36 4805   2.257   2.614  10.112 -0.4039  0.7136  0.5178
   61SAPC   H6X 4806   2.168   2.674  10.084 -0.8272 -1.2705 -3.0984
   61SAPC   H6Y 4807   2.247   2.504  10.101  5.0643  0.0211 -0.4107
   61SAPC   C37 4808   2.368   2.649  10.016  0.1992 -0.4429  0.3420
   61SAPC   H7X 4809   2.469   2.634  10.060 -0.1317  0.5574  1.5256
   61SAPC   H7Y 4810   2.355   2.759  10.010  1.6331 -0.1725  1.4883
   61SAPC   C38 4811   2.362   2.587   9.877 -1.1238 -0.1051  0.5716
   61SAPC   H8X 4812   2.260   2.580   9.833 -0.5857  0.0376 -0.7349
   61SAPC   H8Y 4813   2.389   2.480   9.888  0.7744  0.3261  0.3498
   61SAPC   C39 4814   2.460   2.650   9.784 -0.3303 -0.7109 -0.1913
   61SAPC   H9X 4815   2.566   2.636   9.815  0.1276  0.9260 -0.8786
   61SAPC   H9Y 4816   2.438   2.759   9.786 -0.5212 -0.7478 -0.2413
   61SAPC  C310 4817   2.454   2.611   9.629  0.1421 -0.0411 -0.2210
   61SAPC  H10X 4818   2.352   2.644   9.600  0.4011  1.0704  0.0801
   61SAPC  H10Y 4819   2.467   2.501   9.621  1.6401  0.1386 -0.5077
   61SAPC  C311 4820   2.548   2.678   9.526 -0.3089 -0.5598  0.5343
   61SAPC  H11X 4821   2.648   2.634   9.542 -0.1617 -0.2403  0.5049
   61SAPC  H11Y 4822   2.551   2.787   9.550 -0.9670  0.0090 -1.6601
   61SAPC  C312 4823   2.499   2.649   9.382 -0.0267 -0.4104 -0.1037
   61SAPC  H12X 4824   2.413   2.712   9.354  0.7743  0.3703 -0.8844
   61SAPC  H12Y 4825   2.472   2.541   9.382 -0.6637 -0.2603  0.8599
   61SAPC  C313 4826   2.601   2.671   9.271 -0.7980 -0.0074  0.4444
   61SAPC  H13X 4827   2.683   2.597   9.284 -2.7042 -2.3988 -0.4505
   61SAPC  H13Y 4828   2.646   2.772   9.284  0.2181 -0.5844  1.5505
   61SAPC  C314 4829   2.551   2.674   9.123 -0.3418  0.2635 -0.6373
   61SAPC  H14X 4830   2.629   2.734   9.072 -0.0972 -1.5447 -2.4789
   61SAPC  H14Y 4831   2.453   2.726   9.117 -1.1575 -1.1898 -0.3645
   61SAPC  C315 4832   2.528   2.526   9.059  0.7971 -0.6136 -0.1530
   61SAPC  H15X 4833   2.465   2.465   9.127  1.6269 -0.6403  0.6037
   61SAPC  H15Y 4834   2.632   2.489   9.041  1.2816  0.3219  0.6092
   61SAPC  C316 4835   2.445   2.538   8.928  0.6768  0.7446 -0.2173
   61SAPC  H16X 4836   2.372   2.622   8.936  0.6587  0.7592 -0.5381
   61SAPC  H16Y 4837   2.374   2.455   8.908  1.7975  0.3020 -2.6396
   61SAPC  C317 4838   2.521   2.557   8.800  0.2548  0.1785  0.3110
   61SAPC  H17X 4839   2.605   2.625   8.824  0.6422  0.2113 -1.0284
   61SAPC  H17Y 4840   2.472   2.614   8.718  1.2411  0.4860 -0.0872
   61SAPC  C318 4841   2.579   2.425   8.740 -0.2168  0.3347  0.1085
   61SAPC  H18X 4842   2.628   2.458   8.646 -1.6866 -1.6427 -1.4488
   61SAPC  H18Y 4843   2.499   2.352   8.715  0.5132  0.3234 -2.4160
   61SAPC  H18Z 4844   2.654   2.375   8.806 -1.4613 -0.9456  0.6153
   62SAPC     N 4845   1.482   2.216  10.581  0.6091 -0.4365  0.1753
   62SAPC   C12 4846   1.538   2.346  10.647  0.3793 -0.0527  0.2201
   62SAPC  H12A 4847   1.626   2.383  10.596 -0.5308  1.6020 -0.2207
   62SAPC  H12B 4848   1.584   2.323  10.742 -1.8876 -1.4728  1.0342
   62SAPC   C13 4849   1.462   2.253  10.433  0.6319 -0.6876 -0.0746
   62SAPC  H13A 4850   1.381   2.322  10.418  0.8578 -0.8273 -2.1475
   62SAPC  H13B 4851   1.556   2.282  10.388  0.6362 -0.3109  0.1661
   62SAPC  H13C 4852   1.438   2.159  10.386 -1.2719 -0.1603 -0.2090
   62SAPC   C14 4853   1.568   2.099  10.581  0.5301  0.0336 -0.1235
   62SAPC  H14A 4854   1.511   2.012  10.550 -0.2065  0.5701 -0.3267
   62SAPC  H14B 4855   1.662   2.117  10.531  1.5803  1.7545  2.3027
   62SAPC  H14C 4856   1.595   2.082  10.684 -2.5919 -1.0904  0.6357
   62SAPC   C15 4857   1.346   2.183  10.645  0.3881  0.4793 -0.1861
   62SAPC  H15A 4858   1.275   2.262  10.625 -0.3770 -0.1697 -0.0694
   62SAPC  H15B 4859   1.307   2.091  10.605 -0.2601  1.2873 -1.4808
   62SAPC  H15C 4860   1.358   2.181  10.753  2.2516 -0.4745 -0.3649
   62SAPC   C11 4861   1.444   2.462  10.666 -0.6299 -0.7904  0.7239
   62SAPC  H11A 4862   1.351   2.423  10.714 -2.5720 -1.1151 -2.8910
   62SAPC  H11B 4863   1.426   2.499  10.563  2.3866 -1.6723 -0.2110
   62SAPC     P 4864   1.608   2.655  10.679  0.0102  0.0525  0.5223
   62SAPC   O13 4865   1.603   2.780  10.749  0.2826 -0.1796 -0.1598
   62SAPC   O14 4866   1.735   2.578  10.682 -0.3413  0.4138 -0.1241
   62SAPC   O12 4867   1.498   2.563  10.747  0.2396  0.6731 -0.9504
   62SAPC   O11 4868   1.561   2.677  10.527 -0.4990  0.2945  0.4138
   62SAPC    C1 4869   1.446   2.763  10.501 -0.0975 -0.3806 -0.0754
   62SAPC    HA 4870   1.355   2.703  10.518 -0.9988  1.1051  0.4965
   62SAPC    HB 4871   1.435   2.849  10.570 -1.1672 -2.2579  2.2048
   62SAPC    C2 4872   1.438   2.810  10.353 -0.1572  0.2019 -0.4260
   62SAPC    HS 4873   1.416   2.715  10.300  1.4901  0.0212 -0.8339
   62SAPC   O21 4874   1.559   2.875  10.308  0.0573  0.2541  0.4334
   62SAPC   C21 4875   1.652   2.792  10.257 -0.5524 -1.1429 -0.1760
   62SAPC   O22 4876   1.644   2.673  10.253  0.2665  0.8415  0.3222
   62SAPC   C22 4877   1.763   2.883  10.204 -0.5525 -0.4222  0.3316
   62SAPC   H2R 4878   1.852   2.846  10.258 -0.1080 -1.8349 -1.2929
   62SAPC   H2S 4879   1.776   2.869  10.095  1.7314 -0.0707  0.5088
   62SAPC    C3 4880   1.313   2.904  10.337 -0.1923 -0.8627 -0.4034
   62SAPC    HX 4881   1.327   2.999  10.394 -4.2318  1.3663 -2.7116
   62SAPC    HY 4882   1.226   2.840  10.364  2.1242 -3.3974  1.6253
   62SAPC   O31 4883   1.309   2.962  10.208  0.0099 -0.0717 -0.3723
   62SAPC   C31 4884   1.305   2.893  10.102 -1.8077 -0.0427 -0.7442
   62SAPC   O32 4885   1.271   2.775  10.093 -0.3093  0.3062 -0.8725
   62SAPC   C32 4886   1.358   2.974   9.985 -0.2996  0.2433  0.1012
   62SAPC   H2X 4887   1.420   3.054  10.030 -1.4509  1.5723 -0.6363
   62SAPC   H2Y 4888   1.267   3.026   9.950  0.2941  3.2516  2.6476
   62SAPC   C23 4889   1.753   3.042  10.230  0.6154 -0.2455  0.2470
   62SAPC   H3R 4890   1.742   3.064  10.338  0.1683  0.4183  0.0726
   62SAPC   H3S 4891   1.663   3.079  10.177 -0.1187 -1.7002  0.4139
   62SAPC   C24 4892   1.876   3.110  10.173 -0.1258 -0.0648  0.2065
   62SAPC   H4R 4893   1.862   3.220  10.175 -2.5669 -0.2723 -1.3634
   62SAPC   H4S 4894   1.882   3.085  10.065  0.2789  0.5000  0.0917
   62SAPC   C25 4895   2.000   3.077  10.249 -0.6999 -0.7032  0.6978
   62SAPC   H5R 4896   2.000   3.101  10.356  1.1116 -0.5396  0.7005
   62SAPC   C26 4897   2.121   3.037  10.192  0.1245  0.5622 -0.2705
   62SAPC   H6R 4898   2.206   3.021  10.260  0.3091  1.3006 -0.3204
   62SAPC   C27 4899   2.159   3.014  10.044 -0.0402 -0.0992 -0.2622
   62SAPC   H7R 4900   2.266   2.983  10.040  0.1453 -0.4151  3.4752
   62SAPC   H7S 4901   2.157   3.115   9.997 -0.6741  0.5618  1.1170
   62SAPC   C28 4902   2.065   2.918   9.975  0.3550  0.3824  0.0001
   62SAPC   H8R 4903   1.985   2.875  10.036  1.1803 -0.7239  0.3266
   62SAPC   C29 4904   2.056   2.891   9.842  0.8359 -0.2956 -0.2849
   62SAPC   H9R 4905   1.976   2.821   9.814 -0.9444  1.7528 -0.5636
   62SAPC  C210 4906   2.129   2.957   9.727 -0.1464 -0.3453 -0.8524
   62SAPC  H10R 4907   2.210   2.885   9.701 -0.4484 -0.4941 -1.4024
   62SAPC  H10S 4908   2.173   3.051   9.765 -0.7920 -0.8780  1.3887
   62SAPC  C211 4909   2.030   2.988   9.617 -0.0177  0.7672  0.8270
   62SAPC  H11R 4910   1.937   3.035   9.653 -0.1129  0.5641  0.8503
   62SAPC  C212 4911   2.042   2.959   9.486 -0.3809  0.5940 -0.0814
   62SAPC  H12R 4912   1.958   2.977   9.418 -0.2757 -1.8026 -0.9269
   62SAPC  C213 4913   2.165   2.898   9.418  0.1371 -0.1057 -0.0477
   62SAPC  H13R 4914   2.250   2.904   9.490 -0.9714 -1.7993  1.5005
   62SAPC  H13S 4915   2.200   2.972   9.343  0.5061 -1.3195 -1.1057
   62SAPC  C214 4916   2.145   2.759   9.362  0.5706 -0.1350  0.5980
   62SAPC  H14R 4917   2.143   2.686   9.444  0.6830  1.3926  2.0127
   62SAPC  C215 4918   2.136   2.726   9.232  0.3956  0.0712  0.1822
   62SAPC  H15R 4919   2.122   2.621   9.202  2.6162 -0.2712  0.1394
   62SAPC  C216 4920   2.138   2.828   9.116 -0.7117  0.3353 -0.2298
   62SAPC  H16R 4921   2.185   2.776   9.029 -1.0982 -0.1556 -0.1551
   62SAPC  H16S 4922   2.188   2.921   9.148 -1.1758 -0.1683  2.1140
   62SAPC  C217 4923   1.995   2.873   9.071 -0.2277  0.1393  0.6710
   62SAPC  H17R 4924   1.943   2.935   9.148 -3.7203 -0.0826 -1.3440
   62SAPC  H17S 4925   1.927   2.789   9.045  0.0870 -0.2832  1.1763
   62SAPC  C218 4926   2.004   2.963   8.937 -0.2831  0.4720  0.0317
   62SAPC  H18R 4927   2.056   2.905   8.858 -1.0033 -0.1146 -0.0171
   62SAPC  H18S 4928   2.051   3.061   8.964 -1.3822  1.0163  0.0334
   62SAPC  C219 4929   1.860   2.999   8.887 -0.6307 -0.4436 -0.7244
   62SAPC  H19R 4930   1.819   3.060   8.971 -0.8608 -1.0756 -0.3748
   62SAPC  H19S 4931   1.797   2.909   8.879 -0.4317 -0.9422  2.0977
   62SAPC  C220 4932   1.856   3.095   8.762 -0.0386  0.3602 -0.0911
   62SAPC  H20R 4933   1.749   3.109   8.735  0.1217 -1.0974 -1.6474
   62SAPC  H20S 4934   1.888   3.044   8.669 -0.1268  1.2581 -0.6214
   62SAPC  H20T 4935   1.913   3.189   8.779 -2.7763  1.9615  1.0133
   62SAPC   C33 4936   1.423   2.899   9.860  0.8931 -0.6700  0.3742
   62SAPC   H3X 4937   1.408   2.962   9.770  2.1316 -0.7561  0.0890
   62SAPC   H3Y 4938   1.366   2.809   9.828  3.5284 -1.5151 -2.4391
   62SAPC   C34 4939   1.568   2.855   9.874 -0.3644 -0.1283 -0.1319
   62SAPC   H4X 4940   1.597   2.791   9.960  1.9312  2.2538  0.9662
   62SAPC   H4Y 4941   1.625   2.949   9.882  0.4499 -0.7067  1.1216
   62SAPC   C35 4942   1.618   2.776   9.755  0.1673  0.2707  0.3411
   62SAPC   H5X 4943   1.560   2.682   9.750  0.6308 -0.0251  0.4872
   62SAPC   H5Y 4944   1.728   2.757   9.758  0.6194  2.3329 -0.8486
   62SAPC   C36 4945   1.589   2.854   9.626  0.1952  0.2013  0.3064
   62SAPC   H6X 4946   1.623   2.958   9.647 -1.8468  0.9807  0.0020
   62SAPC   H6Y 4947   1.478   2.850   9.614  0.4024  0.4277 -2.0214
   62SAPC   C37 4948   1.656   2.796   9.507  0.3860 -0.1854  0.7686
   62SAPC   H7X 4949   1.623   2.694   9.478  0.7850 -0.2360  0.4853
   62SAPC   H7Y 4950   1.765   2.788   9.528  0.9483 -1.6068 -2.1155
   62SAPC   C38 4951   1.641   2.874   9.383 -0.6123 -0.4471  0.1855
   62SAPC   H8X 4952   1.706   2.822   9.309 -2.0804  0.5685 -1.9213
   62SAPC   H8Y 4953   1.673   2.980   9.396 -3.0124  0.5677 -1.6103
   62SAPC   C39 4954   1.506   2.880   9.326  0.6480 -0.3153 -0.8424
   62SAPC   H9X 4955   1.431   2.919   9.397  1.6140  0.0202  0.0123
   62SAPC   H9Y 4956   1.468   2.776   9.316 -0.3345  0.0685 -1.1642
   62SAPC  C310 4957   1.501   2.965   9.201  0.1743  0.0630  0.5161
   62SAPC  H10X 4958   1.421   2.924   9.134  0.6917  1.7774 -1.2350
   62SAPC  H10Y 4959   1.586   2.957   9.130 -0.0571  0.5235  0.1814
   62SAPC  C311 4960   1.472   3.117   9.210  0.4433  0.1872 -0.1407
   62SAPC  H11X 4961   1.563   3.156   9.261  0.5411 -1.7254  1.2606
   62SAPC  H11Y 4962   1.393   3.150   9.281  0.0147  2.0116 -1.3879
   62SAPC  C312 4963   1.455   3.182   9.074  0.2367  0.0948 -0.3243
   62SAPC  H12X 4964   1.352   3.165   9.036  0.5516 -1.2403 -0.6340
   62SAPC  H12Y 4965   1.521   3.138   8.998  0.6484  0.9923 -0.4970
   62SAPC  C313 4966   1.467   3.336   9.073  0.3098 -0.1272  0.4971
   62SAPC  H13X 4967   1.569   3.352   9.115 -0.2131 -2.0771  2.7496
   62SAPC  H13Y 4968   1.395   3.380   9.145 -1.5519 -0.9024 -0.8362
   62SAPC  C314 4969   1.457   3.416   8.943 -0.3521 -0.3230 -0.1281
   62SAPC  H14X 4970   1.460   3.525   8.966  2.1652 -0.0112 -1.5868
   62SAPC  H14Y 4971   1.353   3.408   8.905 -0.8815  0.9217  0.9635
   62SAPC  C315 4972   1.555   3.391   8.820  0.6296  0.5587 -0.2292
   62SAPC  H15X 4973   1.521   3.286   8.804 -2.7486  1.6978 -1.3628
   62SAPC  H15Y 4974   1.661   3.405   8.848  0.3367  1.7439  0.3526
   62SAPC  C316 4975   1.518   3.462   8.690  0.0007 -0.1140 -0.7185
   62SAPC  H16X 4976   1.410   3.449   8.668 -0.3592  0.6833  0.4397
   62SAPC  H16Y 4977   1.571   3.413   8.606 -0.7418 -0.7090 -0.8518
   62SAPC  C317 4978   1.555   3.605   8.704  0.3357 -0.1438 -0.0950
   62SAPC  H17X 4979   1.666   3.616   8.710  0.4415  2.1247 -3.5496
   62SAPC  H17Y 4980   1.518   3.649   8.799  1.9998  0.3128  0.3876
   62SAPC  C318 4981   1.513   3.683   8.584 -0.0080 -0.2029  0.0685
   62SAPC  H18X 4982   1.407   3.716   8.593 -0.9043 -1.8083 -3.2403
   62SAPC  H18Y 4983   1.512   3.630   8.487 -3.4693  2.1406 -1.3870
   62SAPC  H18Z 4984   1.572   3.777   8.581  0.2833 -0.4084 -0.7517
   63SAPC     N 4985   5.947   1.219   6.234  0.1065  0.6850  0.2984
   63SAPC   C12 4986   6.008   1.242   6.375 -0.1947 -0.2050  0.3246
   63SAPC  H12A 4987   6.098   1.184   6.392 -1.5660 -1.8417  2.6995
   63SAPC  H12B 4988   5.933   1.212   6.446 -0.1333 -0.0186  0.4711
   63SAPC   C13 4989   5.898   1.081   6.222  0.5045 -0.4256  0.1695
   63SAPC  H13A 4990   5.822   1.061   6.296  2.4621 -0.4348  2.2959
   63SAPC  H13B 4991   5.850   1.062   6.127  0.0062 -1.0429  0.5406
   63SAPC  H13C 4992   5.980   1.011   6.234  2.3909  1.6330  0.0059
   63SAPC   C14 4993   5.831   1.309   6.220  0.2192 -0.0157 -0.8177
   63SAPC  H14A 4994   5.799   1.313   6.117  1.1284 -0.3526 -1.1200
   63SAPC  H14B 4995   5.743   1.277   6.273  0.6021  0.8593  0.3892
   63SAPC  H14C 4996   5.854   1.409   6.254 -0.5041 -0.9279  2.7272
   63SAPC   C15 4997   6.046   1.251   6.127  0.3220  0.1991 -0.4593
   63SAPC  H15A 4998   6.006   1.223   6.031  1.7424  0.5951 -1.1993
   63SAPC  H15B 4999   6.072   1.356   6.123 -0.2949  0.3354 -1.1342
   63SAPC  H15C 5000   6.138   1.196   6.127 -0.7659 -1.6993 -0.3843
   63SAPC   C11 5001   6.056   1.387   6.420  0.7183 -0.5930 -0.4445
   63SAPC  H11A 5002   6.128   1.430   6.348 -0.2185 -1.1879 -1.7824
   63SAPC  H11B 5003   6.111   1.391   6.516  2.0466  0.1090 -1.2222
   63SAPC     P 5004   5.895   1.574   6.518 -0.3769 -0.3360 -0.2249
   63SAPC   O13 5005   6.021   1.621   6.574  0.7502 -0.1436  0.6510
   63SAPC   O14 5006   5.812   1.679   6.450 -0.6408 -0.1270  0.5032
   63SAPC   O12 5007   5.936   1.463   6.425  1.1720  0.5656 -0.4655
   63SAPC   O11 5008   5.803   1.520   6.632  0.2052  0.2417 -0.4043
   63SAPC    C1 5009   5.848   1.421   6.726 -0.5477 -0.5418 -0.9788
   63SAPC    HA 5010   5.766   1.360   6.767 -1.2577  0.0777 -1.4494
   63SAPC    HB 5011   5.921   1.348   6.685  2.5193  0.8518  1.5736
   63SAPC    C2 5012   5.921   1.492   6.847 -0.2657 -0.0511 -0.7521
   63SAPC    HS 5013   6.021   1.534   6.824 -0.9503  1.5540 -0.9196
   63SAPC   O21 5014   5.937   1.402   6.951 -0.1577 -0.2528  0.3087
   63SAPC   C21 5015   6.037   1.309   6.944 -0.5790  0.8376  0.0725
   63SAPC   O22 5016   6.118   1.295   6.853  0.0258 -0.2923  0.3453
   63SAPC   C22 5017   6.039   1.226   7.074 -0.1544 -0.2897 -1.1707
   63SAPC   H2R 5018   5.985   1.130   7.061 -2.2970  0.3792  1.8011
   63SAPC   H2S 5019   6.141   1.185   7.082 -0.0525  0.1971  0.2479
   63SAPC    C3 5020   5.835   1.605   6.905 -0.3697  0.3990  0.0050
   63SAPC    HX 5021   5.731   1.568   6.912 -0.1471 -0.6542 -1.8064
   63SAPC    HY 5022   5.831   1.680   6.823 -0.3488  0.0142 -0.3517
   63SAPC   O31 5023   5.885   1.661   7.026 -0.4704  0.0569 -0.6433
   63SAPC   C31 5024   5.828   1.650   7.142 -0.4387  0.5023  0.3263
   63SAPC   O32 5025   5.719   1.599   7.163  0.2970  0.9975  0.0565
   63SAPC   C32 5026   5.921   1.694   7.254  0.1698 -0.5068  0.8431
   63SAPC   H2X 5027   5.964   1.793   7.227 -0.3633 -1.0240 -2.1424
   63SAPC   H2Y 5028   6.002   1.619   7.264  0.7909 -0.0464 -0.5770
   63SAPC   C23 5029   5.985   1.295   7.200 -0.4769  0.1889  0.6000
   63SAPC   H3R 5030   5.875   1.307   7.197 -0.9975 -3.5049 -2.5209
   63SAPC   H3S 5031   6.037   1.391   7.226 -3.1136  1.3750  1.8039
   63SAPC   C24 5032   6.003   1.202   7.328 -0.4293  0.3063 -0.9007
   63SAPC   H4R 5033   6.112   1.197   7.349 -0.9331 -2.0519  1.7740
   63SAPC   H4S 5034   5.961   1.102   7.303 -1.4172  0.1107  1.2815
   63SAPC   C25 5035   5.937   1.250   7.455  0.2691  0.3059  0.7727
   63SAPC   H5R 5036   5.866   1.333   7.446 -2.1713 -1.5289  1.8574
   63SAPC   C26 5037   5.944   1.191   7.576 -0.0960  0.6880 -0.7457
   63SAPC   H6R 5038   5.886   1.243   7.653 -2.8816  0.1135 -2.2970
   63SAPC   C27 5039   6.033   1.077   7.615 -0.3100  0.0281 -0.3458
   63SAPC   H7R 5040   6.065   1.015   7.529  3.3448  1.2398 -0.0200
   63SAPC   H7S 5041   5.965   1.012   7.674  0.2079  0.2485  0.5115
   63SAPC   C28 5042   6.157   1.112   7.698 -0.0552 -0.6987 -0.1120
   63SAPC   H8R 5043   6.241   1.170   7.657 -0.2537  0.0498  0.5437
   63SAPC   C29 5044   6.179   1.078   7.828  0.4975  0.4453  0.1854
   63SAPC   H9R 5045   6.274   1.105   7.876  0.4747 -0.2049  0.6163
   63SAPC  C210 5046   6.087   1.000   7.918 -0.5851  0.3708  0.2640
   63SAPC  H10R 5047   6.150   0.941   7.989  0.9952  1.3209 -0.2910
   63SAPC  H10S 5048   6.029   0.927   7.858  1.2011  1.0842 -2.4937
   63SAPC  C211 5049   5.984   1.077   7.993  0.6231  0.1136 -0.0604
   63SAPC  H11R 5050   5.933   1.158   7.940  0.8496  1.4521  1.6753
   63SAPC  C212 5051   5.926   1.043   8.109 -0.0916  0.3124 -0.9186
   63SAPC  H12R 5052   5.852   1.113   8.151  0.4619 -0.1792  0.9989
   63SAPC  C213 5053   5.960   0.931   8.205  0.7620 -0.2462 -0.0913
   63SAPC  H13R 5054   5.958   0.973   8.308  1.0848 -2.6223  0.9442
   63SAPC  H13S 5055   6.061   0.892   8.182  2.5075  3.0813  1.1193
   63SAPC  C214 5056   5.843   0.834   8.198 -0.4751  0.6023  0.3340
   63SAPC  H14R 5057   5.857   0.760   8.118 -3.0084 -0.0829  0.4205
   63SAPC  C215 5058   5.751   0.804   8.293  0.5191 -0.2325  0.2819
   63SAPC  H15R 5059   5.662   0.742   8.271 -0.4248  0.6554  1.4766
   63SAPC  C216 5060   5.748   0.872   8.425  0.1386  0.1873 -0.4861
   63SAPC  H16R 5061   5.644   0.906   8.446  0.1236  0.9452 -1.7131
   63SAPC  H16S 5062   5.805   0.967   8.426  0.1627  0.1778  0.9927
   63SAPC  C217 5063   5.802   0.784   8.536 -0.3716  0.1479 -0.2464
   63SAPC  H17R 5064   5.912   0.779   8.517 -0.4338 -0.0457 -0.5599
   63SAPC  H17S 5065   5.765   0.680   8.539  1.9542 -0.7660 -0.6199
   63SAPC  C218 5066   5.775   0.841   8.678  0.1630 -0.3553  0.4564
   63SAPC  H18R 5067   5.756   0.754   8.745 -1.1625 -1.6423 -1.4532
   63SAPC  H18S 5068   5.683   0.903   8.669  0.8285  0.6195  0.1410
   63SAPC  C219 5069   5.885   0.937   8.740 -0.7372  0.1775 -0.3752
   63SAPC  H19R 5070   5.972   0.872   8.764  0.5421  2.6199  2.0539
   63SAPC  H19S 5071   5.837   0.962   8.837  2.3746 -1.4482  1.7306
   63SAPC  C220 5072   5.929   1.059   8.666  0.3677  0.9877  0.1838
   63SAPC  H20R 5073   5.972   1.038   8.565  0.2814  0.8353  0.1784
   63SAPC  H20S 5074   5.995   1.111   8.739  0.7074 -0.6876  1.1323
   63SAPC  H20T 5075   5.853   1.139   8.656  0.5798  1.0224 -1.3799
   63SAPC   C33 5076   5.861   1.703   7.392  0.4751 -0.2009 -0.6544
   63SAPC   H3X 5077   5.817   1.609   7.433 -2.6888  1.8256  1.0286
   63SAPC   H3Y 5078   5.774   1.771   7.380  1.4530  0.9545 -1.3947
   63SAPC   C34 5079   5.959   1.758   7.490  0.3005 -0.1199  0.5597
   63SAPC   H4X 5080   5.996   1.851   7.442 -4.2124 -0.0692 -3.5868
   63SAPC   H4Y 5081   6.046   1.689   7.493  0.3855 -0.0960 -0.9156
   63SAPC   C35 5082   5.903   1.785   7.633  0.1229  0.4046  0.1433
   63SAPC   H5X 5083   5.796   1.814   7.634 -0.3623 -1.1604 -0.8078
   63SAPC   H5Y 5084   5.956   1.860   7.695 -0.2115 -1.2999  2.6147
   63SAPC   C36 5085   5.900   1.657   7.720 -0.2085 -0.0622  0.3540
   63SAPC   H6X 5086   5.987   1.591   7.704 -0.8744 -2.1738  4.1559
   63SAPC   H6Y 5087   5.810   1.592   7.714  0.5774 -1.1526  0.0424
   63SAPC   C37 5088   5.911   1.687   7.875 -0.1616  0.4968 -0.7807
   63SAPC   H7X 5089   5.816   1.736   7.905  1.2292  1.9426  1.6359
   63SAPC   H7Y 5090   5.993   1.760   7.893 -0.4926  1.3428 -2.4570
   63SAPC   C38 5091   5.923   1.560   7.962 -0.7982  0.2881 -0.0857
   63SAPC   H8X 5092   6.024   1.519   7.941 -1.5783 -0.5884 -2.4125
   63SAPC   H8Y 5093   5.855   1.479   7.927 -0.7146  1.0051 -1.9799
   63SAPC   C39 5094   5.890   1.587   8.107  0.3507  0.4370 -1.0362
   63SAPC   H9X 5095   5.782   1.614   8.116 -0.4548 -2.8432  1.1329
   63SAPC   H9Y 5096   5.950   1.676   8.136 -0.3026 -0.0487  2.1391
   63SAPC  C310 5097   5.933   1.468   8.198  0.6745  0.3536 -0.1361
   63SAPC  H10X 5098   6.043   1.482   8.200  0.6116  0.8545 -0.0654
   63SAPC  H10Y 5099   5.899   1.371   8.155 -2.3849  1.5234 -0.6684
   63SAPC  C311 5100   5.862   1.482   8.336 -0.2067  0.4245  0.7279
   63SAPC  H11X 5101   5.824   1.383   8.369  1.0938 -0.5822 -0.6033
   63SAPC  H11Y 5102   5.777   1.553   8.326 -1.1111 -0.7915 -0.6493
   63SAPC  C312 5103   5.958   1.554   8.438  0.2921  0.0561  0.3381
   63SAPC  H12X 5104   5.977   1.656   8.398 -1.2302 -0.0443 -0.7046
   63SAPC  H12Y 5105   6.054   1.497   8.443 -1.2914 -2.6797  2.1974
   63SAPC  C313 5106   5.886   1.562   8.577 -0.3759 -0.3841  0.7840
   63SAPC  H13X 5107   5.876   1.459   8.618  1.4045 -1.8380 -2.0778
   63SAPC  H13Y 5108   5.778   1.587   8.569 -0.0464  0.4359 -2.1231
   63SAPC  C314 5109   5.956   1.651   8.678 -0.2792  0.4386 -0.0436
   63SAPC  H14X 5110   5.898   1.658   8.773  0.8022  0.1067  0.6554
   63SAPC  H14Y 5111   5.960   1.755   8.638  0.2800  0.3269 -0.2775
   63SAPC  C315 5112   6.097   1.607   8.709  0.8073  0.2691  0.1051
   63SAPC  H15X 5113   6.150   1.598   8.611 -0.6986  1.7096 -0.9014
   63SAPC  H15Y 5114   6.099   1.508   8.760  0.2490  0.1772 -0.0466
   63SAPC  C316 5115   6.174   1.712   8.778  0.5066  0.2773 -0.3081
   63SAPC  H16X 5116   6.127   1.739   8.875  1.0722  3.0240 -0.6966
   63SAPC  H16Y 5117   6.187   1.800   8.711 -0.7538  0.1098 -0.7912
   63SAPC  C317 5118   6.315   1.659   8.809  0.6445  0.2803 -0.6235
   63SAPC  H17X 5119   6.381   1.642   8.721  0.5708 -1.9872 -0.3140
   63SAPC  H17Y 5120   6.315   1.564   8.867  0.5686  1.2241  0.9831
   63SAPC  C318 5121   6.402   1.761   8.888 -0.0113 -0.4897 -0.5988
   63SAPC  H18X 5122   6.361   1.789   8.987  1.5866 -0.1598  0.0002
   63SAPC  H18Y 5123   6.413   1.860   8.839 -0.3122  0.4540  1.1501
   63SAPC  H18Z 5124   6.504   1.719   8.900  1.1387  2.5959  1.5490
   64SAPC     N 5125   0.532   1.359   6.608 -0.3128 -0.1892 -0.3958
   64SAPC   C12 5126   0.599   1.498   6.590  0.6433 -0.1953  0.2133
   64SAPC  H12A 5127   0.614   1.530   6.692  0.8375 -0.1450  0.1701
   64SAPC  H12B 5128   0.524   1.564   6.548  1.8439  0.5928 -0.7809
   64SAPC   C13 5129   0.619   1.280   6.703  0.3847  0.0508 -0.3886
   64SAPC  H13A 5130   0.566   1.192   6.737  0.6158  0.0049 -0.1393
   64SAPC  H13B 5131   0.714   1.255   6.657  2.1432  1.5772  2.1436
   64SAPC  H13C 5132   0.637   1.353   6.780 -0.1114  1.1462 -1.2861
   64SAPC   C14 5133   0.397   1.371   6.681 -0.0926  0.6765  0.0052
   64SAPC  H14A 5134   0.413   1.381   6.787  2.0397  1.5673 -0.3521
   64SAPC  H14B 5135   0.341   1.457   6.648 -0.7930  0.5484  0.8262
   64SAPC  H14C 5136   0.333   1.286   6.664 -1.4015  1.8547 -1.2908
   64SAPC   C15 5137   0.517   1.292   6.472  0.6801 -0.1851 -0.6281
   64SAPC  H15A 5138   0.472   1.196   6.492  0.7991  0.0492  0.9163
   64SAPC  H15B 5139   0.458   1.341   6.397 -0.5315 -1.6782 -0.6831
   64SAPC  H15C 5140   0.618   1.267   6.442  1.6095 -1.0867  2.7619
   64SAPC   C11 5141   0.729   1.514   6.506  0.3756 -0.2791 -0.4589
   64SAPC  H11A 5142   0.808   1.457   6.560  0.8432 -0.2703 -1.1251
   64SAPC  H11B 5143   0.758   1.619   6.529 -0.8764 -0.5997  3.3468
   64SAPC     P 5144   0.641   1.589   6.275 -0.0323  0.2892 -0.2767
   64SAPC   O13 5145   0.682   1.563   6.140 -0.3024 -0.1976  0.3605
   64SAPC   O14 5146   0.494   1.570   6.303  0.1378  0.8265 -0.0178
   64SAPC   O12 5147   0.709   1.480   6.369  0.4562  0.5656 -0.4857
   64SAPC   O11 5148   0.686   1.730   6.329 -0.2707  0.0344 -0.0804
   64SAPC    C1 5149   0.611   1.850   6.322 -0.3560 -0.0052  0.2304
   64SAPC    HA 5150   0.688   1.928   6.303  2.2511 -2.3172  0.6619
   64SAPC    HB 5151   0.538   1.852   6.238  0.1363 -1.0831 -0.2405
   64SAPC    C2 5152   0.542   1.887   6.458 -0.3041  0.5796  0.4463
   64SAPC    HS 5153   0.533   1.998   6.462 -1.5500  0.4973  0.2670
   64SAPC   O21 5154   0.619   1.834   6.568 -0.4156 -0.4333  0.2848
   64SAPC   C21 5155   0.648   1.909   6.670 -0.4957 -0.7870 -0.3479
   64SAPC   O22 5156   0.611   2.022   6.689 -0.3039 -0.0220 -0.7032
   64SAPC   C22 5157   0.718   1.826   6.775 -0.7786  0.7978 -0.2886
   64SAPC   H2R 5158   0.665   1.731   6.796 -0.8938  0.8492 -0.3450
   64SAPC   H2S 5159   0.814   1.795   6.726 -2.3925 -2.0801 -1.9110
   64SAPC    C3 5160   0.401   1.826   6.472 -0.0611 -0.3816  0.3748
   64SAPC    HX 5161   0.402   1.715   6.475 -1.5688 -0.4000  0.8591
   64SAPC    HY 5162   0.360   1.860   6.375  1.2423 -0.5767 -0.2738
   64SAPC   O31 5163   0.331   1.885   6.583  0.0366  0.5070 -0.0785
   64SAPC   C31 5164   0.337   1.821   6.698  1.0804 -0.5814 -0.0912
   64SAPC   O32 5165   0.384   1.714   6.722 -0.2876 -0.1291 -0.3693
   64SAPC   C32 5166   0.262   1.912   6.799  0.0778  0.1315  0.3817
   64SAPC   H2X 5167   0.203   1.994   6.752  1.4819  0.4747 -0.8300
   64SAPC   H2Y 5168   0.341   1.960   6.860  0.7741 -1.3897  0.7247
   64SAPC   C23 5169   0.737   1.896   6.917  0.1325 -0.0905  0.1538
   64SAPC   H3R 5170   0.791   1.991   6.902 -1.0828  0.7170  0.7157
   64SAPC   H3S 5171   0.813   1.840   6.976 -0.5118  1.4152  2.5462
   64SAPC   C24 5172   0.607   1.904   6.992  0.9038  0.0688 -0.4505
   64SAPC   H4R 5173   0.548   1.814   6.963 -0.6577  1.0945 -0.5544
   64SAPC   H4S 5174   0.543   1.987   6.955  0.2123  0.3384  1.2785
   64SAPC   C25 5175   0.627   1.915   7.140 -0.3192 -0.5807 -1.0675
   64SAPC   H5R 5176   0.687   1.829   7.174 -1.4135 -0.6833  0.7445
   64SAPC   C26 5177   0.591   2.012   7.235 -0.1620 -0.1950  0.6380
   64SAPC   H6R 5178   0.614   1.994   7.341  2.8763  2.5328  0.6016
   64SAPC   C27 5179   0.511   2.139   7.193  0.1454 -0.2098 -0.0047
   64SAPC   H7R 5180   0.415   2.120   7.139 -0.2635  1.7946 -0.0524
   64SAPC   H7S 5181   0.573   2.199   7.123  1.6993  0.3306  1.7691
   64SAPC   C28 5182   0.480   2.236   7.298 -0.1966  0.6637 -0.3766
   64SAPC   H8R 5183   0.557   2.314   7.306  1.3623 -0.8017 -0.5401
   64SAPC   C29 5184   0.386   2.231   7.394  0.5739 -0.4252  0.4452
   64SAPC   H9R 5185   0.366   2.325   7.448  2.2306  1.0967 -1.4104
   64SAPC  C210 5186   0.285   2.121   7.408  0.8329  0.3528  0.5371
   64SAPC  H10R 5187   0.298   2.039   7.334 -0.2066 -0.9007  1.7091
   64SAPC  H10S 5188   0.182   2.154   7.385  0.8007 -1.0441 -1.6773
   64SAPC  C211 5189   0.296   2.037   7.528  0.1954  1.0203 -0.0132
   64SAPC  H11R 5190   0.343   1.939   7.510 -0.5784  0.5922  0.2284
   64SAPC  C212 5191   0.262   2.070   7.652  0.5167 -0.1103 -0.4644
   64SAPC  H12R 5192   0.276   1.998   7.733 -1.3180 -0.5172 -0.4604
   64SAPC  C213 5193   0.197   2.205   7.689  0.2904 -0.3219  0.0433
   64SAPC  H13R 5194   0.090   2.194   7.715 -0.0516 -0.2132 -1.2676
   64SAPC  H13S 5195   0.195   2.265   7.595 -0.4214  1.1894  0.9722
   64SAPC  C214 5196   0.257   2.291   7.796 -0.0042  0.2673 -0.3876
   64SAPC  H14R 5197   0.328   2.359   7.748  0.6021 -0.4372 -0.5076
   64SAPC  C215 5198   0.240   2.298   7.930  0.3442 -0.1543  0.0141
   64SAPC  H15R 5199   0.307   2.367   7.984  0.1631 -0.9616  1.3284
   64SAPC  C216 5200   0.149   2.219   8.017  0.8656  0.2943  0.2310
   64SAPC  H16R 5201   0.096   2.147   7.950 -2.9702 -0.2237  3.4891
   64SAPC  H16S 5202   0.063   2.277   8.055 -0.2936 -0.7501 -0.7112
   64SAPC  C217 5203   0.218   2.144   8.132 -0.1656  0.1822  0.1622
   64SAPC  H17R 5204   0.290   2.073   8.086  0.1054 -1.6612  3.2113
   64SAPC  H17S 5205   0.142   2.081   8.184 -1.4816  1.7252  0.2016
   64SAPC  C218 5206   0.300   2.238   8.222  0.5578  0.2830  0.2544
   64SAPC  H18R 5207   0.228   2.291   8.288  1.7201  0.4503  1.4414
   64SAPC  H18S 5208   0.346   2.317   8.160 -0.8996 -0.2727 -1.6341
   64SAPC  C219 5209   0.401   2.166   8.312 -0.2976  0.6424 -0.1843
   64SAPC  H19R 5210   0.450   2.236   8.382  0.7500 -0.0558 -0.1967
   64SAPC  H19S 5211   0.486   2.129   8.250  0.9678  1.7283  0.8627
   64SAPC  C220 5212   0.347   2.045   8.391 -0.7872 -0.0406 -0.6840
   64SAPC  H20R 5213   0.428   2.015   8.461 -1.3780  0.2518  0.1388
   64SAPC  H20S 5214   0.326   1.959   8.324  0.5160 -0.7546 -0.2218
   64SAPC  H20T 5215   0.251   2.065   8.443  0.2741  5.2384 -0.0999
   64SAPC   C33 5216   0.157   1.843   6.889  0.4311  0.2348  0.3575
   64SAPC   H3X 5217   0.203   1.757   6.941  1.2706  0.2929 -0.2551
   64SAPC   H3Y 5218   0.073   1.800   6.831 -0.2120  2.8765 -0.8464
   64SAPC   C34 5219   0.086   1.938   6.981 -0.5898  0.1125  0.6278
   64SAPC   H4X 5220   0.018   1.997   6.915 -4.2168 -2.4685  1.7539
   64SAPC   H4Y 5221   0.157   2.005   7.034 -0.7082 -0.1067  1.0753
   64SAPC   C35 5222  -0.010   1.870   7.078  0.2907 -0.3243 -0.4753
   64SAPC   H5X 5223  -0.032   1.765   7.051  0.6717  0.1649 -2.8923
   64SAPC   H5Y 5224  -0.107   1.926   7.077  0.5151  0.0689 -1.3551
   64SAPC   C36 5225   0.049   1.864   7.223  0.2771 -0.5109 -0.6208
   64SAPC   H6X 5226   0.091   1.965   7.241 -0.4434 -0.5067  1.2904
   64SAPC   H6Y 5227   0.125   1.784   7.230  1.0494 -0.0519 -2.8433
   64SAPC   C37 5228  -0.059   1.862   7.334  0.2662 -0.7600  0.8505
   64SAPC   H7X 5229  -0.126   1.776   7.317 -2.2576  1.1122  0.8569
   64SAPC   H7Y 5230  -0.128   1.947   7.314  0.6899 -1.0951 -2.8021
   64SAPC   C38 5231  -0.015   1.873   7.478  0.6350  0.1014 -0.2482
   64SAPC   H8X 5232   0.028   1.976   7.480 -1.1004  0.8732  2.5897
   64SAPC   H8Y 5233   0.061   1.800   7.512  1.7599  1.2829 -0.1397
   64SAPC   C39 5234  -0.129   1.875   7.586 -0.4877  0.2715 -0.2320
   64SAPC   H9X 5235  -0.164   1.769   7.586 -0.0402  0.1106  0.8290
   64SAPC   H9Y 5236  -0.214   1.938   7.552  1.3470  2.9219 -0.1863
   64SAPC  C310 5237  -0.076   1.926   7.727 -0.3199 -0.1221  0.6168
   64SAPC  H10X 5238  -0.059   2.035   7.713 -1.3032  0.1870  1.7354
   64SAPC  H10Y 5239   0.013   1.867   7.759  0.0377  0.0673  0.0024
   64SAPC  C311 5240  -0.181   1.919   7.832 -0.1417  0.4342  0.4965
   64SAPC  H11X 5241  -0.201   1.813   7.859 -1.6144  0.8305  1.0373
   64SAPC  H11Y 5242  -0.272   1.961   7.785  0.1521 -0.5735 -1.0470
   64SAPC  C312 5243  -0.141   1.989   7.963  0.0845  0.1963  0.4926
   64SAPC  H12X 5244  -0.118   2.092   7.929  1.5247  0.3840  1.9140
   64SAPC  H12Y 5245  -0.044   1.946   7.996  0.2656 -0.2447 -0.5891
   64SAPC  C313 5246  -0.257   1.987   8.063 -0.3825  0.1525  0.7163
   64SAPC  H13X 5247  -0.292   1.882   8.071 -0.2499  0.1281  0.9988
   64SAPC  H13Y 5248  -0.339   2.048   8.021  0.7551 -0.0055 -1.9383
   64SAPC  C314 5249  -0.210   2.057   8.193  0.9401 -0.2612 -0.1337
   64SAPC  H14X 5250  -0.292   2.120   8.233  0.2527  0.0664 -1.9814
   64SAPC  H14Y 5251  -0.126   2.121   8.160 -0.4493  1.5857 -0.2255
   64SAPC  C315 5252  -0.162   1.959   8.303  0.6960 -0.0140 -0.3951
   64SAPC  H15X 5253  -0.083   1.895   8.258  1.0463  0.6494 -0.7421
   64SAPC  H15Y 5254  -0.242   1.889   8.335  0.8897  0.0279  0.1945
   64SAPC  C316 5255  -0.093   2.026   8.427 -0.5834  0.3180  0.6047
   64SAPC  H16X 5256  -0.170   2.094   8.471 -2.1082 -0.0367 -1.3847
   64SAPC  H16Y 5257  -0.013   2.090   8.385 -0.4269 -1.8916 -2.8023
   64SAPC  C317 5258  -0.057   1.932   8.549 -0.0083  0.3211 -0.0066
   64SAPC  H17X 5259  -0.146   1.873   8.580  0.6907 -0.8628 -0.1826
   64SAPC  H17Y 5260  -0.032   1.989   8.641 -2.8648 -0.5063  1.3902
   64SAPC  C318 5261   0.055   1.826   8.525 -0.0047 -0.0922  0.3113
   64SAPC  H18X 5262   0.010   1.728   8.497 -0.2488  0.3396 -0.8453
   64SAPC  H18Y 5263   0.123   1.810   8.611  0.6665 -1.7546 -0.4995
   64SAPC  H18Z 5264   0.123   1.855   8.442  0.3783 -2.1600 -0.1376
   65SAPC     N 5265   2.396   4.185   5.612  0.3091 -0.3966 -0.3760
   65SAPC   C12 5266   2.305   4.070   5.653  0.2734 -0.3670 -0.4302
   65SAPC  H12A 5267   2.367   3.988   5.686 -0.5044 -1.1975 -0.9830
   65SAPC  H12B 5268   2.250   4.034   5.567  3.2503 -2.5016 -1.6496
   65SAPC   C13 5269   2.322   4.310   5.601 -0.2570  0.3189  0.1696
   65SAPC  H13A 5270   2.287   4.345   5.698 -0.8672 -0.5799  0.2792
   65SAPC  H13B 5271   2.375   4.390   5.551  2.2324 -1.0127  0.5490
   65SAPC  H13C 5272   2.229   4.285   5.552  0.0113 -1.4290  0.5065
   65SAPC   C14 5273   2.513   4.211   5.702  0.6627  0.5251 -0.0177
   65SAPC  H14A 5274   2.553   4.310   5.684 -1.6713  1.6052  0.3648
   65SAPC  H14B 5275   2.497   4.206   5.809  0.5435  2.3936  0.0790
   65SAPC  H14C 5276   2.588   4.140   5.670  0.7598  0.9502 -0.7616
   65SAPC   C15 5277   2.447   4.151   5.475 -0.9399  0.4402  1.1041
   65SAPC  H15A 5278   2.369   4.136   5.402  0.9878  0.3614 -1.0712
   65SAPC  H15B 5279   2.513   4.224   5.432 -2.2499  0.0733 -1.8048
   65SAPC  H15C 5280   2.512   4.065   5.468 -0.7714  0.6653 -0.8587
   65SAPC   C11 5281   2.214   4.081   5.772  0.2571 -0.3663  0.3832
   65SAPC  H11A 5282   2.155   3.986   5.779  0.1342 -0.5224 -2.1063
   65SAPC  H11B 5283   2.135   4.158   5.756 -0.6700 -1.5958 -1.2060
   65SAPC     P 5284   2.312   3.983   5.999  0.6897  0.0882  0.5278
   65SAPC   O13 5285   2.312   3.854   5.925  0.3056 -0.2645 -0.5605
   65SAPC   O14 5286   2.408   4.022   6.099 -0.4595  0.3767  0.4232
   65SAPC   O12 5287   2.287   4.104   5.893  0.7915 -0.5917  0.1619
   65SAPC   O11 5288   2.175   3.997   6.073  0.0573  0.6568 -0.3272
   65SAPC    C1 5289   2.113   3.897   6.155  1.3994  0.0637  0.4226
   65SAPC    HA 5290   2.004   3.906   6.140  1.9212  0.8691 -4.1492
   65SAPC    HB 5291   2.124   3.790   6.131 -2.1383 -0.3500  0.1143
   65SAPC    C2 5292   2.136   3.932   6.301  0.6032  0.4231  0.2632
   65SAPC    HS 5293   2.148   4.042   6.311  1.3522  0.2768  1.1389
   65SAPC   O21 5294   2.256   3.867   6.324 -1.1729  0.2006 -0.0631
   65SAPC   C21 5295   2.344   3.940   6.395  0.2496  0.1339 -0.5872
   65SAPC   O22 5296   2.325   4.048   6.448  0.0187  0.5156  0.7682
   65SAPC   C22 5297   2.482   3.874   6.400  0.2041  0.2769  0.1409
   65SAPC   H2R 5298   2.502   3.859   6.291  1.4980 -0.8906  0.5159
   65SAPC   H2S 5299   2.548   3.956   6.434  0.8555 -0.6099  1.0549
   65SAPC    C3 5300   2.019   3.890   6.387  0.4312  0.6558  0.0463
   65SAPC    HX 5301   2.002   3.780   6.382 -1.5288  0.9530 -0.3758
   65SAPC    HY 5302   1.927   3.929   6.339  1.0499  0.8670 -1.0099
   65SAPC   O31 5303   2.030   3.925   6.529 -0.0258  0.1952  0.2755
   65SAPC   C31 5304   1.963   4.034   6.571  0.0579 -0.9008 -0.0962
   65SAPC   O32 5305   1.902   4.109   6.494 -0.3923  0.1455 -0.1781
   65SAPC   C32 5306   1.980   4.044   6.718  0.0158  0.2927  0.0021
   65SAPC   H2X 5307   2.026   3.949   6.752 -0.7890 -0.7348 -1.5986
   65SAPC   H2Y 5308   1.880   4.041   6.767  0.0202 -1.3198 -0.0184
   65SAPC   C23 5309   2.501   3.746   6.481 -0.3130 -0.1436  0.4333
   65SAPC   H3R 5310   2.586   3.694   6.431  1.3056  0.3470  2.5563
   65SAPC   H3S 5311   2.411   3.681   6.473  0.5074 -1.5398  1.8967
   65SAPC   C24 5312   2.532   3.746   6.630 -0.5261 -0.9132  0.4348
   65SAPC   H4R 5313   2.547   3.643   6.668  0.0155 -0.4457  1.5510
   65SAPC   H4S 5314   2.449   3.799   6.682  0.3266  1.8420 -0.8335
   65SAPC   C25 5315   2.655   3.830   6.653  0.2878  0.8987  0.2841
   65SAPC   H5R 5316   2.733   3.807   6.579 -0.2224 -1.6385  0.4397
   65SAPC   C26 5317   2.664   3.929   6.739  0.7024  0.2249  0.1618
   65SAPC   H6R 5318   2.758   3.985   6.733  0.5254  0.4898 -0.1714
   65SAPC   C27 5319   2.554   3.971   6.839  0.4540  0.0655 -0.1740
   65SAPC   H7R 5320   2.605   3.994   6.935  3.6688 -1.9711 -1.2491
   65SAPC   H7S 5321   2.480   3.891   6.863 -2.0555  1.4237 -2.8306
   65SAPC   C28 5322   2.471   4.089   6.793  0.1476 -0.1239  0.1935
   65SAPC   H8R 5323   2.407   4.070   6.705 -0.1520  2.4598 -0.2264
   65SAPC   C29 5324   2.454   4.206   6.853 -0.4719 -0.0945  0.4187
   65SAPC   H9R 5325   2.377   4.276   6.815  0.4085  1.0199  0.6313
   65SAPC  C210 5326   2.516   4.245   6.984  0.8263 -0.4590 -0.0588
   65SAPC  H10R 5327   2.619   4.274   6.956  0.4682  0.0746 -0.8746
   65SAPC  H10S 5328   2.516   4.166   7.063 -1.4459  1.1415  1.6815
   65SAPC  C211 5329   2.456   4.371   7.046 -0.8006 -0.2088  0.1342
   65SAPC  H11R 5330   2.425   4.448   6.974 -0.3602  2.3810  2.5408
   65SAPC  C212 5331   2.431   4.393   7.172  0.5414  0.8056  0.4284
   65SAPC  H12R 5332   2.405   4.499   7.189 -0.7476  0.4241  0.8970
   65SAPC  C213 5333   2.444   4.308   7.297 -0.5293 -0.0624 -0.4257
   65SAPC  H13R 5334   2.547   4.325   7.337  0.2248  0.6593 -2.5027
   65SAPC  H13S 5335   2.456   4.205   7.258  0.2563  0.4766 -1.6963
   65SAPC  C214 5336   2.343   4.323   7.404 -0.4582  0.6839  0.5590
   65SAPC  H14R 5337   2.240   4.346   7.372 -0.6815 -0.4350  0.4223
   65SAPC  C215 5338   2.368   4.322   7.537  0.1335  0.2685 -0.0212
   65SAPC  H15R 5339   2.285   4.317   7.609  0.2606  0.3099  0.1289
   65SAPC  C216 5340   2.502   4.295   7.607  0.5521  0.2062  0.5742
   65SAPC  H16R 5341   2.574   4.240   7.543 -1.4736 -1.2330 -0.5947
   65SAPC  H16S 5342   2.481   4.228   7.693 -0.4971 -0.4664 -0.1700
   65SAPC  C217 5343   2.571   4.424   7.658  0.6871  0.1500  0.3580
   65SAPC  H17R 5344   2.504   4.504   7.696  0.2804  0.6061 -1.2745
   65SAPC  H17S 5345   2.612   4.463   7.563 -1.2660 -0.4207 -0.7517
   65SAPC  C218 5346   2.695   4.404   7.748 -0.3142  0.6507 -0.6032
   65SAPC  H18R 5347   2.765   4.491   7.745  0.9090 -0.2681  0.3448
   65SAPC  H18S 5348   2.753   4.325   7.696  0.7839  1.9193 -1.3699
   65SAPC  C219 5349   2.667   4.368   7.890 -0.3286 -0.1940 -0.2307
   65SAPC  H19R 5350   2.763   4.336   7.936 -0.3364  0.1586  0.0354
   65SAPC  H19S 5351   2.600   4.281   7.903 -0.1012 -0.6309 -1.7545
   65SAPC  C220 5352   2.621   4.486   7.982 -0.7388  0.2672  0.6934
   65SAPC  H20R 5353   2.622   4.451   8.087  3.1700  1.5305  1.2042
   65SAPC  H20S 5354   2.526   4.531   7.945 -0.1017  2.1978  1.3123
   65SAPC  H20T 5355   2.691   4.571   7.973  0.5049 -0.7434  0.5733
   65SAPC   C33 5356   2.057   4.169   6.756 -0.2825 -0.2487 -0.6995
   65SAPC   H3X 5357   2.020   4.260   6.705  2.6388  1.7225  0.3775
   65SAPC   H3Y 5358   2.157   4.158   6.707 -1.1016  0.9195 -2.7349
   65SAPC   C34 5359   2.061   4.184   6.906 -0.4023 -0.2282 -0.1783
   65SAPC   H4X 5360   1.964   4.229   6.936 -1.1745 -1.0088 -1.4234
   65SAPC   H4Y 5361   2.129   4.265   6.938  0.6372 -1.0941 -0.1440
   65SAPC   C35 5362   2.095   4.057   6.983 -0.4865  0.4967 -0.1446
   65SAPC   H5X 5363   2.197   4.029   6.949 -0.5868 -0.3997  0.2538
   65SAPC   H5Y 5364   2.012   3.985   6.963 -0.3935  0.7825 -1.6776
   65SAPC   C36 5365   2.111   4.082   7.129 -0.3880 -0.2122 -0.3937
   65SAPC   H6X 5366   2.160   4.182   7.139  2.8532 -1.7071  0.1122
   65SAPC   H6Y 5367   2.177   4.009   7.180 -1.0700 -0.6917 -0.1822
   65SAPC   C37 5368   1.976   4.090   7.211 -0.0217  0.4815 -0.7294
   65SAPC   H7X 5369   1.924   3.992   7.217 -1.6375  1.2274 -1.6213
   65SAPC   H7Y 5370   1.899   4.155   7.164  0.7292  1.6334 -0.3946
   65SAPC   C38 5371   2.012   4.146   7.353  0.1929 -0.2085 -0.1983
   65SAPC   H8X 5372   2.061   4.245   7.341 -0.4973 -0.1039 -2.8157
   65SAPC   H8Y 5373   2.075   4.063   7.391 -0.3465 -0.3584  0.3963
   65SAPC   C39 5374   1.890   4.157   7.447  0.2143  0.1917 -0.0359
   65SAPC   H9X 5375   1.868   4.050   7.470  1.2051  0.1567  0.8174
   65SAPC   H9Y 5376   1.803   4.203   7.396 -0.2084  0.1614  0.6382
   65SAPC  C310 5377   1.930   4.242   7.571  0.1855 -0.1038 -0.6060
   65SAPC  H10X 5378   1.927   4.342   7.524  0.3221 -0.6115 -1.7326
   65SAPC  H10Y 5379   2.035   4.218   7.598 -0.4394 -0.7476  1.4687
   65SAPC  C311 5380   1.835   4.227   7.691 -0.3809  0.0630 -0.0587
   65SAPC  H11X 5381   1.731   4.240   7.654 -0.8919 -0.1803  1.2399
   65SAPC  H11Y 5382   1.852   4.307   7.767  2.8691 -1.0945  0.5896
   65SAPC  C312 5383   1.870   4.097   7.762  0.0838 -0.4147 -0.6223
   65SAPC  H12X 5384   1.978   4.106   7.786 -0.5063  2.1632  1.5244
   65SAPC  H12Y 5385   1.852   4.008   7.697  0.8338 -1.4870  0.5894
   65SAPC  C313 5386   1.787   4.072   7.888 -0.2817 -0.2610 -0.5169
   65SAPC  H13X 5387   1.677   4.074   7.871 -0.5325 -0.0578  1.0032
   65SAPC  H13Y 5388   1.805   4.162   7.950 -0.2865  0.6496 -1.7959
   65SAPC  C314 5389   1.840   3.943   7.949 -0.3277 -0.5033 -0.1831
   65SAPC  H14X 5390   1.949   3.953   7.970 -0.5648 -0.3884  1.0263
   65SAPC  H14Y 5391   1.825   3.857   7.880 -2.0831 -1.5787  1.4508
   65SAPC  C315 5392   1.773   3.896   8.080 -0.0479  0.0977 -0.1967
   65SAPC  H15X 5393   1.806   3.791   8.095 -1.9198 -0.2232  2.1506
   65SAPC  H15Y 5394   1.664   3.897   8.059 -0.3502  1.9381  1.2351
   65SAPC  C316 5395   1.810   3.980   8.211  0.0146  0.1529  0.4216
   65SAPC  H16X 5396   1.795   4.087   8.185 -3.4521 -0.2014  0.4787
   65SAPC  H16Y 5397   1.918   3.968   8.232  0.2719  1.1990 -0.2113
   65SAPC  C317 5398   1.717   3.938   8.330 -0.1798 -0.3075  0.6540
   65SAPC  H17X 5399   1.736   3.830   8.352  1.0692 -0.2232  0.0615
   65SAPC  H17Y 5400   1.612   3.942   8.294 -0.1923 -0.1611  0.7056
   65SAPC  C318 5401   1.734   4.014   8.464  0.2952 -0.9632  0.0039
   65SAPC  H18X 5402   1.706   4.121   8.455 -4.1522 -1.9264 -0.1549
   65SAPC  H18Y 5403   1.833   4.006   8.512  0.8052 -0.7761 -0.9854
   65SAPC  H18Z 5404   1.665   3.964   8.536 -0.2424  0.7885  0.7408
   66SAPC     N 5405   5.073   2.504   6.257  0.3562  0.0602 -0.3122
   66SAPC   C12 5406   5.136   2.608   6.168 -0.6972 -0.2313  0.4345
   66SAPC  H12A 5407   5.066   2.688   6.145 -0.2202 -0.4398 -1.9861
   66SAPC  H12B 5408   5.171   2.565   6.075 -1.5273 -1.7156  0.7718
   66SAPC   C13 5409   5.005   2.573   6.371 -0.3567  0.7052  0.6606
   66SAPC  H13A 5410   4.960   2.500   6.436 -0.1113 -0.8414 -0.8125
   66SAPC  H13B 5411   5.083   2.603   6.439  1.6892 -2.9459  0.2063
   66SAPC  H13C 5412   4.943   2.657   6.345 -0.3059  0.8767  1.0882
   66SAPC   C14 5413   4.968   2.427   6.176 -0.4350  0.1273  0.3672
   66SAPC  H14A 5414   4.911   2.353   6.230 -2.8794 -0.0098 -2.2070
   66SAPC  H14B 5415   4.887   2.493   6.147 -1.0043 -0.9703 -0.5895
   66SAPC  H14C 5416   5.015   2.385   6.089  0.6745  0.9880  0.5343
   66SAPC   C15 5417   5.172   2.408   6.309  0.4611 -0.1631 -0.0097
   66SAPC  H15A 5418   5.233   2.362   6.232  1.9053 -0.1668  1.1028
   66SAPC  H15B 5419   5.236   2.456   6.382  0.0647  0.5804 -0.1443
   66SAPC  H15C 5420   5.119   2.321   6.347  0.0603 -0.5252 -1.3319
   66SAPC   C11 5421   5.242   2.690   6.243 -0.5261 -0.0614  0.4333
   66SAPC  H11A 5422   5.314   2.608   6.260 -3.7539 -3.5081 -1.0084
   66SAPC  H11B 5423   5.214   2.733   6.342 -1.2050  0.6809 -0.0681
   66SAPC     P 5424   5.184   2.929   6.149 -0.2222  0.2880  0.3190
   66SAPC   O13 5425   5.248   3.033   6.062 -0.0130 -0.5448 -0.0617
   66SAPC   O14 5426   5.047   2.893   6.112  0.5300 -0.0863  0.2028
   66SAPC   O12 5427   5.276   2.799   6.160 -0.1016  0.3546  0.5732
   66SAPC   O11 5428   5.194   2.972   6.302 -0.2544  0.3955  0.1374
   66SAPC    C1 5429   5.316   3.004   6.365 -0.5830 -0.4082 -0.3968
   66SAPC    HA 5430   5.398   2.935   6.336 -0.1973  0.3561 -1.1620
   66SAPC    HB 5431   5.354   3.099   6.322  0.3259 -0.4765  0.2239
   66SAPC    C2 5432   5.292   3.025   6.520 -0.3096  0.3126 -0.3163
   66SAPC    HS 5433   5.247   2.931   6.558  0.1505 -0.6193 -1.9832
   66SAPC   O21 5434   5.211   3.139   6.532  0.4642 -0.3168 -0.0868
   66SAPC   C21 5435   5.154   3.161   6.650  0.2037 -0.7600  0.6447
   66SAPC   O22 5436   5.142   3.071   6.733 -0.2838 -0.5251  0.7382
   66SAPC   C22 5437   5.109   3.298   6.671 -0.0732 -0.6781 -0.1477
   66SAPC   H2R 5438   5.036   3.324   6.593  0.9057  4.1366  0.2187
   66SAPC   H2S 5439   5.058   3.312   6.769  1.3974 -0.4056  0.6145
   66SAPC    C3 5440   5.422   3.059   6.587 -0.4487  0.2086  0.1152
   66SAPC    HX 5441   5.445   3.167   6.570  0.5664  0.4333  2.4983
   66SAPC    HY 5442   5.502   2.997   6.540 -1.1952  0.0080 -0.9051
   66SAPC   O31 5443   5.425   3.024   6.723  0.4931  0.3426  0.2431
   66SAPC   C31 5444   5.475   2.909   6.766  0.3948  0.3811  0.0178
   66SAPC   O32 5445   5.516   2.816   6.697  0.6544  0.0713 -0.4593
   66SAPC   C32 5446   5.469   2.914   6.917 -0.2819  0.4833 -0.4973
   66SAPC   H2X 5447   5.412   3.006   6.940 -0.4713  0.5314 -1.1379
   66SAPC   H2Y 5448   5.576   2.924   6.943  1.0055 -4.3612 -2.7830
   66SAPC   C23 5449   5.224   3.402   6.655  0.0879  0.3810 -0.2045
   66SAPC   H3R 5450   5.170   3.499   6.649 -0.8624 -0.2264 -2.2654
   66SAPC   H3S 5451   5.279   3.395   6.558  1.2690 -2.0638  0.5833
   66SAPC   C24 5452   5.325   3.410   6.772  0.0264  0.6561  0.3666
   66SAPC   H4R 5453   5.405   3.483   6.747  2.1179 -1.6873 -0.1167
   66SAPC   H4S 5454   5.375   3.312   6.786 -1.0266  0.1543  0.7563
   66SAPC   C25 5455   5.261   3.451   6.904 -0.3349 -0.2999  0.0015
   66SAPC   H5R 5456   5.240   3.559   6.910 -3.8886 -0.7415 -1.8659
   66SAPC   C26 5457   5.249   3.374   7.015  0.3787  0.5533 -0.2094
   66SAPC   H6R 5458   5.196   3.417   7.101 -0.8889 -0.8877 -0.2381
   66SAPC   C27 5459   5.278   3.224   7.017  0.4057 -0.0792 -0.4554
   66SAPC   H7R 5460   5.378   3.206   7.062  0.2726  0.1046 -0.0803
   66SAPC   H7S 5461   5.276   3.181   6.915 -1.9390 -1.1975 -0.0028
   66SAPC   C28 5462   5.166   3.147   7.088  0.0589  0.5328  0.1914
   66SAPC   H8R 5463   5.096   3.101   7.017  0.6685 -0.4040  0.1815
   66SAPC   C29 5464   5.148   3.136   7.222 -0.1093 -0.0274  0.5326
   66SAPC   H9R 5465   5.063   3.084   7.268  0.2270  0.8739  2.2636
   66SAPC  C210 5466   5.240   3.202   7.328 -0.6545  0.0517 -0.1827
   66SAPC  H10R 5467   5.181   3.236   7.416  0.1133 -2.2829  1.3093
   66SAPC  H10S 5468   5.306   3.285   7.294 -2.4832  1.8239  0.3890
   66SAPC  C211 5469   5.329   3.091   7.367 -0.8843 -0.4245 -0.1344
   66SAPC  H11R 5470   5.365   3.036   7.278 -2.3563 -0.2636 -0.8670
   66SAPC  C212 5471   5.367   3.037   7.487  0.4743 -0.8804 -0.8613
   66SAPC  H12R 5472   5.417   2.938   7.485 -0.6945 -1.5791  1.1760
   66SAPC  C213 5473   5.315   3.094   7.619  0.4334  0.1682  0.2088
   66SAPC  H13R 5474   5.282   3.199   7.604  2.5998  1.0016  0.8950
   66SAPC  H13S 5475   5.407   3.109   7.680  0.1892 -1.1462  0.9413
   66SAPC  C214 5476   5.213   3.022   7.687 -0.2207 -0.0473 -0.1151
   66SAPC  H14R 5477   5.203   2.915   7.661  0.4108 -0.3594  0.8245
   66SAPC  C215 5478   5.128   3.077   7.778  1.0257  0.4384 -0.0388
   66SAPC  H15R 5479   5.047   3.013   7.815  0.3450  0.9564 -0.6240
   66SAPC  C216 5480   5.108   3.212   7.844  0.4657 -0.1034 -0.2870
   66SAPC  H16R 5481   5.011   3.255   7.812  0.3137 -0.2753 -0.0626
   66SAPC  H16S 5482   5.184   3.289   7.818 -0.7331  1.8700  1.7193
   66SAPC  C217 5483   5.099   3.207   7.994 -0.0985 -0.3068 -0.4157
   66SAPC  H17R 5484   5.007   3.158   8.032 -0.4230  0.1439 -0.6091
   66SAPC  H17S 5485   5.101   3.314   8.021  0.1020 -1.0713  3.0052
   66SAPC  C218 5486   5.222   3.137   8.067 -0.4023  0.3003 -0.0352
   66SAPC  H18R 5487   5.321   3.165   8.026 -0.2192  2.1550  1.5458
   66SAPC  H18S 5488   5.218   3.030   8.035 -3.4444  1.0888 -2.8577
   66SAPC  C219 5489   5.223   3.148   8.219 -0.2908  0.1763 -0.0419
   66SAPC  H19R 5490   5.197   3.252   8.248  1.7453  0.1336  2.2441
   66SAPC  H19S 5491   5.326   3.142   8.262  0.3156  1.6779 -1.1401
   66SAPC  C220 5492   5.129   3.049   8.289  0.0651  0.9867  0.4740
   66SAPC  H20R 5493   5.167   2.950   8.256 -0.3810  1.3488 -1.2313
   66SAPC  H20S 5494   5.023   3.064   8.260 -0.1120  1.2529  1.2265
   66SAPC  H20T 5495   5.139   3.053   8.400  0.2128  1.0809  0.4585
   66SAPC   C33 5496   5.435   2.786   6.994 -0.0028 -0.5204  0.6854
   66SAPC   H3X 5497   5.514   2.713   6.967 -0.6795 -1.0460  0.0811
   66SAPC   H3Y 5498   5.338   2.745   6.960 -1.0987  1.6341  1.0200
   66SAPC   C34 5499   5.425   2.802   7.147  0.3775  0.6180 -0.3631
   66SAPC   H4X 5500   5.342   2.867   7.182 -0.4300 -0.0104 -1.0641
   66SAPC   H4Y 5501   5.512   2.846   7.201 -1.1128  1.4701  1.4652
   66SAPC   C35 5502   5.394   2.668   7.217  0.2870  0.8351  0.3679
   66SAPC   H5X 5503   5.471   2.591   7.196 -2.0382 -1.5004 -0.2247
   66SAPC   H5Y 5504   5.314   2.608   7.168  0.7875 -0.6192  1.2596
   66SAPC   C36 5505   5.371   2.680   7.372 -0.0738 -0.7432  0.4143
   66SAPC   H6X 5506   5.300   2.765   7.372  1.7674  0.9020 -0.9550
   66SAPC   H6Y 5507   5.464   2.720   7.418 -1.1483  0.0745  1.9282
   66SAPC   C37 5508   5.316   2.561   7.438  0.3006  1.0508 -0.4281
   66SAPC   H7X 5509   5.395   2.482   7.434 -1.1565 -0.4963  0.0762
   66SAPC   H7Y 5510   5.237   2.519   7.372  1.4451 -0.2379 -1.0509
   66SAPC   C38 5511   5.258   2.588   7.578  0.0170 -0.5252 -0.2784
   66SAPC   H8X 5512   5.197   2.499   7.606 -1.9294  0.8096 -0.0408
   66SAPC   H8Y 5513   5.187   2.674   7.575  0.6113  0.4124  4.2843
   66SAPC   C39 5514   5.353   2.613   7.701  0.1251  0.7228 -0.2923
   66SAPC   H9X 5515   5.411   2.704   7.677 -0.4131  1.2473  0.3789
   66SAPC   H9Y 5516   5.425   2.529   7.710 -0.7221  0.1313  1.2376
   66SAPC  C310 5517   5.278   2.637   7.830  0.0984  0.5886 -0.2638
   66SAPC  H10X 5518   5.200   2.559   7.845 -2.5133  2.9986 -0.3019
   66SAPC  H10Y 5519   5.229   2.736   7.816  0.0492  0.7063  0.6852
   66SAPC  C311 5520   5.370   2.652   7.950 -0.1567  0.9212 -0.9031
   66SAPC  H11X 5521   5.436   2.738   7.925  0.9734  0.5398  0.6321
   66SAPC  H11Y 5522   5.430   2.560   7.963 -0.0817  1.1356  0.3711
   66SAPC  C312 5523   5.291   2.667   8.080  0.3714  0.2704 -0.0732
   66SAPC  H12X 5524   5.207   2.594   8.084 -0.0676  0.6274 -1.8170
   66SAPC  H12Y 5525   5.247   2.769   8.076 -1.0736 -0.3344 -0.4164
   66SAPC  C313 5526   5.391   2.660   8.197 -0.3738  0.6611  0.1090
   66SAPC  H13X 5527   5.485   2.715   8.175  0.1519 -0.4319 -0.4926
   66SAPC  H13Y 5528   5.416   2.554   8.218  0.5461  1.0736  1.1920
   66SAPC  C314 5529   5.341   2.728   8.324 -0.0177  0.8937  0.1285
   66SAPC  H14X 5530   5.243   2.687   8.358 -0.7440  1.7640 -0.8392
   66SAPC  H14Y 5531   5.339   2.836   8.298 -1.4536  0.5404 -1.4472
   66SAPC  C315 5532   5.425   2.714   8.455 -0.8814  0.4210 -0.0615
   66SAPC  H15X 5533   5.382   2.785   8.528 -1.6621  1.8707 -1.8305
   66SAPC  H15Y 5534   5.527   2.756   8.438 -1.3099  0.4966 -3.1770
   66SAPC  C316 5535   5.448   2.567   8.497  0.2199 -0.4494 -0.3405
   66SAPC  H16X 5536   5.527   2.563   8.575  0.5021 -3.3621 -0.6638
   66SAPC  H16Y 5537   5.486   2.508   8.411 -0.8474  0.6565 -1.6170
   66SAPC  C317 5538   5.318   2.501   8.545 -0.5244 -0.0291  0.0372
   66SAPC  H17X 5539   5.329   2.391   8.556 -2.1198 -0.3696 -1.3258
   66SAPC  H17Y 5540   5.241   2.514   8.466 -0.5048  0.6796  0.1303
   66SAPC  C318 5541   5.272   2.542   8.681  0.5559  0.2651 -0.8638
   66SAPC  H18X 5542   5.168   2.505   8.693  1.1173 -2.1343 -2.5702
   66SAPC  H18Y 5543   5.260   2.652   8.687  3.4267  0.6377 -0.2053
   66SAPC  H18Z 5544   5.342   2.506   8.761 -1.3458 -0.2181  0.6590
   67SAPC     N 5545   0.515   4.626   6.121  0.6546 -0.4406 -0.6158
   67SAPC   C12 5546   0.365   4.659   6.119  0.2621  0.1598  0.2034
   67SAPC  H12A 5547   0.320   4.620   6.029  1.4665 -2.5790  0.6715
   67SAPC  H12B 5548   0.354   4.766   6.121  0.2826  0.2193 -1.4795
   67SAPC   C13 5549   0.580   4.702   6.011 -0.1135 -0.2057  0.3748
   67SAPC  H13A 5550   0.569   4.809   6.020  1.5920  0.4370 -3.1110
   67SAPC  H13B 5551   0.687   4.690   6.019  0.4250  3.6748  0.8776
   67SAPC  H13C 5552   0.546   4.678   5.911 -2.3199  1.2831  0.7198
   67SAPC   C14 5553   0.574   4.664   6.252 -0.2170  0.6548 -0.0098
   67SAPC  H14A 5554   0.677   4.631   6.259 -1.0212 -2.1913 -0.2569
   67SAPC  H14B 5555   0.558   4.768   6.274 -1.9648  0.7837 -1.6278
   67SAPC  H14C 5556   0.519   4.610   6.328 -0.2286  0.7160  0.0246
   67SAPC   C15 5557   0.535   4.479   6.100  0.5836 -0.2834 -0.1537
   67SAPC  H15A 5558   0.637   4.445   6.091  0.4572 -1.1059  1.2509
   67SAPC  H15B 5559   0.480   4.422   6.173 -0.8979 -0.8418 -1.6549
   67SAPC  H15C 5560   0.495   4.441   6.008 -1.0259 -0.3411  0.5470
   67SAPC   C11 5561   0.272   4.608   6.237 -0.0178 -1.1996 -0.6152
   67SAPC  H11A 5562   0.167   4.638   6.220 -0.8155 -2.8411  1.0699
   67SAPC  H11B 5563   0.306   4.658   6.330 -0.9851 -0.0894 -0.8351
   67SAPC     P 5564   0.284   4.403   6.399  0.3026 -0.2071  0.0627
   67SAPC   O13 5565   0.306   4.257   6.382  0.2730  0.0502  0.1533
   67SAPC   O14 5566   0.382   4.483   6.473 -0.3262 -0.0312  0.0268
   67SAPC   O12 5567   0.271   4.466   6.253 -0.0270 -0.5268  0.2902
   67SAPC   O11 5568   0.145   4.421   6.472 -0.0895  0.1940 -0.3440
   67SAPC    C1 5569   0.021   4.406   6.403 -0.4312 -0.4726 -0.4732
   67SAPC    HA 5570  -0.003   4.489   6.334 -1.5818 -1.1076 -0.8693
   67SAPC    HB 5571   0.019   4.317   6.336 -1.9438 -0.2912 -0.7016
   67SAPC    C2 5572  -0.089   4.397   6.517  0.6599  0.6655 -0.4708
   67SAPC    HS 5573  -0.176   4.347   6.470  2.1230 -1.2088 -1.3028
   67SAPC   O21 5574  -0.114   4.533   6.558 -0.4245 -0.3743  0.0003
   67SAPC   C21 5575  -0.232   4.559   6.618  0.1469  0.1764  0.4712
   67SAPC   O22 5576  -0.323   4.484   6.629  0.3621 -0.1044  0.1362
   67SAPC   C22 5577  -0.230   4.697   6.693 -0.2794  0.1529  0.5202
   67SAPC   H2R 5578  -0.166   4.682   6.782  2.0695 -0.9619 -1.2599
   67SAPC   H2S 5579  -0.197   4.782   6.631 -2.3414  1.2748  0.8407
   67SAPC    C3 5580  -0.047   4.303   6.643 -0.0815 -0.0895  0.5504
   67SAPC    HX 5581   0.044   4.345   6.691 -1.2565  1.3599  1.6078
   67SAPC    HY 5582  -0.018   4.211   6.589 -0.2281 -0.2341  0.7201
   67SAPC   O31 5583  -0.140   4.278   6.746  0.0385  0.6414 -0.4977
   67SAPC   C31 5584  -0.237   4.190   6.721  0.2285  0.0497  0.0338
   67SAPC   O32 5585  -0.242   4.120   6.619 -0.2309 -0.2952  0.2187
   67SAPC   C32 5586  -0.333   4.183   6.843 -0.5096  0.1409 -0.2929
   67SAPC   H2X 5587  -0.429   4.233   6.820 -0.2588  0.6841 -0.1593
   67SAPC   H2Y 5588  -0.284   4.248   6.919 -0.8625  1.1043 -0.8769
   67SAPC   C23 5589  -0.375   4.730   6.734  0.4407  0.3170 -0.4786
   67SAPC   H3R 5590  -0.413   4.651   6.803 -1.0618  0.5852 -0.9531
   67SAPC   H3S 5591  -0.437   4.732   6.642  1.0074  1.9506 -0.8671
   67SAPC   C24 5592  -0.380   4.863   6.810  0.0493  0.1768 -0.0722
   67SAPC   H4R 5593  -0.485   4.882   6.842  0.2645 -0.7325  1.2251
   67SAPC   H4S 5594  -0.353   4.947   6.742  3.2321  0.6573  1.6320
   67SAPC   C25 5595  -0.296   4.868   6.932 -0.0853 -0.0357 -0.4947
   67SAPC   H5R 5596  -0.191   4.890   6.908 -0.3289  1.1657 -0.4875
   67SAPC   C26 5597  -0.337   4.845   7.061 -0.4855 -0.4651 -0.0003
   67SAPC   H6R 5598  -0.259   4.843   7.138 -2.4806 -1.0229  2.1180
   67SAPC   C27 5599  -0.482   4.808   7.104 -0.6983  0.2566  0.0476
   67SAPC   H7R 5600  -0.491   4.701   7.132  1.4280 -0.0265 -0.1758
   67SAPC   H7S 5601  -0.558   4.806   7.023 -1.3880 -0.2395  0.6940
   67SAPC   C28 5602  -0.525   4.887   7.223 -0.1211  0.2496 -0.2642
   67SAPC   H8R 5603  -0.490   4.857   7.323 -2.0801 -0.3694  0.2738
   67SAPC   C29 5604  -0.623   4.972   7.216 -0.0620 -0.2228 -0.1580
   67SAPC   H9R 5605  -0.665   5.016   7.308  2.6768 -1.0412  1.6056
   67SAPC  C210 5606  -0.696   5.003   7.082 -0.3823  0.3062 -0.3318
   67SAPC  H10R 5607  -0.742   4.908   7.049 -0.9431  0.5608 -0.2962
   67SAPC  H10S 5608  -0.624   5.033   7.002 -1.1739  1.1868 -0.7456
   67SAPC  C211 5609  -0.799   5.110   7.092 -0.0562  0.0222  0.2670
   67SAPC  H11R 5610  -0.755   5.207   7.118  0.3174 -0.4645  1.5195
   67SAPC  C212 5611  -0.932   5.099   7.073  0.3704 -0.3117  0.3556
   67SAPC  H12R 5612  -0.988   5.191   7.093  1.5987  0.2484  1.4051
   67SAPC  C213 5613  -1.008   4.978   7.022 -0.1542 -0.2250  0.0160
   67SAPC  H13R 5614  -1.091   4.966   7.094 -1.5675  1.5769 -1.2231
   67SAPC  H13S 5615  -0.951   4.887   7.051 -1.0438 -1.4831 -1.9658
   67SAPC  C214 5616  -1.058   4.973   6.879 -0.1086  0.4834 -0.3859
   67SAPC  H14R 5617  -0.994   4.932   6.799 -0.5931 -1.3063  0.0960
   67SAPC  C215 5618  -1.189   4.981   6.852 -0.5473  0.1195 -0.6973
   67SAPC  H15R 5619  -1.230   4.960   6.753 -0.6066  2.7040 -1.2775
   67SAPC  C216 5620  -1.307   5.005   6.946 -0.4303  0.5430  0.2349
   67SAPC  H16R 5621  -1.312   5.115   6.963  0.8709  0.3814  1.9440
   67SAPC  H16S 5622  -1.296   4.956   7.045  0.0230  1.2484  0.5468
   67SAPC  C217 5623  -1.434   4.948   6.880  0.5199 -0.1986  0.2094
   67SAPC  H17R 5624  -1.515   4.960   6.955 -0.1839  0.5857 -0.6561
   67SAPC  H17S 5625  -1.413   4.843   6.851  0.0597 -0.9251  2.3702
   67SAPC  C218 5626  -1.484   5.039   6.767  0.4830 -0.0524  0.4303
   67SAPC  H18R 5627  -1.403   5.053   6.692  0.6453 -1.5519  0.3017
   67SAPC  H18S 5628  -1.488   5.136   6.823  0.2326  0.1056  0.1422
   67SAPC  C219 5629  -1.621   5.001   6.728  0.1755 -0.0504 -0.3687
   67SAPC  H19R 5630  -1.695   5.028   6.806 -0.8615 -2.5301 -0.3971
   67SAPC  H19S 5631  -1.636   4.893   6.709 -0.1154 -0.4014  1.6604
   67SAPC  C220 5632  -1.659   5.082   6.602 -0.5716 -0.3631  0.2267
   67SAPC  H20R 5633  -1.607   5.031   6.518  0.0721  0.9112 -0.1693
   67SAPC  H20S 5634  -1.633   5.190   6.611 -1.4934 -0.1509  0.3897
   67SAPC  H20T 5635  -1.768   5.087   6.582 -0.5099 -3.0338 -1.2858
   67SAPC   C33 5636  -0.371   4.040   6.886 -0.6271 -0.1742 -0.1116
   67SAPC   H3X 5637  -0.278   3.981   6.898  0.5273  1.6855  0.3264
   67SAPC   H3Y 5638  -0.427   3.992   6.802  0.6859 -0.7269 -0.6915
   67SAPC   C34 5639  -0.460   4.037   7.018  0.0058 -0.0847  0.4186
   67SAPC   H4X 5640  -0.535   3.955   7.022  0.6529 -0.6385  2.4982
   67SAPC   H4Y 5641  -0.507   4.138   7.022 -1.2896 -0.6156 -0.5564
   67SAPC   C35 5642  -0.368   4.020   7.143  0.4862  0.1203  0.8954
   67SAPC   H5X 5643  -0.290   4.099   7.134  0.5074 -0.1404 -2.0489
   67SAPC   H5Y 5644  -0.315   3.924   7.122 -0.1732  0.2697 -1.7433
   67SAPC   C36 5645  -0.443   4.029   7.281  0.1883 -0.2267  1.0767
   67SAPC   H6X 5646  -0.529   3.960   7.276  0.4701 -0.6096  1.4664
   67SAPC   H6Y 5647  -0.486   4.131   7.289  0.0404  0.0570 -1.9572
   67SAPC   C37 5648  -0.359   3.992   7.404 -0.1402  0.3790  0.1118
   67SAPC   H7X 5649  -0.284   4.072   7.420 -1.4292  2.0107 -1.6469
   67SAPC   H7Y 5650  -0.298   3.900   7.391 -0.1642  0.2796  0.6894
   67SAPC   C38 5651  -0.443   3.972   7.528  0.1355 -0.0952  0.2082
   67SAPC   H8X 5652  -0.506   3.882   7.511  0.6497 -0.3783 -0.2169
   67SAPC   H8Y 5653  -0.508   4.062   7.538 -0.8030 -0.6682 -0.4793
   67SAPC   C39 5654  -0.359   3.956   7.651 -0.3659 -0.0232  0.0095
   67SAPC   H9X 5655  -0.282   3.876   7.654  0.0543  0.3059 -1.3204
   67SAPC   H9Y 5656  -0.427   3.935   7.736  1.0088  1.2467  1.5061
   67SAPC  C310 5657  -0.287   4.082   7.699 -0.2064 -0.3611 -0.0545
   67SAPC  H10X 5658  -0.352   4.172   7.707 -1.3608 -1.2904  1.7603
   67SAPC  H10Y 5659  -0.211   4.100   7.620  0.0664  1.0340  0.5039
   67SAPC  C311 5660  -0.222   4.061   7.840 -0.0095 -0.1037 -0.2266
   67SAPC  H11X 5661  -0.154   4.147   7.855  2.0226 -1.8780  1.2549
   67SAPC  H11Y 5662  -0.155   3.973   7.831  1.1451  0.9169 -2.2255
   67SAPC  C312 5663  -0.321   4.051   7.960 -0.0238 -0.1680 -0.0083
   67SAPC  H12X 5664  -0.279   4.014   8.056  1.1577  0.1802 -0.3727
   67SAPC  H12Y 5665  -0.399   3.978   7.929 -0.9469  0.5108  0.6522
   67SAPC  C313 5666  -0.383   4.182   8.003  0.5394  0.0056 -0.1323
   67SAPC  H13X 5667  -0.421   4.237   7.914  1.7071 -2.6540 -2.4449
   67SAPC  H13Y 5668  -0.308   4.247   8.053  0.7113 -0.5413  0.3228
   67SAPC  C314 5669  -0.495   4.158   8.103  0.1270 -0.3248  0.2439
   67SAPC  H14X 5670  -0.574   4.090   8.063  0.0827 -0.9363  1.3425
   67SAPC  H14Y 5671  -0.544   4.258   8.111 -0.3239 -0.2615 -2.4436
   67SAPC  C315 5672  -0.451   4.103   8.239  0.3952  0.3776  1.0849
   67SAPC  H15X 5673  -0.380   4.172   8.288  0.8781  0.1021  0.7801
   67SAPC  H15Y 5674  -0.394   4.010   8.216 -2.2045 -1.2454  0.6836
   67SAPC  C316 5675  -0.576   4.069   8.315  0.4156 -0.0243  0.0711
   67SAPC  H16X 5676  -0.634   3.987   8.267  0.4803  0.6960 -1.2737
   67SAPC  H16Y 5677  -0.641   4.158   8.319  1.0956  0.4680  0.3032
   67SAPC  C317 5678  -0.566   4.042   8.459 -0.6911 -0.0401  0.0030
   67SAPC  H17X 5679  -0.508   4.123   8.508 -2.8103  0.4028  1.9300
   67SAPC  H17Y 5680  -0.507   3.948   8.466 -0.2712  0.1909 -0.3230
   67SAPC  C318 5681  -0.700   4.014   8.529 -0.4354 -0.1041  0.0029
   67SAPC  H18X 5682  -0.771   4.100   8.526 -0.4135 -0.0867 -0.0183
   67SAPC  H18Y 5683  -0.689   4.019   8.639  0.6698 -0.7870 -0.0634
   67SAPC  H18Z 5684  -0.749   3.918   8.500  0.5909 -0.6030 -0.1182
   68SAPC     N 5685   4.470   4.365   5.930  0.2950 -0.2603  0.4953
   68SAPC   C12 5686   4.502   4.380   6.085 -0.0245 -0.2573  0.3745
   68SAPC  H12A 5687   4.444   4.305   6.136 -2.2142  2.6923  2.5684
   68SAPC  H12B 5688   4.455   4.471   6.121 -1.3734  0.2990 -2.4406
   68SAPC   C13 5689   4.532   4.472   5.852 -0.4629  0.0072  0.5240
   68SAPC  H13A 5690   4.515   4.454   5.747  1.3722  0.2301  0.1537
   68SAPC  H13B 5691   4.485   4.565   5.881  0.2810  0.7446 -0.5447
   68SAPC  H13C 5692   4.638   4.484   5.869 -0.5501  1.1090  0.4056
   68SAPC   C14 5693   4.519   4.232   5.885 -0.0551  0.4442 -0.4083
   68SAPC  H14A 5694   4.623   4.213   5.908  0.3132 -1.4541 -3.1416
   68SAPC  H14B 5695   4.466   4.162   5.948  1.3800  1.7511  2.4333
   68SAPC  H14C 5696   4.488   4.219   5.782  2.4319 -0.7467 -1.1048
   68SAPC   C15 5697   4.319   4.357   5.907 -0.4330  0.2799  1.0222
   68SAPC  H15A 5698   4.253   4.416   5.969 -1.5857 -0.8907  0.9424
   68SAPC  H15B 5699   4.288   4.372   5.804  0.7250  1.6199  0.8292
   68SAPC  H15C 5700   4.294   4.255   5.929  0.7658 -0.3232 -0.2260
   68SAPC   C11 5701   4.648   4.375   6.123  0.4219 -0.5512  0.2078
   68SAPC  H11A 5702   4.659   4.428   6.220  0.6956 -1.2665  0.5741
   68SAPC  H11B 5703   4.705   4.434   6.048  0.2195  0.6238  0.9425
   68SAPC     P 5704   4.845   4.214   6.174  0.3890  0.2621 -0.0781
   68SAPC   O13 5705   4.860   4.067   6.194  0.0718 -0.5376 -0.1912
   68SAPC   O14 5706   4.939   4.264   6.068 -0.5164 -0.3307  0.2645
   68SAPC   O12 5707   4.696   4.243   6.134  0.3406 -0.2416  0.4035
   68SAPC   O11 5708   4.867   4.304   6.309 -0.3004 -0.3691 -0.1300
   68SAPC    C1 5709   4.825   4.251   6.436  0.2519  0.1185 -0.9355
   68SAPC    HA 5710   4.796   4.341   6.494 -3.4574 -0.4195 -1.7268
   68SAPC    HB 5711   4.730   4.193   6.434  0.8029 -0.8086 -1.2925
   68SAPC    C2 5712   4.930   4.165   6.502 -0.9248 -0.2711  0.2543
   68SAPC    HS 5713   4.952   4.071   6.447  1.9212 -0.8903  2.1670
   68SAPC   O21 5714   4.885   4.132   6.632  0.5377 -0.7252 -0.2613
   68SAPC   C21 5715   4.918   4.018   6.697 -0.3105 -0.1995 -0.3879
   68SAPC   O22 5716   4.983   3.926   6.657  0.0135  0.3420  0.2897
   68SAPC   C22 5717   4.864   4.025   6.835  0.1843 -0.1909 -0.3284
   68SAPC   H2R 5718   4.812   4.120   6.859 -0.0609 -0.5538  0.6784
   68SAPC   H2S 5719   4.796   3.939   6.857 -1.8375  0.6907 -2.7092
   68SAPC    C3 5720   5.072   4.219   6.510  0.9486  0.6035  0.0610
   68SAPC    HX 5721   5.077   4.309   6.575  0.6990  0.5290  0.1833
   68SAPC    HY 5722   5.094   4.255   6.407 -0.6547 -0.3382 -0.6534
   68SAPC   O31 5723   5.166   4.127   6.565  0.1307  0.4403 -0.5349
   68SAPC   C31 5724   5.218   4.040   6.477  0.5277  0.1909 -0.2340
   68SAPC   O32 5725   5.179   4.030   6.361 -0.3991  0.7569  0.8633
   68SAPC   C32 5726   5.339   3.970   6.537 -0.0005 -0.5238  0.0682
   68SAPC   H2X 5727   5.375   4.030   6.624  0.9589 -0.5980 -0.2648
   68SAPC   H2Y 5728   5.411   3.957   6.453 -0.7202 -3.3648 -0.1925
   68SAPC   C23 5729   4.981   4.019   6.939  0.2267 -0.1292  0.4384
   68SAPC   H3R 5730   5.058   3.945   6.906 -0.3335 -2.2738  3.5283
   68SAPC   H3S 5731   4.938   3.970   7.029  0.6656  0.1709  0.8135
   68SAPC   C24 5732   5.054   4.148   6.974  0.3939  0.0768  0.9020
   68SAPC   H4R 5733   4.990   4.221   7.027 -0.1517 -0.4374  0.9548
   68SAPC   H4S 5734   5.084   4.205   6.883  1.1049 -0.8609  0.5382
   68SAPC   C25 5735   5.186   4.125   7.050 -0.3933  0.1985  0.2324
   68SAPC   H5R 5736   5.251   4.063   6.987 -0.3056  0.8367 -0.3252
   68SAPC   C26 5737   5.213   4.136   7.188 -0.3263  0.6169  0.3704
   68SAPC   H6R 5738   5.315   4.121   7.224 -0.2415  0.4101  0.0489
   68SAPC   C27 5739   5.124   4.183   7.296  0.1449  0.2757  0.0991
   68SAPC   H7R 5740   5.054   4.263   7.265  0.0405  1.1952  2.4945
   68SAPC   H7S 5741   5.178   4.229   7.381  1.7850 -0.1123 -0.6892
   68SAPC   C28 5742   5.042   4.072   7.343  0.1297 -0.0839 -0.2349
   68SAPC   H8R 5743   4.995   4.014   7.263  0.2732 -1.9983  1.0162
   68SAPC   C29 5744   5.023   4.034   7.468  0.7070  0.3943 -0.2979
   68SAPC   H9R 5745   4.956   3.948   7.480 -1.3401  2.0959  1.1389
   68SAPC  C210 5746   5.096   4.094   7.589  0.0906 -0.1769 -0.0541
   68SAPC  H10R 5747   5.051   4.195   7.601  1.2246  0.4912 -1.1125
   68SAPC  H10S 5748   5.200   4.116   7.557  0.4501 -1.4786  0.1717
   68SAPC  C211 5749   5.105   4.015   7.718  0.5980  0.1429 -0.3881
   68SAPC  H11R 5750   5.142   3.914   7.693 -0.5134 -0.3731  0.0026
   68SAPC  C212 5751   5.083   4.045   7.846  0.6926 -0.0621 -0.5158
   68SAPC  H12R 5752   5.107   3.970   7.923 -0.9835  1.8699  2.0864
   68SAPC  C213 5753   5.031   4.184   7.898  0.9880 -0.0579 -0.3594
   68SAPC  H13R 5754   4.994   4.185   8.002  0.8421  3.3293 -0.3548
   68SAPC  H13S 5755   4.941   4.220   7.843  0.6980 -0.9809 -0.5094
   68SAPC  C214 5756   5.132   4.293   7.880  0.5528  1.0753 -0.0356
   68SAPC  H14R 5757   5.146   4.324   7.776  0.0338  0.5661 -0.2597
   68SAPC  C215 5758   5.214   4.334   7.979 -0.8600  0.2380  0.0384
   68SAPC  H15R 5759   5.270   4.427   7.966  0.1663 -0.1083  1.5917
   68SAPC  C216 5760   5.206   4.278   8.120 -0.0851 -0.4750  0.5563
   68SAPC  H16R 5761   5.306   4.233   8.133 -0.1188 -0.6886  0.0835
   68SAPC  H16S 5762   5.123   4.208   8.144  0.5016 -1.7850 -1.0543
   68SAPC  C217 5763   5.208   4.398   8.222 -0.0347 -0.4217 -0.2406
   68SAPC  H17R 5764   5.107   4.443   8.206 -0.2972 -0.6692  0.6850
   68SAPC  H17S 5765   5.274   4.478   8.183 -1.1905  0.4638 -0.4604
   68SAPC  C218 5766   5.238   4.357   8.370  0.2258  0.2610  0.2582
   68SAPC  H18R 5767   5.342   4.323   8.387 -0.0480 -0.9598 -0.3037
   68SAPC  H18S 5768   5.167   4.283   8.413  0.4765 -0.1532 -0.0329
   68SAPC  C219 5769   5.228   4.479   8.470 -0.1718  1.0567 -0.3811
   68SAPC  H19R 5770   5.249   4.439   8.572  0.4020 -2.4206 -1.7538
   68SAPC  H19S 5771   5.123   4.517   8.469 -0.1170  1.2512 -2.3118
   68SAPC  C220 5772   5.312   4.599   8.443 -0.0441 -0.3405 -0.6012
   68SAPC  H20R 5773   5.271   4.665   8.363 -1.6550  1.3549  1.5029
   68SAPC  H20S 5774   5.410   4.557   8.410 -0.9147 -2.1762 -0.9638
   68SAPC  H20T 5775   5.322   4.672   8.527  1.1729 -1.1176 -0.0406
   68SAPC   C33 5776   5.313   3.831   6.591  0.6268 -0.0623 -0.2384
   68SAPC   H3X 5777   5.403   3.768   6.576  0.1047 -0.4260 -2.2186
   68SAPC   H3Y 5778   5.226   3.783   6.541 -1.0243  1.4901  1.0313
   68SAPC   C34 5779   5.279   3.838   6.743 -0.7338 -0.4505  0.5937
   68SAPC   H4X 5780   5.199   3.764   6.765 -0.8693 -0.6143 -0.4301
   68SAPC   H4Y 5781   5.231   3.935   6.767  2.8122  1.8575 -0.7952
   68SAPC   C35 5782   5.407   3.818   6.829  0.2154 -0.9665 -1.0566
   68SAPC   H5X 5783   5.479   3.897   6.800  0.2511 -0.6555 -0.1456
   68SAPC   H5Y 5784   5.459   3.723   6.806  0.8279 -1.5921  2.3965
   68SAPC   C36 5785   5.399   3.829   6.990  0.4191 -1.4068 -0.0100
   68SAPC   H6X 5786   5.297   3.794   7.019 -0.2001 -0.8978 -1.4800
   68SAPC   H6Y 5787   5.417   3.933   7.024  1.4173 -1.7108  0.4444
   68SAPC   C37 5788   5.504   3.742   7.064  0.3520  0.5283 -0.0666
   68SAPC   H7X 5789   5.603   3.791   7.059  1.7476 -2.0865 -0.1516
   68SAPC   H7Y 5790   5.507   3.647   7.005 -1.1231  0.0531  0.5543
   68SAPC   C38 5791   5.456   3.698   7.200 -0.5307  0.5628 -0.6588
   68SAPC   H8X 5792   5.490   3.593   7.214 -0.9332  0.6616  1.3838
   68SAPC   H8Y 5793   5.347   3.680   7.196 -0.4333 -0.5256  0.7837
   68SAPC   C39 5794   5.516   3.777   7.312  0.1815 -0.2961  0.2308
   68SAPC   H9X 5795   5.527   3.884   7.285 -0.1772 -0.0550  1.0159
   68SAPC   H9Y 5796   5.616   3.738   7.341  0.1483 -0.7697 -0.2684
   68SAPC  C310 5797   5.452   3.775   7.449 -0.2910  0.3123 -0.2104
   68SAPC  H10X 5798   5.460   3.665   7.462 -2.3915  0.1541  0.1455
   68SAPC  H10Y 5799   5.342   3.785   7.436  0.0440  2.6586 -2.0343
   68SAPC  C311 5800   5.519   3.865   7.552  0.2370  0.0433 -0.2743
   68SAPC  H11X 5801   5.512   3.974   7.531 -2.7980  0.1139  0.6520
   68SAPC  H11Y 5802   5.625   3.833   7.559  1.0864  2.7869  1.2927
   68SAPC  C312 5803   5.468   3.847   7.702  0.6057  0.0584  0.4473
   68SAPC  H12X 5804   5.496   3.743   7.727  2.4177  0.6807  1.1647
   68SAPC  H12Y 5805   5.357   3.842   7.701  0.5408  1.2309  0.3321
   68SAPC  C313 5806   5.525   3.955   7.795  0.3668  0.0208 -0.0052
   68SAPC  H13X 5807   5.469   4.051   7.786 -1.3470 -0.8167  1.1638
   68SAPC  H13Y 5808   5.626   3.987   7.762  0.8344 -1.7378 -0.4086
   68SAPC  C314 5809   5.521   3.905   7.934 -0.0282 -0.3679 -0.5012
   68SAPC  H14X 5810   5.565   3.803   7.938 -1.9993 -1.2350  0.6036
   68SAPC  H14Y 5811   5.413   3.890   7.956  0.5781 -1.1509  2.5074
   68SAPC  C315 5812   5.575   3.992   8.050 -0.1731  0.4737  0.1598
   68SAPC  H15X 5813   5.514   4.084   8.062 -0.1703  0.5373 -0.2910
   68SAPC  H15Y 5814   5.678   4.024   8.026 -0.4552  2.8798  1.8135
   68SAPC  C316 5815   5.562   3.910   8.178 -0.6891  0.0624 -0.6595
   68SAPC  H16X 5816   5.606   3.809   8.161 -0.7007  0.2244 -1.7264
   68SAPC  H16Y 5817   5.456   3.891   8.204 -0.5141  0.6818  0.5383
   68SAPC  C317 5818   5.622   3.976   8.303 -0.1202  0.2903 -0.3063
   68SAPC  H17X 5819   5.545   4.052   8.330  0.0290  0.1819  0.4402
   68SAPC  H17Y 5820   5.719   4.019   8.271 -0.1350  1.3722  1.0392
   68SAPC  C318 5821   5.621   3.882   8.421 -0.0204  0.6184  0.4469
   68SAPC  H18X 5822   5.633   3.941   8.515  1.4048  0.9823  0.0540
   68SAPC  H18Y 5823   5.713   3.819   8.421 -0.4017  0.0550  0.0048
   68SAPC  H18Z 5824   5.523   3.833   8.440 -0.5274  1.9145  1.3864
   69SLPC     N 5825   4.058   1.625  11.481 -0.1808 -1.0278  0.4041
   69SLPC   C13 5826   3.935   1.549  11.457  0.1549  0.2439 -0.1533
   69SLPC  H13A 5827   3.884   1.574  11.365 -2.7072 -2.0223  0.6626
   69SLPC  H13B 5828   3.944   1.444  11.430 -1.2954  0.6923 -2.7105
   69SLPC  H13C 5829   3.859   1.563  11.532  0.9521  0.5142  0.6133
   69SLPC   C14 5830   4.106   1.580  11.614 -0.0527 -0.4737  0.0913
   69SLPC  H14A 5831   4.032   1.612  11.687  0.8137  3.4271 -0.5169
   69SLPC  H14B 5832   4.134   1.476  11.609 -0.6090 -0.5640 -1.9851
   69SLPC  H14C 5833   4.199   1.628  11.639 -0.5082 -0.6722  2.4792
   69SLPC   C15 5834   4.027   1.771  11.489 -1.1015  0.3873 -0.1915
   69SLPC  H15A 5835   3.938   1.781  11.550 -2.7396 -2.2187 -1.9634
   69SLPC  H15B 5836   4.105   1.827  11.538 -1.1178  0.0436  0.2439
   69SLPC  H15C 5837   4.021   1.815  11.391  0.0167  1.5055  0.2244
   69SLPC   C12 5838   4.165   1.594  11.375  1.0786 -0.6160 -0.0852
   69SLPC  H12A 5839   4.189   1.489  11.365 -1.0757 -1.0650 -0.9482
   69SLPC  H12B 5840   4.258   1.637  11.411 -1.3305  1.4752  4.5063
   69SLPC   C11 5841   4.149   1.645  11.227 -0.0157 -0.1987  0.3582
   69SLPC  H11A 5842   4.040   1.638  11.206 -0.0363 -2.9870  1.0900
   69SLPC  H11B 5843   4.204   1.587  11.151 -2.2086 -1.8109 -0.0942
   69SLPC     P 5844   4.304   1.849  11.249 -0.0228 -0.0335 -0.1664
   69SLPC   O13 5845   4.286   1.946  11.361 -0.3643  0.2909 -0.0292
   69SLPC   O14 5846   4.410   1.743  11.268 -0.4557  0.0851 -0.5487
   69SLPC   O12 5847   4.168   1.785  11.209  0.0782 -0.3642 -0.9567
   69SLPC   O11 5848   4.345   1.926  11.112  0.0170  0.2422 -0.0756
   69SLPC    C1 5849   4.248   2.003  11.042  0.3843  0.7811 -0.1035
   69SLPC    HA 5850   4.164   2.037  11.106  1.3699 -1.6770  2.7335
   69SLPC    HB 5851   4.297   2.096  11.007  2.3124 -0.3691 -0.6436
   69SLPC    C2 5852   4.198   1.919  10.917  0.9012 -0.3465  0.1756
   69SLPC    HS 5853   4.150   1.822  10.944 -1.7376  0.8730  0.1631
   69SLPC   O21 5854   4.309   1.901  10.830 -0.2169  0.4328 -0.5095
   69SLPC   C21 5855   4.290   1.820  10.732  0.2729 -0.0343  0.4450
   69SLPC   O22 5856   4.186   1.758  10.710  0.4747  0.2870 -0.2319
   69SLPC   C22 5857   4.409   1.822  10.633 -0.7419  0.1357  0.0142
   69SLPC   H2R 5858   4.492   1.790  10.699 -0.3165  1.8391  0.3482
   69SLPC   H2S 5859   4.377   1.739  10.566  0.5367 -1.5135  1.3783
   69SLPC    C3 5860   4.088   2.014  10.849  0.3758  0.5051 -0.3788
   69SLPC    HX 5861   4.134   2.114  10.833  0.0806  0.3939 -2.1728
   69SLPC    HY 5862   4.005   2.033  10.921  0.0804  0.5791 -0.7362
   69SLPC   O31 5863   4.036   1.984  10.721  0.3959 -0.7116  0.8852
   69SLPC   C31 5864   3.938   1.889  10.716 -0.5953 -0.6908 -0.3130
   69SLPC   O32 5865   3.872   1.845  10.805 -0.3074  0.7303 -0.0816
   69SLPC   C32 5866   3.897   1.877  10.572 -0.4646  0.2744 -0.9530
   69SLPC   H2X 5867   3.805   1.939  10.563 -0.7685 -0.1998 -1.1852
   69SLPC   H2Y 5868   3.870   1.770  10.559 -0.4394  0.3021 -1.2611
   69SLPC   C23 5869   4.409   1.963  10.564 -0.3595  0.1785  0.0115
   69SLPC   H3R 5870   4.459   2.035  10.632  1.3360 -2.3845  1.6772
   69SLPC   H3S 5871   4.306   2.000  10.549 -0.3630  0.0123 -0.4011
   69SLPC   C24 5872   4.486   1.969  10.431 -0.5094 -0.4225  0.2046
   69SLPC   H4R 5873   4.458   1.877  10.375 -1.0869  0.3475 -0.8072
   69SLPC   H4S 5874   4.594   1.986  10.452  0.2327 -2.1874 -1.8996
   69SLPC   C25 5875   4.434   2.090  10.351  0.3807  0.4878 -0.6129
   69SLPC   H5R 5876   4.387   2.157  10.427 -1.4094  0.2644 -1.4726
   69SLPC   H5S 5877   4.359   2.059  10.275  2.1714 -0.6296 -2.0019
   69SLPC   C26 5878   4.542   2.171  10.279 -0.5963 -0.1253  0.3598
   69SLPC   H6R 5879   4.623   2.203  10.348  1.0207  0.0338 -1.5114
   69SLPC   H6S 5880   4.504   2.268  10.241 -0.0791 -1.0276 -2.7529
   69SLPC   C27 5881   4.594   2.106  10.147 -0.4564 -0.4876 -0.0081
   69SLPC   H7R 5882   4.497   2.088  10.096 -0.0734 -2.3248 -0.1339
   69SLPC   H7S 5883   4.636   2.004  10.155 -1.0543 -0.7680 -0.4001
   69SLPC   C28 5884   4.694   2.185  10.055  0.2063 -0.3036  0.1853
   69SLPC   H8R 5885   4.707   2.120   9.967  0.8072  0.2107 -0.1167
   69SLPC   H8S 5886   4.791   2.188  10.110 -0.0825  0.9497  0.6717
   69SLPC   C29 5887   4.648   2.324  10.020 -0.7429 -0.6772  0.5155
   69SLPC   H9R 5888   4.619   2.394  10.099  1.3883 -1.2912  1.9493
   69SLPC  C210 5889   4.663   2.371   9.897  0.0330  0.3064  0.9471
   69SLPC  H10R 5890   4.634   2.471   9.863 -1.7307 -0.7474 -0.8589
   69SLPC  C211 5891   4.730   2.301   9.781  0.5690  0.5023 -0.2901
   69SLPC  H11R 5892   4.734   2.375   9.699  2.3630 -0.1331 -0.8308
   69SLPC  H11S 5893   4.668   2.219   9.740 -1.0821  0.2936  2.3540
   69SLPC  C212 5894   4.884   2.277   9.795  0.3223  0.6659 -0.5331
   69SLPC  H12R 5895   4.907   2.198   9.868  0.5755 -0.3745 -1.6933
   69SLPC  C213 5896   4.988   2.341   9.731 -0.0416  0.5909 -0.4207
   69SLPC  H13R 5897   5.087   2.292   9.734 -0.2580  0.0396 -1.5779
   69SLPC  C214 5898   4.978   2.458   9.636 -0.1617 -0.0345  1.2257
   69SLPC  H14R 5899   5.023   2.548   9.683 -1.3656  0.4185  1.5484
   69SLPC  H14S 5900   4.874   2.488   9.609 -1.9870 -3.0776  4.0606
   69SLPC  C215 5901   5.056   2.421   9.501  0.1582 -0.3239  0.3023
   69SLPC  H15R 5902   5.007   2.334   9.453 -1.8257  0.1710  1.3600
   69SLPC  H15S 5903   5.162   2.393   9.518 -0.1289 -1.7277 -0.1035
   69SLPC  C216 5904   5.062   2.541   9.397 -0.1093 -0.1698 -0.3263
   69SLPC  H16R 5905   5.034   2.635   9.449  0.0192 -1.0798  1.4760
   69SLPC  H16S 5906   4.980   2.527   9.323 -0.7191 -0.3329  0.3746
   69SLPC  C217 5907   5.203   2.563   9.330  0.3646 -0.0889 -0.3555
   69SLPC  H17R 5908   5.285   2.571   9.404 -0.7541  1.4277  0.7983
   69SLPC  H17S 5909   5.200   2.658   9.273 -0.4530  1.2932  1.8491
   69SLPC  C218 5910   5.227   2.442   9.241  0.1088 -0.1619 -0.4123
   69SLPC  H18R 5911   5.136   2.412   9.184 -0.3715 -0.5459  0.5466
   69SLPC  H18S 5912   5.279   2.360   9.295 -0.8855  1.4047  3.2164
   69SLPC  H18T 5913   5.284   2.481   9.154 -0.0027 -1.5512 -1.1386
   69SLPC   C33 5914   4.004   1.919  10.466  0.7593 -0.5736  0.2342
   69SLPC   H3X 5915   4.105   1.885  10.497  2.2128  2.2000 -1.0642
   69SLPC   H3Y 5916   4.017   2.030  10.461  0.5859 -0.5247  0.7030
   69SLPC   C34 5917   3.969   1.874  10.328 -0.1891 -0.0093 -0.2553
   69SLPC   H4X 5918   3.964   1.763  10.326 -1.1747  0.0075 -2.9091
   69SLPC   H4Y 5919   4.049   1.904  10.257  0.4342  1.0451  0.8529
   69SLPC   C35 5920   3.838   1.932  10.279  0.5822 -0.0004 -0.1141
   69SLPC   H5X 5921   3.836   2.041  10.302  1.7007  0.0210 -0.0826
   69SLPC   H5Y 5922   3.754   1.894  10.341 -1.1254  2.0507 -1.0588
   69SLPC   C36 5923   3.804   1.921  10.130  0.7277  0.0243 -0.9520
   69SLPC   H6X 5924   3.699   1.953  10.117  0.1628 -1.8704 -1.3056
   69SLPC   H6Y 5925   3.800   1.811  10.120  0.2765 -0.4580  3.1083
   69SLPC   C37 5926   3.908   1.982  10.030  0.2570 -0.3709 -0.2428
   69SLPC   H7X 5927   4.001   1.921  10.034 -0.7347 -2.1551 -2.4133
   69SLPC   H7Y 5928   3.932   2.086  10.061 -0.6199 -0.8033  2.0880
   69SLPC   C38 5929   3.859   1.969   9.885 -0.3622 -0.1909 -0.3406
   69SLPC   H8X 5930   3.776   2.043   9.887 -0.4184 -0.2565  1.6300
   69SLPC   H8Y 5931   3.811   1.872   9.858 -0.4615  0.1592 -1.4591
   69SLPC   C39 5932   3.963   2.004   9.777  0.3345 -0.3806 -0.3477
   69SLPC   H9X 5933   4.028   1.916   9.763 -1.6532 -2.0008  0.1165
   69SLPC   H9Y 5934   4.014   2.096   9.812 -1.5410  0.4471  0.3899
   69SLPC  C310 5935   3.896   2.034   9.634 -0.2783 -0.0392 -0.0818
   69SLPC  H10X 5936   3.850   2.135   9.634  2.2027  1.1617 -0.4719
   69SLPC  H10Y 5937   3.814   1.961   9.617  0.3914 -0.8792  0.2048
   69SLPC  C311 5938   3.999   2.017   9.531 -0.7783  0.7957  0.0682
   69SLPC  H11X 5939   4.042   1.915   9.547  0.2084  1.1563 -0.2380
   69SLPC  H11Y 5940   4.081   2.091   9.542  0.0307  0.0052 -0.4517
   69SLPC  C312 5941   3.946   2.024   9.393 -0.0957 -0.0165 -0.2988
   69SLPC  H12X 5942   3.917   2.129   9.368  2.1294  0.6759 -0.1951
   69SLPC  H12Y 5943   3.853   1.963   9.399 -0.0689  0.0783  1.4102
   69SLPC  C313 5944   4.049   1.966   9.286 -0.0246  0.8089 -0.7483
   69SLPC  H13X 5945   4.053   1.856   9.300  1.9416  1.0183  0.7792
   69SLPC  H13Y 5946   4.147   2.014   9.304 -0.6268  1.7381  0.2278
   69SLPC  C314 5947   4.002   1.995   9.142 -0.0482 -0.3609  0.1232
   69SLPC  H14X 5948   4.032   2.097   9.109  3.9038 -1.0767  0.9288
   69SLPC  H14Y 5949   3.892   1.979   9.139  0.1526 -1.6887 -2.1282
   69SLPC  C315 5950   4.067   1.887   9.053  0.6777 -0.5482  0.0462
   69SLPC  H15X 5951   4.023   1.917   8.956  2.1161  0.6182 -0.2937
   69SLPC  H15Y 5952   4.024   1.788   9.078 -0.6181  0.4157  1.8736
   69SLPC  C316 5953   4.220   1.895   9.041  0.6995  0.0771  0.4556
   69SLPC  H16X 5954   4.255   1.809   8.980 -1.6751 -2.2403  2.1251
   69SLPC  H16Y 5955   4.266   1.880   9.140  1.4175  0.7459  0.2264
   69SLPC  C317 5956   4.276   2.023   8.978 -0.2299 -1.0350  0.0802
   69SLPC  H17X 5957   4.382   2.035   9.010  0.8011  0.2035 -3.3617
   69SLPC  H17Y 5958   4.220   2.109   9.023  0.5376  0.1825 -1.2078
   69SLPC  C318 5959   4.266   2.037   8.828 -0.8765 -0.1815  0.1276
   69SLPC  H18X 5960   4.157   2.049   8.811 -0.8260 -1.0108 -0.9028
   69SLPC  H18Y 5961   4.304   1.943   8.782  0.4685  0.0208  0.7817
   69SLPC  H18Z 5962   4.316   2.127   8.784  0.6554  0.9090  3.7168
   70SLPC     N 5963   4.363   5.717  11.196 -0.6243 -0.3078 -0.3413
   70SLPC   C13 5964   4.298   5.603  11.131 -0.4027 -0.0067 -0.3046
   70SLPC  H13A 5965   4.276   5.522  11.199 -2.5508  2.7978  2.6833
   70SLPC  H13B 5966   4.200   5.633  11.095 -1.6993 -2.4766  0.9538
   70SLPC  H13C 5967   4.362   5.561  11.056 -0.9096 -0.4768 -0.4798
   70SLPC   C14 5968   4.495   5.682  11.245  0.3467 -0.3467 -0.0054
   70SLPC  H14A 5969   4.570   5.672  11.168  2.9110  1.8565  1.9816
   70SLPC  H14B 5970   4.542   5.749  11.316  0.6563 -1.9837  1.4195
   70SLPC  H14C 5971   4.486   5.583  11.288 -0.8919 -0.5037 -0.5891
   70SLPC   C15 5972   4.278   5.763  11.309  0.2340  0.1973  0.1276
   70SLPC  H15A 5973   4.229   5.690  11.372  0.6500 -0.9409 -0.8148
   70SLPC  H15B 5974   4.346   5.820  11.370  0.0437 -0.2974  0.8079
   70SLPC  H15C 5975   4.198   5.831  11.281 -0.6742 -0.8201  0.1717
   70SLPC   C12 5976   4.362   5.834  11.091  0.0037  0.4032  0.1670
   70SLPC  H12A 5977   4.415   5.799  11.004 -1.7208  0.3562 -0.9263
   70SLPC  H12B 5978   4.415   5.919  11.131  1.1880 -0.6699  0.9661
   70SLPC   C11 5979   4.237   5.876  11.025 -0.2176 -0.3886  0.4960
   70SLPC  H11A 5980   4.194   5.792  10.967  1.4144  0.6730 -2.4901
   70SLPC  H11B 5981   4.267   5.952  10.950  0.5632 -0.0633  1.1168
   70SLPC     P 5982   4.155   6.081  11.168  0.8415  0.1392 -0.3323
   70SLPC   O13 5983   4.078   6.087  11.296  0.3970  0.0787 -0.0625
   70SLPC   O14 5984   4.288   6.129  11.170  0.3070 -0.5696 -0.5017
   70SLPC   O12 5985   4.148   5.933  11.118  0.2491 -0.5046 -0.0503
   70SLPC   O11 5986   4.072   6.171  11.067 -0.0543 -0.0926 -0.1546
   70SLPC    C1 5987   3.993   6.104  10.960 -0.2622  0.2718 -0.1597
   70SLPC    HA 5988   3.967   5.997  10.969 -1.7185  0.6472  0.3186
   70SLPC    HB 5989   3.893   6.149  10.973  0.7202  3.0059 -1.1498
   70SLPC    C2 5990   4.039   6.132  10.813  0.2737  0.2070 -0.4649
   70SLPC    HS 5991   3.945   6.143  10.755 -2.0768 -1.5754  2.6640
   70SLPC   O21 5992   4.110   6.016  10.763  0.2553 -0.2320 -0.4141
   70SLPC   C21 5993   4.095   5.995  10.632 -0.4627 -0.1722  0.2786
   70SLPC   O22 5994   4.024   6.057  10.556  0.1265  0.2744 -0.4523
   70SLPC   C22 5995   4.191   5.879  10.598 -1.0111  0.4546  0.0674
   70SLPC   H2R 5996   4.279   5.886  10.666  0.2745  0.1460 -1.4759
   70SLPC   H2S 5997   4.130   5.787  10.613 -1.7558  1.0267  0.5601
   70SLPC    C3 5998   4.121   6.260  10.807 -0.3135  0.2299 -0.3951
   70SLPC    HX 5999   4.205   6.247  10.879 -0.5813  2.2685  0.3706
   70SLPC    HY 6000   4.059   6.337  10.857  0.8711  1.4108 -0.6828
   70SLPC   O31 6001   4.167   6.303  10.678 -0.4873 -0.7301  0.5153
   70SLPC   C31 6002   4.073   6.361  10.605 -0.6481 -0.9502 -0.0852
   70SLPC   O32 6003   3.970   6.409  10.645 -0.0435  0.1842 -1.2590
   70SLPC   C32 6004   4.122   6.357  10.458  0.4644 -0.0809 -0.3947
   70SLPC   H2X 6005   4.075   6.263  10.423 -1.0989  1.2620 -2.1831
   70SLPC   H2Y 6006   4.232   6.345  10.451  0.3111 -2.7758  0.8462
   70SLPC   C23 6007   4.260   5.882  10.457  0.3690  0.2243  0.1819
   70SLPC   H3R 6008   4.342   5.808  10.452  0.2512  0.0090  1.1485
   70SLPC   H3S 6009   4.299   5.980  10.423 -1.4549  0.1802 -2.2675
   70SLPC   C24 6010   4.156   5.843  10.347  0.5772 -0.2359  0.0671
   70SLPC   H4R 6011   4.073   5.915  10.339  1.5347  0.8147 -0.5903
   70SLPC   H4S 6012   4.120   5.741  10.373  0.5712 -0.0681  0.7534
   70SLPC   C25 6013   4.232   5.828  10.214 -0.3701  0.4153 -0.0515
   70SLPC   H5R 6014   4.303   5.743  10.209  0.9395  1.3999  1.1497
   70SLPC   H5S 6015   4.290   5.921  10.194 -0.8928  0.6522 -0.5208
   70SLPC   C26 6016   4.140   5.824  10.099  0.9755 -0.5688  0.7703
   70SLPC   H6R 6017   4.070   5.910  10.099  0.7514 -0.7483 -0.0900
   70SLPC   H6S 6018   4.080   5.731  10.096  0.9280 -0.5546  1.1652
   70SLPC   C27 6019   4.214   5.824   9.963  0.0041 -0.1018  0.1488
   70SLPC   H7R 6020   4.272   5.730   9.952 -0.1967  0.0470 -3.0363
   70SLPC   H7S 6021   4.286   5.907   9.978  1.5178 -1.4205  0.4714
   70SLPC   C28 6022   4.120   5.834   9.840  0.3566  0.0811  0.0100
   70SLPC   H8R 6023   4.198   5.857   9.764  0.7915  1.0940  0.7308
   70SLPC   H8S 6024   4.053   5.922   9.847  0.5141  0.2979 -1.0103
   70SLPC   C29 6025   4.037   5.714   9.822  0.1208  0.1009 -0.2770
   70SLPC   H9R 6026   3.976   5.685   9.909 -0.6877 -0.1859 -0.9357
   70SLPC  C210 6027   4.016   5.651   9.707  0.3912 -0.0480 -0.6561
   70SLPC  H10R 6028   3.926   5.587   9.711 -0.3701  1.0484  1.3899
   70SLPC  C211 6029   4.066   5.695   9.572 -0.3240 -0.4781 -0.4253
   70SLPC  H11R 6030   4.041   5.618   9.495 -1.0305  0.3496 -1.0454
   70SLPC  H11S 6031   4.177   5.703   9.571 -0.2785 -0.4789  1.5395
   70SLPC  C212 6032   4.009   5.838   9.537 -0.3793 -0.1629  0.3823
   70SLPC  H12R 6033   3.961   5.897   9.617 -3.6310 -1.0378 -0.7338
   70SLPC  C213 6034   4.006   5.892   9.412 -0.4703  0.5597 -0.8478
   70SLPC  H13R 6035   3.961   5.991   9.397 -0.1851  1.0180  1.0350
   70SLPC  C214 6036   4.047   5.825   9.284  0.0389 -0.2703 -0.5700
   70SLPC  H14R 6037   4.084   5.722   9.301 -1.7219 -0.9272 -0.5801
   70SLPC  H14S 6038   4.130   5.890   9.249  0.5437 -0.4470  0.2612
   70SLPC  C215 6039   3.941   5.802   9.171 -0.8036 -0.7160 -0.5378
   70SLPC  H15R 6040   3.869   5.886   9.165  0.4035  0.2938 -1.5951
   70SLPC  H15S 6041   3.881   5.716   9.208 -1.8325  0.0934 -0.2841
   70SLPC  C216 6042   4.009   5.773   9.040  0.0633  0.3393 -0.0583
   70SLPC  H16R 6043   4.076   5.685   9.033 -1.8797 -1.6984  3.8795
   70SLPC  H16S 6044   4.074   5.860   9.015  2.6127 -1.2171  0.7522
   70SLPC  C217 6045   3.902   5.752   8.931 -0.6136 -0.2391 -0.7567
   70SLPC  H17R 6046   3.837   5.841   8.920  0.4290  0.6781  0.3526
   70SLPC  H17S 6047   3.847   5.658   8.955  1.5381 -1.7527 -1.4146
   70SLPC  C218 6048   3.961   5.732   8.795 -0.0291 -0.0922  0.3383
   70SLPC  H18R 6049   3.890   5.724   8.710  1.0182 -0.7027 -0.5058
   70SLPC  H18S 6050   4.022   5.639   8.795 -2.0325 -1.4499  0.2788
   70SLPC  H18T 6051   4.031   5.811   8.760  0.7316 -1.1806 -0.6570
   70SLPC   C33 6052   4.066   6.474  10.371  0.4599  0.1187  0.1472
   70SLPC   H3X 6053   4.095   6.571  10.417 -1.8446  0.1237  1.7864
   70SLPC   H3Y 6054   3.958   6.472  10.345  1.2861  1.2239 -4.1011
   70SLPC   C34 6055   4.141   6.477  10.239 -0.1749 -0.1365 -0.8320
   70SLPC   H4X 6056   4.120   6.392  10.171  0.4282 -3.0272  2.2880
   70SLPC   H4Y 6057   4.252   6.469  10.249 -0.3275 -0.7278  0.7384
   70SLPC   C35 6058   4.110   6.609  10.161 -0.4827  0.0625  0.1516
   70SLPC   H5X 6059   4.142   6.687  10.233  4.4190 -0.6381 -0.9329
   70SLPC   H5Y 6060   3.999   6.621  10.157 -0.2297  2.5263 -2.5831
   70SLPC   C36 6061   4.170   6.630  10.024 -0.4145 -0.3109 -0.2202
   70SLPC   H6X 6062   4.277   6.601  10.025  0.8220  3.5119  2.5809
   70SLPC   H6Y 6063   4.171   6.738   9.996  1.0764 -0.2500  0.0024
   70SLPC   C37 6064   4.083   6.555   9.917  0.1732  0.2548  0.5173
   70SLPC   H7X 6065   3.978   6.591   9.924 -0.6899 -2.0461  0.2905
   70SLPC   H7Y 6066   4.073   6.446   9.938  2.1813 -0.0106  0.2091
   70SLPC   C38 6067   4.125   6.578   9.767 -0.1079  0.2361  0.1870
   70SLPC   H8X 6068   4.031   6.549   9.715  0.6785 -0.8195 -0.7092
   70SLPC   H8Y 6069   4.210   6.507   9.754 -1.3279 -1.5413  1.5555
   70SLPC   C39 6070   4.168   6.719   9.732 -0.8078  0.1109 -0.3056
   70SLPC   H9X 6071   4.266   6.738   9.781 -0.6113  0.6716 -0.8944
   70SLPC   H9Y 6072   4.100   6.794   9.776 -0.1147  0.4117  0.2784
   70SLPC  C310 6073   4.171   6.737   9.580 -0.3293 -0.4414 -0.4165
   70SLPC  H10X 6074   4.081   6.697   9.530  0.4405 -0.2785 -2.0223
   70SLPC  H10Y 6075   4.245   6.664   9.541  0.3267 -0.1945  0.3365
   70SLPC  C311 6076   4.196   6.880   9.538 -0.9646 -0.2238 -0.0613
   70SLPC  H11X 6077   4.288   6.909   9.593 -0.4489 -0.6148 -0.7080
   70SLPC  H11Y 6078   4.113   6.948   9.565  0.1119  1.1532 -0.0965
   70SLPC  C312 6079   4.214   6.895   9.380  0.1137  0.0921 -0.6168
   70SLPC  H12X 6080   4.112   6.875   9.340  1.1294 -1.7773 -2.4911
   70SLPC  H12Y 6081   4.266   6.810   9.332 -1.1050  0.1359 -2.1097
   70SLPC  C313 6082   4.252   7.040   9.337 -0.2420  0.2070 -0.4043
   70SLPC  H13X 6083   4.346   7.066   9.390  1.0394 -0.8504 -2.0702
   70SLPC  H13Y 6084   4.164   7.101   9.367 -1.2537 -1.4243  0.0766
   70SLPC  C314 6085   4.273   7.053   9.188  0.4176 -0.0262  0.5894
   70SLPC  H14X 6086   4.340   6.975   9.144 -0.8809 -1.6912  1.4190
   70SLPC  H14Y 6087   4.328   7.147   9.167 -0.3136  0.4349  0.7131
   70SLPC  C315 6088   4.147   7.031   9.105 -0.3281 -0.0599 -0.7052
   70SLPC  H15X 6089   4.087   7.115   9.145  0.1817  0.2816 -0.6493
   70SLPC  H15Y 6090   4.094   6.936   9.126 -0.4757  0.1219 -0.2505
   70SLPC  C316 6091   4.180   7.047   8.955  0.2659  0.4652 -0.0873
   70SLPC  H16X 6092   4.235   6.961   8.911  1.1288  0.0918  1.6276
   70SLPC  H16Y 6093   4.255   7.129   8.958  0.8235 -0.0493  2.1406
   70SLPC  C317 6094   4.058   7.083   8.860 -0.4858 -0.1580  0.1056
   70SLPC  H17X 6095   4.106   7.094   8.760 -0.5329  0.1844  0.1191
   70SLPC  H17Y 6096   4.017   7.184   8.881 -0.8061  0.1606 -1.8030
   70SLPC  C318 6097   3.950   6.978   8.865 -0.1560 -0.3665  0.3296
   70SLPC  H18X 6098   3.892   6.962   8.959 -0.8918  0.3230  0.0071
   70SLPC  H18Y 6099   3.991   6.881   8.830 -0.4594 -1.8048  3.5692
   70SLPC  H18Z 6100   3.875   7.006   8.787 -2.9700 -0.7295  2.7051
   71SLPC     N 6101   4.587   5.223  10.700  0.2981 -0.6770  0.5305
   71SLPC   C13 6102   4.590   5.358  10.618 -0.5449  0.2770 -0.4031
   71SLPC  H13A 6103   4.658   5.430  10.662  0.4354 -0.9592  0.1656
   71SLPC  H13B 6104   4.609   5.343  10.513  0.6826  2.0522 -0.4796
   71SLPC  H13C 6105   4.487   5.390  10.615  0.0474  2.2713 -1.0285
   71SLPC   C14 6106   4.533   5.254  10.836 -0.2649  0.2030 -0.2347
   71SLPC  H14A 6107   4.427   5.271  10.823 -0.5208 -1.7437 -0.9740
   71SLPC  H14B 6108   4.538   5.168  10.901 -1.9268 -1.3572 -2.0402
   71SLPC  H14C 6109   4.589   5.337  10.878  1.4314 -0.3540 -1.2985
   71SLPC   C15 6110   4.733   5.181  10.729  0.0585 -0.1650  0.4522
   71SLPC  H15A 6111   4.783   5.258  10.786  0.2862  1.8096 -2.1615
   71SLPC  H15B 6112   4.742   5.094  10.791  2.2736 -1.2955 -1.3370
   71SLPC  H15C 6113   4.787   5.169  10.636  0.6203  0.1728  0.7283
   71SLPC   C12 6114   4.507   5.122  10.617  0.4295 -0.5995 -0.3388
   71SLPC  H12A 6115   4.497   5.026  10.665 -1.1023 -0.0421  0.5065
   71SLPC  H12B 6116   4.568   5.098  10.531  0.1985  1.0778 -1.0119
   71SLPC   C11 6117   4.369   5.158  10.561  0.4955 -0.1647  0.0835
   71SLPC  H11A 6118   4.317   5.073  10.512  0.1418 -0.5939  1.1606
   71SLPC  H11B 6119   4.367   5.240  10.487 -1.9082 -1.4692 -1.3971
   71SLPC     P 6120   4.198   5.140  10.770 -0.0261  0.0338  0.1096
   71SLPC   O13 6121   4.217   4.995  10.753  0.1269  0.6791 -0.3783
   71SLPC   O14 6122   4.230   5.195  10.903 -0.2235  0.1460 -0.4139
   71SLPC   O12 6123   4.278   5.214  10.658  0.3426  0.2095 -1.0592
   71SLPC   O11 6124   4.047   5.180  10.729 -0.6554 -0.2934  0.0086
   71SLPC    C1 6125   3.987   5.141  10.610 -0.3106 -0.3080  0.0496
   71SLPC    HA 6126   4.058   5.083  10.547  2.8148  2.7409  0.4252
   71SLPC    HB 6127   3.898   5.083  10.639  0.3753 -1.1066  0.6102
   71SLPC    C2 6128   3.929   5.261  10.524 -0.0856 -0.1498  0.6790
   71SLPC    HS 6129   3.851   5.232  10.451 -1.3279  4.2568 -0.0852
   71SLPC   O21 6130   4.039   5.326  10.453  0.3233 -0.2478  0.3337
   71SLPC   C21 6131   4.071   5.287  10.330  0.1981 -1.1857  0.1271
   71SLPC   O22 6132   4.007   5.200  10.269 -0.0831  0.5537  0.1605
   71SLPC   C22 6133   4.167   5.394  10.277 -0.2358 -0.7861  1.0299
   71SLPC   H2R 6134   4.114   5.492  10.278  0.4431 -0.3622 -1.0977
   71SLPC   H2S 6135   4.259   5.396  10.339 -0.4995  1.4584  1.4379
   71SLPC    C3 6136   3.854   5.364  10.620  0.3976  0.1045  0.1565
   71SLPC    HX 6137   3.923   5.393  10.702  0.0328  2.2584 -0.2378
   71SLPC    HY 6138   3.773   5.309  10.674  0.3149 -0.9142 -0.9662
   71SLPC   O31 6139   3.810   5.473  10.552 -0.6316  0.1581 -0.2182
   71SLPC   C31 6140   3.888   5.579  10.540  0.3218 -1.2831  0.2026
   71SLPC   O32 6141   3.998   5.592  10.596 -0.5761 -0.0400 -0.5770
   71SLPC   C32 6142   3.827   5.670  10.443 -0.2360 -0.1532 -0.7460
   71SLPC   H2X 6143   3.903   5.711  10.373  0.6715 -0.0952  0.2501
   71SLPC   H2Y 6144   3.779   5.758  10.491  0.2818 -0.5061  0.4571
   71SLPC   C23 6145   4.212   5.363  10.132  0.3452 -0.3060 -0.2474
   71SLPC   H3R 6146   4.131   5.393  10.062  1.5335  0.5754 -1.3137
   71SLPC   H3S 6147   4.227   5.254  10.120 -1.9644 -0.5069 -1.7995
   71SLPC   C24 6148   4.351   5.436  10.101  0.2826  0.3393  0.3489
   71SLPC   H4R 6149   4.422   5.397  10.176 -0.6361  0.7691  1.4686
   71SLPC   H4S 6150   4.336   5.545  10.115  0.2334  0.1966  1.5176
   71SLPC   C25 6151   4.404   5.403   9.960  0.0414  0.0920 -0.0272
   71SLPC   H5R 6152   4.447   5.302   9.978  2.0053  0.8346 -0.2361
   71SLPC   H5S 6153   4.486   5.474   9.939 -1.2939  1.4523 -0.7671
   71SLPC   C26 6154   4.309   5.395   9.845  0.0091  0.2277  0.3587
   71SLPC   H6R 6155   4.264   5.495   9.825  1.9853  0.9141 -0.9486
   71SLPC   H6S 6156   4.226   5.325   9.866  0.5070 -0.2566  0.7636
   71SLPC   C27 6157   4.395   5.358   9.724 -0.5020  0.0460  0.0587
   71SLPC   H7R 6158   4.393   5.248   9.739 -0.8364  0.0107 -0.2157
   71SLPC   H7S 6159   4.495   5.404   9.738  0.1255 -1.7904  2.2456
   71SLPC   C28 6160   4.340   5.400   9.586  0.5668  0.5034 -0.7339
   71SLPC   H8R 6161   4.339   5.511   9.595 -2.5018  0.4911  0.4439
   71SLPC   H8S 6162   4.230   5.383   9.577  0.3150  0.3162  1.8282
   71SLPC   C29 6163   4.406   5.345   9.466 -0.0201  0.5114 -0.0471
   71SLPC   H9R 6164   4.450   5.245   9.483  2.1440  1.6225  1.3104
   71SLPC  C210 6165   4.404   5.389   9.338 -0.0331 -0.5989  0.2152
   71SLPC  H10R 6166   4.469   5.333   9.268  0.7229  1.1497 -0.5444
   71SLPC  C211 6167   4.344   5.517   9.274  0.2429  0.0914  0.4838
   71SLPC  H11R 6168   4.398   5.549   9.182  0.7837 -1.2251  0.3114
   71SLPC  H11S 6169   4.342   5.602   9.345 -0.8776  1.6197 -1.3040
   71SLPC  C212 6170   4.202   5.481   9.241  0.5517 -0.3614  0.2052
   71SLPC  H12R 6171   4.131   5.499   9.323  0.2583 -1.5364  0.2249
   71SLPC  C213 6172   4.161   5.451   9.120 -0.1898  0.7145  0.2486
   71SLPC  H13R 6173   4.056   5.420   9.108  0.3685 -1.0548 -0.3363
   71SLPC  C214 6174   4.234   5.445   8.981 -0.1908  0.4631 -0.2593
   71SLPC  H14R 6175   4.344   5.454   8.992  0.0836 -1.0872 -1.4302
   71SLPC  H14S 6176   4.192   5.525   8.917 -2.0056 -1.6140 -1.8166
   71SLPC  C215 6177   4.200   5.309   8.907 -0.0813  0.3512  0.2023
   71SLPC  H15R 6178   4.095   5.282   8.930  0.3928 -1.4213  0.4155
   71SLPC  H15S 6179   4.260   5.227   8.951 -2.3846 -1.7527 -0.3261
   71SLPC  C216 6180   4.232   5.319   8.756  0.0997  0.2561  0.3546
   71SLPC  H16R 6181   4.342   5.318   8.743  0.1050  3.3929 -0.5802
   71SLPC  H16S 6182   4.206   5.413   8.703 -2.9128 -0.8726 -0.4066
   71SLPC  C217 6183   4.176   5.197   8.685 -0.4576 -0.1527 -1.2477
   71SLPC  H17R 6184   4.068   5.200   8.710 -0.4424 -0.2101 -1.1743
   71SLPC  H17S 6185   4.221   5.100   8.713 -0.1542 -0.2558 -2.0578
   71SLPC  C218 6186   4.190   5.197   8.530 -0.1591 -0.0643 -0.3768
   71SLPC  H18R 6187   4.287   5.162   8.490 -0.1290  0.0634 -0.4152
   71SLPC  H18S 6188   4.182   5.301   8.491 -0.1314 -0.5362 -1.6588
   71SLPC  H18T 6189   4.102   5.144   8.488 -0.3254  0.5030 -0.7662
   71SLPC   C33 6190   3.709   5.600  10.366  0.1318 -0.2507 -0.8827
   71SLPC   H3X 6191   3.625   5.582  10.437 -0.9094  2.2136 -1.3760
   71SLPC   H3Y 6192   3.734   5.508  10.308  0.6187  0.0626 -1.1799
   71SLPC   C34 6193   3.642   5.701  10.273  0.2873 -0.2455  0.0229
   71SLPC   H4X 6194   3.653   5.798  10.327  0.5583  0.1066 -0.6495
   71SLPC   H4Y 6195   3.534   5.673  10.268 -0.0148  0.9779 -1.1275
   71SLPC   C35 6196   3.713   5.718  10.139  0.0849  0.6370  0.6222
   71SLPC   H5X 6197   3.706   5.620  10.088 -2.7621  1.4773 -0.8676
   71SLPC   H5Y 6198   3.816   5.758  10.145  1.0440 -1.2233 -1.6444
   71SLPC   C36 6199   3.635   5.798  10.045 -0.3472 -0.5002  0.6281
   71SLPC   H6X 6200   3.625   5.902  10.082  1.9466 -0.2153  0.6251
   71SLPC   H6Y 6201   3.530   5.764  10.035 -1.0791  2.1767 -2.2731
   71SLPC   C37 6202   3.715   5.799   9.912  0.1737  0.2422  1.1733
   71SLPC   H7X 6203   3.722   5.695   9.875 -1.0475  1.2842 -2.3556
   71SLPC   H7Y 6204   3.821   5.829   9.928  0.1761  1.1759 -0.3839
   71SLPC   C38 6205   3.666   5.890   9.796 -0.3403  0.1843  0.0279
   71SLPC   H8X 6206   3.745   5.903   9.719 -3.3295  0.7424 -3.2300
   71SLPC   H8Y 6207   3.628   5.988   9.833  1.0974  1.2314 -1.1515
   71SLPC   C39 6208   3.561   5.816   9.714 -0.6933  0.0981  0.3278
   71SLPC   H9X 6209   3.468   5.802   9.773  0.0030 -0.6500  1.2650
   71SLPC   H9Y 6210   3.593   5.711   9.699  1.5498  0.8927 -1.0280
   71SLPC  C310 6211   3.520   5.883   9.585 -0.4660 -0.4712  0.0319
   71SLPC  H10X 6212   3.535   5.992   9.597  0.1398 -0.3843 -1.3050
   71SLPC  H10Y 6213   3.410   5.881   9.576 -0.4317  0.2408 -0.6808
   71SLPC  C311 6214   3.602   5.846   9.461 -0.4208 -0.4844  0.1692
   71SLPC  H11X 6215   3.555   5.748   9.438 -0.1313 -0.9240  1.3621
   71SLPC  H11Y 6216   3.709   5.835   9.486 -0.1282  1.2621 -0.1733
   71SLPC  C312 6217   3.584   5.937   9.338 -0.1551  0.1962  0.6201
   71SLPC  H12X 6218   3.478   5.940   9.304  0.7677  0.6813 -2.5750
   71SLPC  H12Y 6219   3.642   5.897   9.252 -3.0695  0.0885 -1.4192
   71SLPC  C313 6220   3.646   6.075   9.365 -0.0930  0.3612 -0.2130
   71SLPC  H13X 6221   3.753   6.069   9.393 -0.0514  1.5549 -0.0884
   71SLPC  H13Y 6222   3.594   6.121   9.452  0.7522 -0.0644  0.5217
   71SLPC  C314 6223   3.619   6.171   9.250 -0.6880 -0.3063  0.1144
   71SLPC  H14X 6224   3.606   6.273   9.292  1.4705  0.3049 -0.5574
   71SLPC  H14Y 6225   3.523   6.136   9.206 -0.3396 -0.5761 -0.4373
   71SLPC  C315 6226   3.725   6.168   9.138 -0.5494  0.2551  0.1092
   71SLPC  H15X 6227   3.740   6.063   9.107 -1.5214  0.4065 -0.9235
   71SLPC  H15Y 6228   3.821   6.206   9.179 -1.2852  0.1640  2.0300
   71SLPC  C316 6229   3.674   6.241   9.013  0.4075  0.2936 -0.6397
   71SLPC  H16X 6230   3.691   6.350   9.023  0.0163  0.1661  2.4007
   71SLPC  H16Y 6231   3.566   6.227   8.992  0.1568 -2.3410  1.6952
   71SLPC  C317 6232   3.743   6.203   8.881  1.1978 -0.0012 -0.8245
   71SLPC  H17X 6233   3.734   6.093   8.869  2.9160 -0.2707  0.1410
   71SLPC  H17Y 6234   3.853   6.214   8.886  1.1908 -0.3937  0.5118
   71SLPC  C318 6235   3.692   6.281   8.758  0.9486 -0.5500 -0.0458
   71SLPC  H18X 6236   3.591   6.251   8.725 -0.2431  3.8919 -1.1869
   71SLPC  H18Y 6237   3.752   6.245   8.671  0.9410 -0.1323 -0.2301
   71SLPC  H18Z 6238   3.701   6.392   8.762  0.7559 -0.5685  2.1306
   72SLPC     N 6239   5.294   4.634  11.103  0.6557  0.7229  0.4628
   72SLPC   C13 6240   5.413   4.558  11.058  0.3647  0.2434  0.5634
   72SLPC  H13A 6241   5.414   4.450  11.061  2.1802  0.2060 -0.2236
   72SLPC  H13B 6242   5.433   4.587  10.956  2.4725 -2.6402  0.0353
   72SLPC  H13C 6243   5.499   4.586  11.117  2.1197 -0.9064 -1.3287
   72SLPC   C14 6244   5.307   4.775  11.065  0.0153  0.0142 -0.8684
   72SLPC  H14A 6245   5.269   4.779  10.964 -0.5539 -0.8571 -0.6944
   72SLPC  H14B 6246   5.260   4.854  11.121  1.0192  1.0489 -1.4511
   72SLPC  H14C 6247   5.411   4.801  11.053 -0.5197  3.1517  0.3872
   72SLPC   C15 6248   5.281   4.622  11.256 -0.4464  0.2698  0.3284
   72SLPC  H15A 6249   5.368   4.661  11.307 -1.1291  1.0763  0.9104
   72SLPC  H15B 6250   5.191   4.667  11.294 -0.2890  0.3964  0.5578
   72SLPC  H15C 6251   5.306   4.523  11.291 -1.2767  0.2056  0.7632
   72SLPC   C12 6252   5.169   4.571  11.038 -0.3377  0.3094 -0.3828
   72SLPC  H12A 6253   5.083   4.611  11.090  0.4815  0.8962  0.5517
   72SLPC  H12B 6254   5.171   4.469  11.074  0.5243  0.5803  0.3761
   72SLPC   C11 6255   5.173   4.566  10.890  0.6356  0.4601 -0.0254
   72SLPC  H11A 6256   5.091   4.502  10.850  2.0606 -1.2240 -0.3792
   72SLPC  H11B 6257   5.255   4.502  10.852  2.5507  1.2802  2.4458
   72SLPC     P 6258   5.239   4.734  10.680  0.1200  0.2175  0.4272
   72SLPC   O13 6259   5.162   4.847  10.619 -0.4634  0.4050 -0.2046
   72SLPC   O14 6260   5.374   4.766  10.719 -0.4456 -0.8382  0.5729
   72SLPC   O12 6261   5.166   4.695  10.821  0.3515  0.3798  0.1860
   72SLPC   O11 6262   5.244   4.603  10.584 -0.2686  0.3863  0.1110
   72SLPC    C1 6263   5.120   4.537  10.557  0.1871 -0.1840  0.4595
   72SLPC    HA 6264   5.121   4.431  10.590 -0.8909 -0.8465 -1.4862
   72SLPC    HB 6265   5.030   4.582  10.605 -1.4638 -0.1418 -2.4096
   72SLPC    C2 6266   5.095   4.527  10.401 -0.0610  0.0751 -0.2585
   72SLPC    HS 6267   5.186   4.492  10.348  0.3582  1.0340 -0.1948
   72SLPC   O21 6268   5.043   4.649  10.339 -0.7096 -0.3193 -0.6607
   72SLPC   C21 6269   5.146   4.725  10.309 -0.4884 -0.7657  0.4027
   72SLPC   O22 6270   5.266   4.691  10.307  0.4369  0.0960 -0.0410
   72SLPC   C22 6271   5.087   4.853  10.264  0.4687 -0.0156 -1.0373
   72SLPC   H2R 6272   5.001   4.880  10.328  1.0998  0.5127 -0.4006
   72SLPC   H2S 6273   5.170   4.927  10.269  0.2651  0.1208  2.3283
   72SLPC    C3 6274   4.983   4.418  10.367 -0.5790  0.5979  0.3541
   72SLPC    HX 6275   4.899   4.463  10.424 -1.5309  1.3426 -1.5512
   72SLPC    HY 6276   5.004   4.319  10.412 -0.9386 -0.1358 -1.0172
   72SLPC   O31 6277   4.936   4.410  10.233  0.6158  0.3006  0.9396
   72SLPC   C31 6278   5.021   4.365  10.145 -0.3690 -0.2694  0.0466
   72SLPC   O32 6279   5.124   4.309  10.177 -0.2648  0.3142  0.1893
   72SLPC   C32 6280   4.968   4.400  10.009  0.4138 -0.0478 -0.0043
   72SLPC   H2X 6281   4.903   4.490  10.015  1.6131  0.8691 -0.3252
   72SLPC   H2Y 6282   4.912   4.310   9.975 -0.0303  0.6360 -1.1278
   72SLPC   C23 6283   5.025   4.840  10.122 -0.2225  0.4187 -0.0132
   72SLPC   H3R 6284   5.006   4.942  10.084  1.1724  0.2841 -1.1510
   72SLPC   H3S 6285   4.931   4.780  10.122 -1.2203  1.8490 -2.1411
   72SLPC   C24 6286   5.127   4.786  10.020 -0.0420  1.1198 -0.3221
   72SLPC   H4R 6287   5.145   4.677  10.034 -1.2172  0.9412 -0.0939
   72SLPC   H4S 6288   5.230   4.828  10.029  0.3792  0.9485 -3.3111
   72SLPC   C25 6289   5.079   4.810   9.875 -0.3786  0.1625 -0.5502
   72SLPC   H5R 6290   5.067   4.919   9.861  1.8814  0.4838 -0.3532
   72SLPC   H5S 6291   4.981   4.766   9.849  0.1394 -0.5649 -1.3471
   72SLPC   C26 6292   5.180   4.764   9.771  0.2230 -0.0663 -0.1738
   72SLPC   H6R 6293   5.202   4.655   9.770 -1.3304 -0.3955 -1.0942
   72SLPC   H6S 6294   5.274   4.822   9.784  0.8389 -0.5079 -2.3456
   72SLPC   C27 6295   5.119   4.789   9.631 -0.5182 -0.8348  0.6384
   72SLPC   H7R 6296   5.008   4.799   9.637 -0.4005  2.0195 -0.3304
   72SLPC   H7S 6297   5.141   4.708   9.559 -2.4034 -0.4790 -0.4070
   72SLPC   C28 6298   5.156   4.921   9.561  0.0606 -0.3119 -0.3044
   72SLPC   H8R 6299   5.263   4.915   9.531  0.1942 -1.0799  0.3132
   72SLPC   H8S 6300   5.141   4.998   9.639  1.4477  0.6835 -0.9758
   72SLPC   C29 6301   5.062   4.969   9.449 -1.1320  0.0630 -0.1098
   72SLPC   H9R 6302   4.954   4.964   9.472 -0.8773  0.9802  1.4611
   72SLPC  C210 6303   5.081   5.017   9.327 -0.0508 -0.6130 -0.6703
   72SLPC  H10R 6304   4.992   5.046   9.269 -0.7963 -1.1160  0.1988
   72SLPC  C211 6305   5.204   5.049   9.250 -0.5659  0.3300  0.1904
   72SLPC  H11R 6306   5.297   5.026   9.307  0.0636  0.3725 -0.7929
   72SLPC  H11S 6307   5.198   5.156   9.221  0.7251  0.4899  0.4325
   72SLPC  C212 6308   5.206   4.962   9.127 -0.3136 -0.2545  0.0642
   72SLPC  H12R 6309   5.200   4.853   9.138  2.0980 -0.4852 -0.4686
   72SLPC  C213 6310   5.217   4.996   8.996  0.2499 -0.7229  0.4905
   72SLPC  H13R 6311   5.209   4.926   8.911 -2.5793  0.8056 -0.6487
   72SLPC  C214 6312   5.234   5.135   8.938  0.3168  0.4979 -0.3356
   72SLPC  H14R 6313   5.327   5.133   8.877  0.2885  0.7527 -0.3917
   72SLPC  H14S 6314   5.239   5.215   9.015  0.1547  1.5532 -1.3910
   72SLPC  C215 6315   5.112   5.164   8.839  0.4387 -0.5454 -0.3735
   72SLPC  H15R 6316   5.099   5.272   8.817 -3.6179 -0.9846 -0.7337
   72SLPC  H15S 6317   5.013   5.129   8.874  0.3176 -0.5976 -0.7652
   72SLPC  C216 6318   5.142   5.094   8.709 -0.3637  0.2057 -0.0494
   72SLPC  H16R 6319   5.141   4.984   8.726  0.0840  0.0600 -0.8891
   72SLPC  H16S 6320   5.246   5.107   8.670 -0.3118 -0.3418 -0.0983
   72SLPC  C217 6321   5.025   5.125   8.611  0.1238 -0.9853  0.0398
   72SLPC  H17R 6322   5.019   5.235   8.603  2.4825 -0.8567 -0.8525
   72SLPC  H17S 6323   4.923   5.091   8.637 -0.5021 -0.7121 -1.9200
   72SLPC  C218 6324   5.046   5.072   8.475  0.6654 -0.2840  0.0524
   72SLPC  H18R 6325   5.144   5.112   8.439 -0.4280  0.8817 -1.8085
   72SLPC  H18S 6326   4.960   5.104   8.411 -0.1008 -0.4476  0.9838
   72SLPC  H18T 6327   5.050   4.961   8.469  0.2392 -0.2782 -0.4383
   72SLPC   C33 6328   5.071   4.417   9.892  0.5391  0.2180 -0.7158
   72SLPC   H3X 6329   5.130   4.322   9.890 -0.0574 -0.1510 -2.1197
   72SLPC   H3Y 6330   5.141   4.494   9.930 -0.4473 -0.1346  2.0768
   72SLPC   C34 6331   5.011   4.441   9.754  0.0023 -0.1937  0.4868
   72SLPC   H4X 6332   4.977   4.547   9.753  0.3271 -0.0883  0.2697
   72SLPC   H4Y 6333   4.927   4.370   9.742 -0.3904  0.6441 -2.3501
   72SLPC   C35 6334   5.107   4.407   9.642 -0.3085  0.3420  0.3629
   72SLPC   H5X 6335   5.158   4.312   9.666  1.7904  1.2062 -0.4341
   72SLPC   H5Y 6336   5.187   4.484   9.651  1.1182 -0.6801 -2.4337
   72SLPC   C36 6337   5.035   4.396   9.505  0.0437  0.2857 -0.0033
   72SLPC   H6X 6338   4.954   4.321   9.519 -1.6024  1.5558 -2.0833
   72SLPC   H6Y 6339   5.107   4.365   9.427 -0.2173 -0.3706  0.0031
   72SLPC   C37 6340   4.960   4.523   9.457  0.1280 -0.3703  0.4871
   72SLPC   H7X 6341   5.027   4.607   9.434  1.4858 -1.0024  1.9230
   72SLPC   H7Y 6342   4.898   4.564   9.540  0.9111 -0.6154  1.2153
   72SLPC   C38 6343   4.868   4.508   9.326  0.3878 -0.2341 -0.5370
   72SLPC   H8X 6344   4.779   4.445   9.345 -0.6155  1.6510  1.5529
   72SLPC   H8Y 6345   4.922   4.452   9.247 -1.0650 -1.9554 -0.3909
   72SLPC   C39 6346   4.817   4.644   9.280  0.2533 -0.0311 -0.3276
   72SLPC   H9X 6347   4.781   4.617   9.178 -1.1983 -5.0546  1.2024
   72SLPC   H9Y 6348   4.903   4.712   9.264  2.1030 -2.4484 -1.2914
   72SLPC  C310 6349   4.702   4.701   9.363  0.3772  0.0393  0.2790
   72SLPC  H10X 6350   4.730   4.685   9.469  0.9801 -1.3956 -0.0819
   72SLPC  H10Y 6351   4.616   4.638   9.333  1.1429 -0.1101 -1.7367
   72SLPC  C311 6352   4.662   4.849   9.335 -0.2472  0.8851 -0.3209
   72SLPC  H11X 6353   4.754   4.907   9.356 -0.3700  0.4529  1.5959
   72SLPC  H11Y 6354   4.573   4.876   9.395 -2.7430 -1.8152 -2.5035
   72SLPC  C312 6355   4.626   4.898   9.191 -0.3740 -0.2500 -0.7705
   72SLPC  H12X 6356   4.529   4.848   9.169 -0.4745 -1.2005  1.5496
   72SLPC  H12Y 6357   4.711   4.867   9.125  1.7036 -1.3015  2.1939
   72SLPC  C313 6358   4.608   5.042   9.167  0.1307 -0.4476  0.9174
   72SLPC  H13X 6359   4.708   5.090   9.172  1.2989 -2.7997  1.3418
   72SLPC  H13Y 6360   4.540   5.082   9.246  1.0664  3.4290 -0.0094
   72SLPC  C314 6361   4.543   5.076   9.031  0.0015 -0.2882 -0.4980
   72SLPC  H14X 6362   4.525   5.186   9.023  0.3921 -0.0455  1.4677
   72SLPC  H14Y 6363   4.453   5.012   9.024  1.7875 -2.8254 -2.4992
   72SLPC  C315 6364   4.618   5.027   8.906 -0.0544 -0.3008 -0.2292
   72SLPC  H15X 6365   4.652   4.923   8.924  0.2305  0.1184  1.9781
   72SLPC  H15Y 6366   4.707   5.091   8.891 -0.5853  0.9448  1.5895
   72SLPC  C316 6367   4.540   5.027   8.771 -0.0647  0.7929  0.5683
   72SLPC  H16X 6368   4.484   5.122   8.762 -0.6627  0.2497 -2.6859
   72SLPC  H16Y 6369   4.474   4.937   8.771  0.4587  0.3871 -0.4584
   72SLPC  C317 6370   4.625   5.004   8.645  0.5025 -0.0407  0.0405
   72SLPC  H17X 6371   4.708   5.077   8.654 -2.1113  2.8509  2.9094
   72SLPC  H17Y 6372   4.564   5.040   8.559  1.6486  0.6377 -0.5188
   72SLPC  C318 6373   4.675   4.858   8.624  0.1575 -0.2361 -0.2204
   72SLPC  H18X 6374   4.746   4.832   8.543  1.5205 -1.1539  1.2183
   72SLPC  H18Y 6375   4.589   4.788   8.620  0.3601 -0.5357  0.4419
   72SLPC  H18Z 6376   4.739   4.829   8.710  3.3332  1.3908 -1.8429
   73SLPC     N 6377   6.634   4.084  11.218  0.4486  0.6261 -0.4236
   73SLPC   C13 6378   6.650   4.055  11.363 -0.1817 -0.1736  0.4704
   73SLPC  H13A 6379   6.589   4.112  11.432 -0.6209  1.7934 -1.4256
   73SLPC  H13B 6380   6.638   3.950  11.383  2.7303 -0.4765  0.9447
   73SLPC  H13C 6381   6.746   4.093  11.395 -1.0735  1.8591  0.8926
   73SLPC   C14 6382   6.732   3.986  11.150  0.0963 -0.4156 -0.5914
   73SLPC  H14A 6383   6.750   4.020  11.049 -0.5928  3.3268  0.3860
   73SLPC  H14B 6384   6.825   3.981  11.205 -1.1065  0.1652  1.6267
   73SLPC  H14C 6385   6.690   3.886  11.161 -1.5557  0.4039  1.3256
   73SLPC   C15 6386   6.686   4.216  11.194  0.3937 -0.4527  0.4454
   73SLPC  H15A 6387   6.780   4.233  11.244  0.6886  0.1634 -0.2971
   73SLPC  H15B 6388   6.713   4.234  11.091 -3.2685 -0.0325 -0.5977
   73SLPC  H15C 6389   6.607   4.288  11.215 -0.0398 -0.7599 -0.1141
   73SLPC   C12 6390   6.494   4.064  11.182 -0.5142  0.0259  0.4907
   73SLPC  H12A 6391   6.435   4.131  11.243  0.1723  0.5037  0.6312
   73SLPC  H12B 6392   6.463   3.963  11.208  2.0295 -1.2132 -0.8964
   73SLPC   C11 6393   6.453   4.091  11.035  0.5951 -0.0961  0.1676
   73SLPC  H11A 6394   6.533   4.049  10.971 -0.9453 -1.5289 -0.9100
   73SLPC  H11B 6395   6.439   4.197  11.003  2.8765 -0.3806 -2.0595
   73SLPC     P 6396   6.304   3.883  10.974 -0.1405  0.2387 -0.4393
   73SLPC   O13 6397   6.402   3.787  11.039 -0.2651 -0.5907  0.5960
   73SLPC   O14 6398   6.163   3.843  10.976  0.3994  0.0496  0.1225
   73SLPC   O12 6399   6.321   4.026  11.030 -0.4586 -0.2152  0.6964
   73SLPC   O11 6400   6.348   3.903  10.818 -0.0479 -0.6967 -0.7050
   73SLPC    C1 6401   6.302   4.018  10.744 -0.3003  0.5846  0.1257
   73SLPC    HA 6402   6.255   4.094  10.810 -0.0325 -1.5618  2.9863
   73SLPC    HB 6403   6.389   4.059  10.688 -1.2810  2.1187 -0.3236
   73SLPC    C2 6404   6.206   3.980  10.630 -0.2770  0.0601  0.0319
   73SLPC    HS 6405   6.125   3.911  10.663 -0.0049 -0.9310 -1.2700
   73SLPC   O21 6406   6.279   3.907  10.532 -0.1406 -0.4749 -0.0937
   73SLPC   C21 6407   6.214   3.811  10.465 -0.0738 -0.2417 -0.1842
   73SLPC   O22 6408   6.103   3.766  10.495 -0.3859 -0.1518  0.0038
   73SLPC   C22 6409   6.305   3.764  10.351 -0.4539 -0.3957  0.2209
   73SLPC   H2R 6410   6.344   3.858  10.305 -1.2585 -0.1998 -0.0678
   73SLPC   H2S 6411   6.382   3.705  10.405 -0.4913  0.0205  0.7351
   73SLPC    C3 6412   6.125   4.100  10.574  0.1302  0.3182  0.3970
   73SLPC    HX 6413   6.194   4.146  10.500 -1.6608 -0.8856 -2.1870
   73SLPC    HY 6414   6.109   4.176  10.653  0.7777  0.1810  0.6663
   73SLPC   O31 6415   5.997   4.057  10.515 -0.4203 -0.1674  0.0755
   73SLPC   C31 6416   6.003   4.026  10.384 -0.5951  0.2049 -0.0140
   73SLPC   O32 6417   6.098   4.051  10.312 -0.2216  0.6841 -0.0880
   73SLPC   C32 6418   5.870   3.973  10.341 -0.2337 -0.1993 -0.3413
   73SLPC   H2X 6419   5.802   4.060  10.342  0.7122  0.6271 -2.3535
   73SLPC   H2Y 6420   5.833   3.909  10.424 -1.0787  0.7590  0.0276
   73SLPC   C23 6421   6.230   3.670  10.254 -0.5499 -0.1344  0.9676
   73SLPC   H3R 6422   6.147   3.716  10.196 -0.0145 -1.9629 -1.3944
   73SLPC   H3S 6423   6.189   3.585  10.312 -0.8774 -0.4786  0.2433
   73SLPC   C24 6424   6.326   3.624  10.146  0.0520 -0.1423  0.3666
   73SLPC   H4R 6425   6.393   3.559  10.205 -1.6831 -0.6621  1.8545
   73SLPC   H4S 6426   6.378   3.713  10.104 -0.3438 -0.0419  0.0849
   73SLPC   C25 6427   6.259   3.538  10.044  0.3214 -0.1382  0.5815
   73SLPC   H5R 6428   6.208   3.449  10.088  0.0454  0.0392  0.6233
   73SLPC   H5S 6429   6.339   3.491   9.983  0.2506 -1.3700  1.3824
   73SLPC   C26 6430   6.162   3.611   9.947  0.0655 -0.0064  0.7252
   73SLPC   H6R 6431   6.213   3.706   9.922 -0.6028  1.1850  3.5201
   73SLPC   H6S 6432   6.070   3.646   9.999 -1.5492 -1.7798 -0.7721
   73SLPC   C27 6433   6.136   3.536   9.811  0.3083  0.0190 -0.2785
   73SLPC   H7R 6434   6.061   3.456   9.828  1.2203 -0.3948  2.1658
   73SLPC   H7S 6435   6.234   3.504   9.770  0.3386 -0.9671  0.5271
   73SLPC   C28 6436   6.071   3.630   9.708 -0.3564 -0.8386 -0.3096
   73SLPC   H8R 6437   5.974   3.664   9.750  1.4696  0.9481  2.8287
   73SLPC   H8S 6438   6.051   3.576   9.613  1.1500  1.9637 -2.3437
   73SLPC   C29 6439   6.157   3.750   9.673  0.6081 -0.4721 -0.9639
   73SLPC   H9R 6440   6.132   3.833   9.742 -0.9510 -0.8317 -1.0559
   73SLPC  C210 6441   6.238   3.764   9.567  0.2669 -0.4867 -0.5216
   73SLPC  H10R 6442   6.292   3.859   9.557 -0.7923  0.2975  0.7698
   73SLPC  C211 6443   6.271   3.660   9.460 -0.6232  0.3300 -0.2333
   73SLPC  H11R 6444   6.245   3.557   9.491  1.4236  0.0109  0.5682
   73SLPC  H11S 6445   6.380   3.659   9.439 -0.7950  5.6761 -3.3104
   73SLPC  C212 6446   6.197   3.707   9.335  0.8459  0.6670 -0.2901
   73SLPC  H12R 6447   6.090   3.729   9.348  1.2800  2.8208 -0.0364
   73SLPC  C213 6448   6.246   3.719   9.213  0.1622 -0.2906 -0.1655
   73SLPC  H13R 6449   6.190   3.780   9.140 -1.2680 -0.8708  0.4085
   73SLPC  C214 6450   6.386   3.668   9.172  0.6469 -0.2613 -0.6853
   73SLPC  H14R 6451   6.421   3.593   9.246  0.5578  1.4391  1.1958
   73SLPC  H14S 6452   6.459   3.750   9.192 -0.0799  0.0559  0.8632
   73SLPC  C215 6453   6.388   3.623   9.025 -0.1034  0.4276  1.0299
   73SLPC  H15R 6454   6.316   3.541   9.004 -0.3327  1.1355 -1.2603
   73SLPC  H15S 6455   6.487   3.576   9.006 -0.4492  0.3683 -0.8827
   73SLPC  C216 6456   6.381   3.739   8.920  0.5110 -0.4828  0.1420
   73SLPC  H16R 6457   6.426   3.837   8.947 -0.0960 -0.3338  0.6295
   73SLPC  H16S 6458   6.274   3.761   8.899  1.2523  4.1118  0.1958
   73SLPC  C217 6459   6.446   3.700   8.791 -0.3342  1.1129  0.3283
   73SLPC  H17R 6460   6.393   3.610   8.754  1.1266  0.4013 -0.0836
   73SLPC  H17S 6461   6.547   3.658   8.807 -0.2403  0.0944 -2.3804
   73SLPC  C218 6462   6.464   3.804   8.681  0.3019 -0.6543 -0.1306
   73SLPC  H18R 6463   6.540   3.880   8.711  0.3014 -0.3867 -0.7892
   73SLPC  H18S 6464   6.377   3.868   8.656  0.1288  0.1611  2.2759
   73SLPC  H18T 6465   6.494   3.759   8.584 -1.1748  1.6053 -1.7271
   73SLPC   C33 6466   5.845   3.889  10.211 -0.4900  0.1638 -0.0710
   73SLPC   H3X 6467   5.902   3.794  10.216 -2.8171 -1.3180  0.4192
   73SLPC   H3Y 6468   5.884   3.949  10.127  0.1784  1.2494  0.9972
   73SLPC   C34 6469   5.705   3.853  10.177  0.3284  0.5654 -0.1122
   73SLPC   H4X 6470   5.634   3.938  10.172 -0.4040 -0.0457 -0.2585
   73SLPC   H4Y 6471   5.670   3.784  10.257  0.1879 -0.4137 -0.9931
   73SLPC   C35 6472   5.682   3.770  10.046 -1.4665 -0.6822  0.3265
   73SLPC   H5X 6473   5.573   3.746  10.050 -1.6879  0.4251  1.6040
   73SLPC   H5Y 6474   5.735   3.673  10.056  1.4598  0.7998  0.2683
   73SLPC   C36 6475   5.718   3.846   9.913  0.4870 -0.5894 -0.0268
   73SLPC   H6X 6476   5.829   3.854   9.911  0.6766 -1.1514  3.1913
   73SLPC   H6Y 6477   5.691   3.953   9.918  0.0126 -0.7169  0.2179
   73SLPC   C37 6478   5.668   3.763   9.802 -0.6079  0.0743  0.0728
   73SLPC   H7X 6479   5.574   3.718   9.841  0.8587 -0.9755  2.6232
   73SLPC   H7Y 6480   5.747   3.687   9.785 -0.1467  0.6288 -0.2777
   73SLPC   C38 6481   5.639   3.839   9.670 -0.6288  0.1933  0.0361
   73SLPC   H8X 6482   5.725   3.904   9.641 -0.0182  0.3721  2.0950
   73SLPC   H8Y 6483   5.557   3.910   9.691 -0.2582  0.8285 -0.6126
   73SLPC   C39 6484   5.583   3.746   9.560  0.1542 -0.2583 -0.4440
   73SLPC   H9X 6485   5.489   3.700   9.595 -0.3967  0.5168 -0.8673
   73SLPC   H9Y 6486   5.665   3.675   9.534  0.0545  0.3545 -2.6868
   73SLPC  C310 6487   5.549   3.830   9.441 -0.3036 -0.7451  0.1014
   73SLPC  H10X 6488   5.517   3.929   9.479  1.8069 -0.0186  0.1261
   73SLPC  H10Y 6489   5.464   3.774   9.395 -0.5055  2.0788 -3.4206
   73SLPC  C311 6490   5.669   3.866   9.344 -1.0616  0.3659 -0.2023
   73SLPC  H11X 6491   5.719   3.775   9.306  1.0394  1.7593 -0.9355
   73SLPC  H11Y 6492   5.742   3.922   9.406 -0.5233 -0.2229 -0.2954
   73SLPC  C312 6493   5.623   3.959   9.227  0.6264  0.3592  0.0406
   73SLPC  H12X 6494   5.666   4.059   9.250  0.5176  0.2390  0.8054
   73SLPC  H12Y 6495   5.512   3.966   9.226  0.5031 -1.1237  0.2584
   73SLPC  C313 6496   5.670   3.922   9.086  0.6055 -0.3130  0.0428
   73SLPC  H13X 6497   5.632   3.988   9.005 -1.2293 -0.5594  0.6569
   73SLPC  H13Y 6498   5.634   3.819   9.068 -1.1712  0.1155  0.9212
   73SLPC  C314 6499   5.823   3.924   9.071 -0.0935  0.7392 -0.9695
   73SLPC  H14X 6500   5.872   3.850   9.138 -2.3661  0.5828  0.6195
   73SLPC  H14Y 6501   5.862   4.026   9.090  0.2640  0.7740 -1.8083
   73SLPC  C315 6502   5.867   3.891   8.921 -0.2152  0.0048  0.5636
   73SLPC  H15X 6503   5.976   3.897   8.904 -0.6420 -0.6224 -3.0837
   73SLPC  H15Y 6504   5.835   3.973   8.854 -0.6518 -0.9423 -0.4230
   73SLPC  C316 6505   5.831   3.744   8.874  0.2948  0.0090 -0.6219
   73SLPC  H16X 6506   5.721   3.739   8.875 -0.1487  4.6120 -1.3235
   73SLPC  H16Y 6507   5.867   3.668   8.946 -1.1087  0.7099  0.8753
   73SLPC  C317 6508   5.886   3.721   8.735 -0.5012  1.1121 -0.3796
   73SLPC  H17X 6509   5.993   3.694   8.743 -0.9491 -1.0079 -1.0175
   73SLPC  H17Y 6510   5.877   3.814   8.674  0.0309  1.0564 -0.5480
   73SLPC  C318 6511   5.818   3.599   8.672  0.1993  0.0477  0.5025
   73SLPC  H18X 6512   5.883   3.551   8.595 -0.3365  0.7888 -0.4287
   73SLPC  H18Y 6513   5.726   3.640   8.626 -1.8694 -3.6634  0.9426
   73SLPC  H18Z 6514   5.790   3.524   8.750 -2.6665  1.3214  0.8053
   74SLPC     N 6515   6.650   4.959  10.679 -0.2975  0.2324  0.0767
   74SLPC   C13 6516   6.603   5.100  10.713 -0.1062  0.0091  0.1311
   74SLPC  H13A 6517   6.680   5.158  10.762 -1.1550 -0.8173  2.8993
   74SLPC  H13B 6518   6.568   5.146  10.621 -1.0469 -2.5280 -0.8767
   74SLPC  H13C 6519   6.518   5.103  10.779 -1.8164 -1.2760 -1.9075
   74SLPC   C14 6520   6.719   4.917  10.803 -0.0520  0.0172 -0.2606
   74SLPC  H14A 6521   6.764   4.822  10.780 -1.7339 -0.9096  0.1361
   74SLPC  H14B 6522   6.796   4.986  10.835 -0.3859 -0.6351  2.1699
   74SLPC  H14C 6523   6.645   4.912  10.882  1.0408  1.3712  0.9147
   74SLPC   C15 6524   6.749   4.969  10.562 -0.1458 -0.0402 -0.3174
   74SLPC  H15A 6525   6.697   5.001  10.472  1.4003 -1.7426 -1.9128
   74SLPC  H15B 6526   6.824   5.045  10.576  0.4557 -0.5596 -0.6468
   74SLPC  H15C 6527   6.793   4.872  10.542 -0.0380 -0.1857  0.6111
   74SLPC   C12 6528   6.545   4.863  10.643  0.5622  0.1569  0.6799
   74SLPC  H12A 6529   6.462   4.868  10.711 -1.2998  3.8341 -1.5459
   74SLPC  H12B 6530   6.576   4.760  10.645  2.9222  0.8256  2.1494
   74SLPC   C11 6531   6.476   4.891  10.506 -0.1938 -0.0102  0.3052
   74SLPC  H11A 6532   6.400   4.810  10.506 -0.5872  0.3435  1.2212
   74SLPC  H11B 6533   6.534   4.888  10.411 -2.1109  0.4689 -0.9487
   74SLPC     P 6534   6.267   5.050  10.557 -0.4461 -0.3305  0.4955
   74SLPC   O13 6535   6.237   5.010  10.693  0.3251 -0.0531 -0.3686
   74SLPC   O14 6536   6.230   5.187  10.513  0.7526 -0.1540  0.1799
   74SLPC   O12 6537   6.416   5.018  10.520  0.1155 -0.1118  0.1824
   74SLPC   O11 6538   6.192   4.956  10.463 -0.2264 -0.7888 -0.0561
   74SLPC    C1 6539   6.222   4.948  10.317  0.2882  0.1660 -0.2490
   74SLPC    HA 6540   6.318   4.998  10.291 -0.0132  0.6390 -0.4684
   74SLPC    HB 6541   6.245   4.839  10.316 -2.1380 -0.4196  0.7395
   74SLPC    C2 6542   6.093   4.968  10.224  0.0178  0.0100 -0.1430
   74SLPC    HS 6543   6.018   4.893  10.258  1.0577 -1.1840 -0.3958
   74SLPC   O21 6544   6.134   4.956  10.088  0.1276 -0.0838  0.5248
   74SLPC   C21 6545   6.068   4.862  10.021 -0.5891  0.1562  1.1300
   74SLPC   O22 6546   5.999   4.774  10.064 -0.0436  0.4719  0.7718
   74SLPC   C22 6547   6.076   4.886   9.870  0.4578  0.1871  0.1551
   74SLPC   H2R 6548   6.022   4.980   9.847 -1.0976 -0.3881  1.3285
   74SLPC   H2S 6549   6.184   4.886   9.842 -0.1239 -3.2158 -2.7888
   74SLPC    C3 6550   6.022   5.104  10.241  0.2609 -0.5030  0.2093
   74SLPC    HX 6551   6.096   5.185  10.220  0.7930 -0.9459  0.3531
   74SLPC    HY 6552   5.991   5.121  10.347 -2.5356 -0.9243 -0.4508
   74SLPC   O31 6553   5.911   5.121  10.154  0.4998  0.4565  0.3102
   74SLPC   C31 6554   5.794   5.063  10.188 -0.2583 -1.3219 -0.4985
   74SLPC   O32 6555   5.778   4.994  10.286 -0.0588  0.1437  0.0208
   74SLPC   C32 6556   5.689   5.090  10.079  1.0750 -1.2687 -0.9697
   74SLPC   H2X 6557   5.652   5.195  10.090  0.3924 -1.4963 -1.0614
   74SLPC   H2Y 6558   5.605   5.027  10.115  0.4635 -0.3290 -0.7169
   74SLPC   C23 6559   6.015   4.769   9.793  0.5191  0.5036 -0.3400
   74SLPC   H3R 6560   5.904   4.770   9.797  0.4463 -1.6248 -0.1802
   74SLPC   H3S 6561   6.042   4.666   9.828  0.0882  0.0175 -1.4093
   74SLPC   C24 6562   6.065   4.769   9.648  0.7205 -0.0826 -0.1617
   74SLPC   H4R 6563   6.175   4.756   9.638  0.9467  1.7555 -0.4238
   74SLPC   H4S 6564   6.024   4.865   9.611 -1.6810 -1.8362 -2.4510
   74SLPC   C25 6565   6.006   4.656   9.573  0.6885  0.1974 -0.0054
   74SLPC   H5R 6566   5.898   4.679   9.560  0.3136 -2.1402 -1.8004
   74SLPC   H5S 6567   6.011   4.562   9.632  0.3081  0.9338  1.2430
   74SLPC   C26 6568   6.074   4.628   9.446  0.3207  0.0655 -0.0904
   74SLPC   H6R 6569   6.051   4.531   9.397 -1.1143  1.3137 -2.0776
   74SLPC   H6S 6570   6.184   4.642   9.451  0.1931  0.8752  0.7236
   74SLPC   C27 6571   6.024   4.734   9.340  0.3182  0.0276 -0.5024
   74SLPC   H7R 6572   6.079   4.828   9.362 -1.9389  1.3881 -0.2974
   74SLPC   H7S 6573   5.918   4.761   9.362  0.7517  0.8760  0.6862
   74SLPC   C28 6574   6.046   4.684   9.201  0.3384  0.2193  0.2278
   74SLPC   H8R 6575   5.952   4.632   9.173  1.2554 -1.9128  0.8676
   74SLPC   H8S 6576   6.131   4.612   9.198  1.7593  1.8626 -1.2487
   74SLPC   C29 6577   6.063   4.805   9.107  0.4004  0.1938 -0.0266
   74SLPC   H9R 6578   6.127   4.886   9.143  0.6957 -0.4170  0.8583
   74SLPC  C210 6579   6.020   4.815   8.984 -0.0639 -0.6947  1.1128
   74SLPC  H10R 6580   6.055   4.902   8.926 -1.0723 -1.2497 -0.4066
   74SLPC  C211 6581   5.951   4.712   8.906 -0.1038  0.2816  0.3545
   74SLPC  H11R 6582   5.858   4.680   8.958  0.2608 -1.6964 -0.0986
   74SLPC  H11S 6583   6.019   4.624   8.896  0.7213  1.1872 -3.3565
   74SLPC  C212 6584   5.913   4.765   8.766  0.3892  0.5097 -0.4986
   74SLPC  H12R 6585   5.994   4.809   8.706  0.8357 -0.7100 -0.8261
   74SLPC  C213 6586   5.794   4.770   8.716 -0.6400 -0.1970  0.0041
   74SLPC  H13R 6587   5.794   4.813   8.615 -1.6828  1.8128  0.7972
   74SLPC  C214 6588   5.655   4.723   8.769 -0.3864 -0.0498 -0.0442
   74SLPC  H14R 6589   5.574   4.790   8.732 -2.4542 -2.0862  0.5810
   74SLPC  H14S 6590   5.658   4.717   8.880  0.1827  1.2332  0.0300
   74SLPC  C215 6591   5.602   4.587   8.712 -0.1212 -0.4477 -0.4619
   74SLPC  H15R 6592   5.594   4.588   8.601  1.3507  2.2514 -0.6454
   74SLPC  H15S 6593   5.502   4.566   8.755 -0.0662 -0.5721 -0.3970
   74SLPC  C216 6594   5.694   4.468   8.748 -0.6280  0.3330 -0.7525
   74SLPC  H16R 6595   5.715   4.478   8.857 -1.8693  0.4691 -0.5132
   74SLPC  H16S 6596   5.784   4.481   8.684 -0.0709  3.4962  0.4464
   74SLPC  C217 6597   5.624   4.332   8.737  0.5919  0.2090 -0.2059
   74SLPC  H17R 6598   5.698   4.249   8.737 -0.7758 -1.1074  2.0014
   74SLPC  H17S 6599   5.588   4.327   8.632  2.1772  0.5229 -0.7972
   74SLPC  C218 6600   5.508   4.297   8.826  0.3445 -0.1243 -0.4217
   74SLPC  H18R 6601   5.525   4.325   8.932  0.5626 -1.7199 -0.0034
   74SLPC  H18S 6602   5.505   4.186   8.823  0.3181 -0.1090 -1.0097
   74SLPC  H18T 6603   5.408   4.335   8.797  0.0738  1.0994  1.8932
   74SLPC   C33 6604   5.740   5.055   9.940  0.4310  0.4394  0.8246
   74SLPC   H3X 6605   5.789   4.955   9.938  0.8249  0.6429  0.0445
   74SLPC   H3Y 6606   5.810   5.131   9.900  0.2072  0.6625  0.8538
   74SLPC   C34 6607   5.616   5.036   9.848 -0.3840 -0.0324  0.1961
   74SLPC   H4X 6608   5.567   5.135   9.856  0.6388  0.5524 -0.6187
   74SLPC   H4Y 6609   5.547   4.962   9.896  1.4250 -0.9514  1.5117
   74SLPC   C35 6610   5.646   4.984   9.712  0.4511 -0.4067  0.1688
   74SLPC   H5X 6611   5.549   4.975   9.659  1.9430 -1.6665 -2.5566
   74SLPC   H5Y 6612   5.699   4.886   9.713  0.9716 -0.1538 -0.9653
   74SLPC   C36 6613   5.732   5.087   9.633  0.1324  0.0190  0.0166
   74SLPC   H6X 6614   5.828   5.112   9.681  0.6243  0.1659 -1.0050
   74SLPC   H6Y 6615   5.672   5.180   9.620  0.4785  0.3189  0.5347
   74SLPC   C37 6616   5.772   5.027   9.490 -0.2095 -0.3066 -0.2013
   74SLPC   H7X 6617   5.674   5.011   9.439 -1.0388 -0.0581  1.2558
   74SLPC   H7Y 6618   5.822   4.928   9.492 -2.1195 -1.3206  0.9688
   74SLPC   C38 6619   5.844   5.138   9.406  0.4405  0.6576  0.6041
   74SLPC   H8X 6620   5.931   5.170   9.467  1.7942 -0.4406 -0.6702
   74SLPC   H8Y 6621   5.779   5.225   9.382  0.6814  0.6911  0.0426
   74SLPC   C39 6622   5.906   5.097   9.270  0.0442 -0.5332 -0.6784
   74SLPC   H9X 6623   5.828   5.046   9.212 -1.4715  0.8132  0.0934
   74SLPC   H9Y 6624   5.988   5.026   9.293 -1.5685 -2.2476 -0.0523
   74SLPC  C310 6625   5.943   5.222   9.189 -0.4680  0.6155  0.0806
   74SLPC  H10X 6626   6.010   5.286   9.250 -0.5920 -1.8390  3.0567
   74SLPC  H10Y 6627   5.847   5.265   9.153 -0.2583  0.2190 -0.9908
   74SLPC  C311 6628   5.996   5.200   9.044  0.0929  0.9980 -0.4287
   74SLPC  H11X 6629   5.921   5.136   8.995 -0.4684  0.5328  1.0107
   74SLPC  H11Y 6630   6.088   5.139   9.058 -0.9941 -0.8832 -1.2594
   74SLPC  C312 6631   6.013   5.333   8.969  0.8899 -0.7921 -0.1914
   74SLPC  H12X 6632   6.075   5.397   9.034  2.9478 -2.8677  0.0140
   74SLPC  H12Y 6633   5.913   5.380   8.959  0.5536 -1.4664 -0.1202
   74SLPC  C313 6634   6.092   5.317   8.838  0.3768  0.2326 -0.0076
   74SLPC  H13X 6635   6.194   5.283   8.866  0.1287  0.3845  1.1336
   74SLPC  H13Y 6636   6.103   5.420   8.797  3.7275  0.8827  2.0697
   74SLPC  C314 6637   6.032   5.222   8.734 -0.4474 -0.7838 -0.6206
   74SLPC  H14X 6638   5.929   5.250   8.705 -0.2089 -0.2244 -0.9608
   74SLPC  H14Y 6639   6.022   5.119   8.775 -1.2720 -0.6358 -0.4416
   74SLPC  C315 6640   6.116   5.213   8.602 -0.6842 -0.2663 -0.0044
   74SLPC  H15X 6641   6.079   5.122   8.551 -0.2739  0.0103 -0.8142
   74SLPC  H15Y 6642   6.223   5.201   8.628 -0.0461  2.5763 -0.9640
   74SLPC  C316 6643   6.107   5.337   8.512 -0.0864 -0.3238 -1.0091
   74SLPC  H16X 6644   6.122   5.427   8.574  0.7682  1.7069 -3.9323
   74SLPC  H16Y 6645   6.003   5.344   8.474 -0.7502 -1.5898  0.4668
   74SLPC  C317 6646   6.204   5.341   8.407 -0.2771 -0.3092 -0.1637
   74SLPC  H17X 6647   6.214   5.250   8.345 -0.8850  0.7310 -1.8527
   74SLPC  H17Y 6648   6.307   5.355   8.448 -0.0856 -0.7793 -0.4787
   74SLPC  C318 6649   6.177   5.445   8.297 -0.5848 -0.3651 -0.3062
   74SLPC  H18X 6650   6.265   5.446   8.228 -1.4975 -0.4262 -1.5080
   74SLPC  H18Y 6651   6.177   5.550   8.332  1.7519 -1.0474  2.0603
   74SLPC  H18Z 6652   6.082   5.426   8.242  0.5104  0.4796 -2.6392
   75SLPC     N 6653   3.599   0.107   6.360 -0.8014  0.0220 -0.2399
   75SLPC   C13 6654   3.578   0.238   6.429 -0.3050  0.0815 -0.5498
   75SLPC  H13A 6655   3.557   0.232   6.534  0.5562 -0.8069 -0.4057
   75SLPC  H13B 6656   3.669   0.296   6.415  0.4259 -0.9366 -0.1525
   75SLPC  H13C 6657   3.498   0.292   6.380 -0.9032  0.0333  0.3643
   75SLPC   C14 6658   3.621   0.126   6.215  0.1870  0.2593  0.0711
   75SLPC  H14A 6659   3.709   0.188   6.208  0.7628 -0.6349 -0.9053
   75SLPC  H14B 6660   3.633   0.030   6.168  0.0778  0.8422 -1.1985
   75SLPC  H14C 6661   3.537   0.170   6.164 -1.0441 -0.3555  1.5005
   75SLPC   C15 6662   3.487   0.019   6.385 -0.0865 -0.2837  0.4574
   75SLPC  H15A 6663   3.396   0.075   6.365  0.1785  0.5123  1.4043
   75SLPC  H15B 6664   3.489  -0.068   6.321  2.6493  0.1277 -0.1428
   75SLPC  H15C 6665   3.474   0.005   6.491  1.3656  1.1511  0.8638
   75SLPC   C12 6666   3.727   0.052   6.420  0.0977  0.0929 -0.7181
   75SLPC  H12A 6667   3.807   0.117   6.389  0.8369 -0.1027  0.6719
   75SLPC  H12B 6668   3.765  -0.033   6.366 -0.6354 -0.0260 -1.0563
   75SLPC   C11 6669   3.743   0.035   6.575 -0.2393  0.0008 -0.2404
   75SLPC  H11A 6670   3.728   0.132   6.626 -0.6318 -0.1089 -0.1445
   75SLPC  H11B 6671   3.848   0.000   6.588 -0.1793  0.0707 -0.5219
   75SLPC     P 6672   3.683  -0.223   6.597  0.0818 -0.0994  0.0178
   75SLPC   O13 6673   3.559  -0.293   6.630 -0.1309 -0.2277  0.6249
   75SLPC   O14 6674   3.726  -0.246   6.454 -0.1947 -0.0755 -0.4133
   75SLPC   O12 6675   3.658  -0.069   6.630 -0.1525  0.0776  0.5207
   75SLPC   O11 6676   3.792  -0.264   6.706  0.1116  0.4457 -0.5047
   75SLPC    C1 6677   3.770  -0.202   6.838  0.1224 -0.5494  1.0044
   75SLPC    HA 6678   3.826  -0.107   6.838 -0.7588 -0.0201  0.5438
   75SLPC    HB 6679   3.666  -0.168   6.856 -0.2576  0.8522 -2.8513
   75SLPC    C2 6680   3.827  -0.301   6.937  0.5161  0.2205  0.6269
   75SLPC    HS 6681   3.927  -0.331   6.899  0.0949 -1.0684  0.4534
   75SLPC   O21 6682   3.728  -0.409   6.941  0.2467 -0.4319 -0.4093
   75SLPC   C21 6683   3.787  -0.529   6.953 -0.0442  0.3480 -0.3195
   75SLPC   O22 6684   3.900  -0.560   6.930  0.0406  0.4891  0.0430
   75SLPC   C22 6685   3.675  -0.632   6.981  0.1843  0.0163  0.2033
   75SLPC   H2R 6686   3.634  -0.646   6.878  2.1069 -2.5967 -0.3014
   75SLPC   H2S 6687   3.717  -0.729   7.015  0.5484 -0.1172 -0.6006
   75SLPC    C3 6688   3.839  -0.242   7.077  0.4376  0.6352 -0.8394
   75SLPC    HX 6689   3.735  -0.215   7.105 -0.2884 -0.1679 -2.6477
   75SLPC    HY 6690   3.899  -0.149   7.069  0.7267  0.7567  1.8297
   75SLPC   O31 6691   3.892  -0.344   7.175  0.0257 -0.4313 -0.6638
   75SLPC   C31 6692   4.029  -0.340   7.173 -0.5008  0.5141  0.2794
   75SLPC   O32 6693   4.095  -0.258   7.110  0.0613 -0.8745 -0.6949
   75SLPC   C32 6694   4.090  -0.465   7.246 -0.4247 -0.4134 -0.7157
   75SLPC   H2X 6695   4.197  -0.475   7.214  0.0800  1.0053  0.4200
   75SLPC   H2Y 6696   4.042  -0.551   7.196 -0.1422 -0.6549 -0.5743
   75SLPC   C23 6697   3.563  -0.586   7.078 -0.0411  0.3489 -0.4845
   75SLPC   H3R 6698   3.463  -0.633   7.065  0.2267 -0.1284 -0.7871
   75SLPC   H3S 6699   3.549  -0.476   7.068  0.6103  0.4757 -0.0238
   75SLPC   C24 6700   3.600  -0.619   7.219 -0.4306  0.2919 -0.2982
   75SLPC   H4R 6701   3.707  -0.591   7.232  0.0230 -0.4280 -2.1183
   75SLPC   H4S 6702   3.589  -0.724   7.252 -1.1781  0.9820  1.8453
   75SLPC   C25 6703   3.531  -0.525   7.322 -0.2421  0.0577  0.0565
   75SLPC   H5R 6704   3.423  -0.517   7.296 -1.1615 -0.9488  3.1338
   75SLPC   H5S 6705   3.585  -0.428   7.320  1.3609 -0.7635  1.2739
   75SLPC   C26 6706   3.537  -0.581   7.467 -0.0701  0.1319  0.3799
   75SLPC   H6R 6707   3.643  -0.592   7.498 -0.0710 -1.1422 -0.0091
   75SLPC   H6S 6708   3.503  -0.687   7.461  1.7559 -0.4189 -1.1417
   75SLPC   C27 6709   3.455  -0.506   7.572 -0.0393 -0.2753 -0.0717
   75SLPC   H7R 6710   3.350  -0.538   7.561 -0.3609  0.1272  1.6374
   75SLPC   H7S 6711   3.466  -0.401   7.536 -1.0128  0.2562  1.1266
   75SLPC   C28 6712   3.493  -0.523   7.722  0.7587 -0.1934  0.3702
   75SLPC   H8R 6713   3.601  -0.498   7.733  0.9541 -0.8542 -0.0123
   75SLPC   H8S 6714   3.477  -0.630   7.748 -2.4961 -0.4436 -2.0394
   75SLPC   C29 6715   3.421  -0.432   7.820 -0.4113  0.1270 -0.0798
   75SLPC   H9R 6716   3.437  -0.324   7.806  0.2115 -0.0644 -0.9603
   75SLPC  C210 6717   3.355  -0.476   7.928 -0.5374 -0.3054 -0.5695
   75SLPC  H10R 6718   3.305  -0.408   7.998  0.6197 -0.4736  0.4606
   75SLPC  C211 6719   3.336  -0.610   7.983 -0.3510  0.3947  0.0977
   75SLPC  H11R 6720   3.432  -0.643   8.027 -0.7645  1.8143  2.2513
   75SLPC  H11S 6721   3.318  -0.674   7.895 -0.9625  1.9320 -0.9393
   75SLPC  C212 6722   3.221  -0.632   8.087 -0.1378 -0.5199 -0.1667
   75SLPC  H12R 6723   3.121  -0.597   8.058  0.1004 -0.1429 -0.5493
   75SLPC  C213 6724   3.226  -0.696   8.207 -0.2111 -0.0801  0.4583
   75SLPC  H13R 6725   3.126  -0.704   8.252 -2.0359  6.5656 -1.2993
   75SLPC  C214 6726   3.336  -0.772   8.274 -0.6351 -0.0334  0.2430
   75SLPC  H14R 6727   3.313  -0.774   8.383 -0.3928 -0.9059  0.2877
   75SLPC  H14S 6728   3.430  -0.722   8.242 -1.0026 -0.6960 -2.0434
   75SLPC  C215 6729   3.355  -0.913   8.218  0.4524 -0.4036  0.4004
   75SLPC  H15R 6730   3.369  -0.909   8.108  0.3821 -2.4228  0.2778
   75SLPC  H15S 6731   3.267  -0.975   8.247  1.7123 -2.1750  0.6207
   75SLPC  C216 6732   3.484  -0.992   8.260 -0.0603  0.2030  1.1401
   75SLPC  H16R 6733   3.488  -1.087   8.202 -1.7947  0.8811 -0.1688
   75SLPC  H16S 6734   3.462  -1.022   8.365 -0.2717 -1.2555  0.6976
   75SLPC  C217 6735   3.616  -0.925   8.235 -0.3317 -0.6408  0.0284
   75SLPC  H17R 6736   3.624  -0.848   8.315  0.2961 -1.0857  0.4102
   75SLPC  H17S 6737   3.640  -0.886   8.134  1.3515 -1.5261  0.0439
   75SLPC  C218 6738   3.721  -1.038   8.261 -0.1123 -0.0220  0.1023
   75SLPC  H18R 6739   3.702  -1.100   8.352 -2.0769 -2.4410 -1.7956
   75SLPC  H18S 6740   3.824  -0.999   8.263 -0.2097  0.6602 -3.3204
   75SLPC  H18T 6741   3.714  -1.105   8.173 -2.4470  1.1906 -0.7204
   75SLPC   C33 6742   4.071  -0.457   7.401  0.3535  0.5706  0.3449
   75SLPC   H3X 6743   3.963  -0.456   7.426  0.2334 -0.5965 -0.0412
   75SLPC   H3Y 6744   4.105  -0.548   7.455  0.1382  1.1998  1.5607
   75SLPC   C34 6745   4.139  -0.336   7.449  0.0309 -0.0163  0.1600
   75SLPC   H4X 6746   4.093  -0.241   7.414 -0.7855 -0.3801  0.2383
   75SLPC   H4Y 6747   4.244  -0.331   7.412  1.3219  2.4483  3.6308
   75SLPC   C35 6748   4.150  -0.321   7.605  0.5475  0.5457  0.8123
   75SLPC   H5X 6749   4.048  -0.308   7.648  0.5418 -0.2430  1.0584
   75SLPC   H5Y 6750   4.215  -0.236   7.635  0.4644  0.7436  0.4379
   75SLPC   C36 6751   4.210  -0.449   7.671  0.2920 -0.6914 -0.0820
   75SLPC   H6X 6752   4.305  -0.484   7.625  0.2212 -2.6869  1.1396
   75SLPC   H6Y 6753   4.130  -0.526   7.671  0.2578 -0.6909 -1.8364
   75SLPC   C37 6754   4.247  -0.434   7.826 -0.0437 -0.4334  0.2425
   75SLPC   H7X 6755   4.339  -0.374   7.815 -0.1548 -0.7489 -3.2841
   75SLPC   H7Y 6756   4.259  -0.540   7.860  1.2250 -1.2289 -2.4125
   75SLPC   C38 6757   4.141  -0.373   7.919 -0.4726 -0.2603  0.6054
   75SLPC   H8X 6758   4.054  -0.443   7.918  0.3614 -1.3396 -0.9965
   75SLPC   H8Y 6759   4.102  -0.283   7.868 -1.4300 -0.8720  0.2226
   75SLPC   C39 6760   4.191  -0.342   8.058 -0.6782 -0.7611 -0.4336
   75SLPC   H9X 6761   4.100  -0.320   8.119 -0.2082  1.0752 -0.3323
   75SLPC   H9Y 6762   4.256  -0.252   8.054 -2.6997  0.7314 -1.6158
   75SLPC  C310 6763   4.272  -0.459   8.123  0.1443  0.5613  0.0777
   75SLPC  H10X 6764   4.359  -0.484   8.058 -1.3638 -0.8887 -1.4914
   75SLPC  H10Y 6765   4.216  -0.555   8.120 -0.1725  0.5213  3.5639
   75SLPC  C311 6766   4.311  -0.439   8.271 -0.4451  0.0763 -1.2232
   75SLPC  H11X 6767   4.236  -0.502   8.323  0.2337 -0.2386 -0.6160
   75SLPC  H11Y 6768   4.301  -0.332   8.299 -1.6929 -0.4589  0.5251
   75SLPC  C312 6769   4.452  -0.484   8.294  1.0529 -0.2477  0.1224
   75SLPC  H12X 6770   4.485  -0.582   8.251  2.8714  0.0334  0.7933
   75SLPC  H12Y 6771   4.461  -0.497   8.404 -1.1364 -1.4566  0.2168
   75SLPC  C313 6772   4.553  -0.383   8.239 -0.6748 -0.1558 -0.3752
   75SLPC  H13X 6773   4.538  -0.282   8.283  1.0796  0.5801 -1.3644
   75SLPC  H13Y 6774   4.546  -0.376   8.128  0.9759  1.1391 -0.4362
   75SLPC  C314 6775   4.698  -0.438   8.275  0.1624 -0.1728  0.1527
   75SLPC  H14X 6776   4.773  -0.369   8.231  1.0460 -1.8364 -1.0519
   75SLPC  H14Y 6777   4.713  -0.530   8.215  1.3335 -0.8220  1.4008
   75SLPC  C315 6778   4.725  -0.448   8.422  0.2774 -0.6516  0.0300
   75SLPC  H15X 6779   4.661  -0.530   8.462 -0.4725  0.0797  0.3652
   75SLPC  H15Y 6780   4.690  -0.358   8.477 -1.2018 -1.1330 -0.0766
   75SLPC  C316 6781   4.871  -0.461   8.450 -0.3019 -0.7740 -1.1719
   75SLPC  H16X 6782   4.943  -0.388   8.407  1.0419 -0.1524  1.8841
   75SLPC  H16Y 6783   4.901  -0.560   8.410  0.5932 -1.0921  0.2360
   75SLPC  C317 6784   4.905  -0.443   8.602  0.1474  0.3772  0.5139
   75SLPC  H17X 6785   4.839  -0.509   8.662 -2.1467  1.0765 -1.1090
   75SLPC  H17Y 6786   4.887  -0.335   8.615  3.0192  1.1310 -0.9024
   75SLPC  C318 6787   5.056  -0.461   8.631  0.3648  1.0553 -0.6817
   75SLPC  H18X 6788   5.079  -0.434   8.737 -0.1808 -1.0701  0.0323
   75SLPC  H18Y 6789   5.112  -0.398   8.558 -0.4137 -1.0315 -3.2408
   75SLPC  H18Z 6790   5.086  -0.568   8.621 -1.8062  0.2602  0.7321
   76SLPC     N 6791   4.835   6.162   6.510 -0.1891  0.3440 -0.0415
   76SLPC   C13 6792   4.785   6.055   6.419 -0.2221 -0.2522  0.2977
   76SLPC  H13A 6793   4.714   5.990   6.468 -1.2508 -0.0749 -0.9020
   76SLPC  H13B 6794   4.737   6.086   6.327 -0.4941 -0.5975  0.3215
   76SLPC  H13C 6795   4.865   5.992   6.383  1.0428  0.9126  0.9888
   76SLPC   C14 6796   4.826   6.127   6.648  0.3775  0.3725  0.3975
   76SLPC  H14A 6797   4.721   6.109   6.669  0.0587 -2.6602 -2.8976
   76SLPC  H14B 6798   4.875   6.032   6.660  2.8331  1.1668 -2.2941
   76SLPC  H14C 6799   4.880   6.198   6.708  0.5722  1.3547 -0.8841
   76SLPC   C15 6800   4.748   6.286   6.484  0.0516 -0.9369  0.0591
   76SLPC  H15A 6801   4.778   6.355   6.561 -0.7371 -1.7685  1.1411
   76SLPC  H15B 6802   4.759   6.328   6.385 -4.6477  0.5166 -0.0767
   76SLPC  H15C 6803   4.646   6.260   6.508  0.0610 -1.7282 -0.6945
   76SLPC   C12 6804   4.979   6.188   6.476  0.1133 -0.3729 -0.0521
   76SLPC  H12A 6805   5.009   6.280   6.523 -0.6366 -1.0125  1.7729
   76SLPC  H12B 6806   4.993   6.206   6.370  1.4548  2.2692  0.4939
   76SLPC   C11 6807   5.079   6.082   6.514 -0.1724 -0.4470  0.0518
   76SLPC  H11A 6808   5.097   6.077   6.623  1.5011  2.3327 -0.0157
   76SLPC  H11B 6809   5.175   6.126   6.478 -0.3525 -1.1488 -1.3793
   76SLPC     P 6810   5.154   5.879   6.365 -0.0262  0.1061  0.0905
   76SLPC   O13 6811   5.119   5.738   6.364 -0.3591  0.3841  0.6033
   76SLPC   O14 6812   5.167   5.953   6.233  0.0470  0.0507  0.4396
   76SLPC   O12 6813   5.056   5.959   6.453  0.0363 -0.2194  0.1793
   76SLPC   O11 6814   5.294   5.896   6.439  0.1334 -0.3546  0.3495
   76SLPC    C1 6815   5.400   5.802   6.400  0.3136  0.5158 -0.0731
   76SLPC    HA 6816   5.365   5.716   6.338 -0.2888  0.5030  0.2819
   76SLPC    HB 6817   5.481   5.858   6.348  0.5622 -0.1181 -0.3723
   76SLPC    C2 6818   5.465   5.744   6.527  1.1307  0.4200  0.3394
   76SLPC    HS 6819   5.551   5.680   6.500  0.6240 -0.6678  1.2120
   76SLPC   O21 6820   5.358   5.684   6.601 -0.3522  0.2398 -0.4181
   76SLPC   C21 6821   5.350   5.561   6.573 -0.4204  0.1425  0.0711
   76SLPC   O22 6822   5.405   5.502   6.483 -0.0419  0.2742  0.0609
   76SLPC   C22 6823   5.247   5.495   6.662  0.4206 -0.0888  0.1518
   76SLPC   H2R 6824   5.154   5.554   6.661  1.6320  1.9458 -1.8497
   76SLPC   H2S 6825   5.224   5.399   6.611  0.5900 -0.6115  1.0264
   76SLPC    C3 6826   5.534   5.860   6.603  0.2059 -0.0146 -0.2157
   76SLPC    HX 6827   5.456   5.938   6.619 -0.6462 -0.8845 -0.0201
   76SLPC    HY 6828   5.611   5.907   6.538  0.5863  1.3055  1.1363
   76SLPC   O31 6829   5.582   5.818   6.731  0.1322 -0.1710 -0.0175
   76SLPC   C31 6830   5.628   5.919   6.795  0.0834  0.6879 -0.2392
   76SLPC   O32 6831   5.660   6.030   6.748  0.5135  0.1114 -0.1994
   76SLPC   C32 6832   5.660   5.870   6.941 -0.5112 -0.3909 -0.0431
   76SLPC   H2X 6833   5.727   5.782   6.933  0.8247  0.5674  0.3074
   76SLPC   H2Y 6834   5.563   5.829   6.978 -1.2751 -0.2867 -1.8589
   76SLPC   C23 6835   5.288   5.463   6.810  0.2931 -0.0843 -0.1499
   76SLPC   H3R 6836   5.367   5.386   6.797  1.4913  0.7582  1.7005
   76SLPC   H3S 6837   5.206   5.416   6.868 -0.8362 -1.4479 -2.7045
   76SLPC   C24 6838   5.362   5.559   6.893  0.6301 -0.2624 -0.2243
   76SLPC   H4R 6839   5.309   5.650   6.931  0.7433 -0.6573  0.9319
   76SLPC   H4S 6840   5.452   5.597   6.840  0.8106 -2.1353 -1.3184
   76SLPC   C25 6841   5.418   5.483   7.017 -0.1103  0.2997  0.2168
   76SLPC   H5R 6842   5.485   5.557   7.066 -2.9604  2.2681  1.3899
   76SLPC   H5S 6843   5.467   5.387   6.988 -0.1773  0.4254 -0.3153
   76SLPC   C26 6844   5.314   5.451   7.122  0.0065 -0.5642 -0.5384
   76SLPC   H6R 6845   5.232   5.385   7.087  0.9263 -0.4408 -3.1571
   76SLPC   H6S 6846   5.272   5.549   7.154 -1.8273 -1.1780 -0.9264
   76SLPC   C27 6847   5.381   5.393   7.250  0.7753  0.6134 -0.7136
   76SLPC   H7R 6848   5.458   5.467   7.280  0.6037 -0.1087  1.6864
   76SLPC   H7S 6849   5.422   5.293   7.224  1.5770  0.5998  0.5454
   76SLPC   C28 6850   5.281   5.383   7.361 -0.3175 -0.3707 -0.5409
   76SLPC   H8R 6851   5.245   5.479   7.404 -1.1191 -1.1660  0.6477
   76SLPC   H8S 6852   5.194   5.339   7.307  0.2047 -1.1211 -0.7796
   76SLPC   C29 6853   5.322   5.295   7.479 -0.8599  0.6574  0.5444
   76SLPC   H9R 6854   5.297   5.190   7.457 -0.5473  0.8455 -0.8108
   76SLPC  C210 6855   5.395   5.336   7.585  0.2698 -0.8924  0.1939
   76SLPC  H10R 6856   5.413   5.261   7.663  1.4623 -2.8488 -1.8708
   76SLPC  C211 6857   5.438   5.478   7.601 -0.4004 -0.0648 -0.1170
   76SLPC  H11R 6858   5.345   5.539   7.604 -2.1824 -2.5789 -0.9471
   76SLPC  H11S 6859   5.496   5.513   7.513 -1.0670  0.8020 -0.2214
   76SLPC  C212 6860   5.529   5.528   7.712 -0.9908 -0.0446 -0.8522
   76SLPC  H12R 6861   5.626   5.572   7.685  0.3741 -0.4583  2.8123
   76SLPC  C213 6862   5.489   5.544   7.840 -0.2799 -0.0525 -0.9060
   76SLPC  H13R 6863   5.561   5.578   7.915 -0.1898  3.2661 -2.3480
   76SLPC  C214 6864   5.349   5.510   7.897 -0.4667 -0.2060  0.9556
   76SLPC  H14R 6865   5.298   5.426   7.845 -2.9592  1.2477  0.9192
   76SLPC  H14S 6866   5.288   5.595   7.862  0.7553  0.5361  0.5720
   76SLPC  C215 6867   5.347   5.499   8.052 -0.0138 -0.9764  0.0434
   76SLPC  H15R 6868   5.389   5.590   8.101  3.3364 -2.6199  0.5362
   76SLPC  H15S 6869   5.403   5.406   8.074  0.3369 -0.3218  2.1274
   76SLPC  C216 6870   5.204   5.477   8.103 -0.4340 -0.8537  1.0866
   76SLPC  H16R 6871   5.171   5.382   8.056  2.5367 -1.6925  0.4559
   76SLPC  H16S 6872   5.146   5.565   8.067  2.5923  0.4737 -1.0642
   76SLPC  C217 6873   5.188   5.454   8.248  0.3638 -0.0499 -0.3173
   76SLPC  H17R 6874   5.218   5.543   8.308  0.9597 -2.4917  3.3668
   76SLPC  H17S 6875   5.252   5.368   8.279  0.6015  0.1007 -0.3876
   76SLPC  C218 6876   5.038   5.414   8.282 -0.0624  0.2939  0.4007
   76SLPC  H18R 6877   5.000   5.326   8.226  0.5281 -0.0033  0.4548
   76SLPC  H18S 6878   4.968   5.500   8.275 -0.1555  0.2294  0.5205
   76SLPC  H18T 6879   5.040   5.371   8.385  0.4565 -3.0479 -0.8764
   76SLPC   C33 6880   5.715   5.986   7.027  0.7018  0.3228 -1.0385
   76SLPC   H3X 6881   5.658   6.081   7.013  0.7643  0.7637  1.2338
   76SLPC   H3Y 6882   5.814   6.010   6.982  0.8262 -0.1198 -1.0057
   76SLPC   C34 6883   5.736   5.950   7.176 -0.8042 -0.5880  0.0082
   76SLPC   H4X 6884   5.787   6.035   7.227  0.9644 -0.3162 -2.0778
   76SLPC   H4Y 6885   5.794   5.857   7.192  1.5700  0.3721 -2.2993
   76SLPC   C35 6886   5.600   5.922   7.242  0.5136 -0.2097 -0.1302
   76SLPC   H5X 6887   5.555   5.830   7.198 -0.0035 -0.3415  0.6634
   76SLPC   H5Y 6888   5.523   5.998   7.218  0.1414 -1.4179 -3.1484
   76SLPC   C36 6889   5.616   5.910   7.393  0.4641 -0.1318 -0.2911
   76SLPC   H6X 6890   5.714   5.865   7.420  1.4006  1.8398 -0.2845
   76SLPC   H6Y 6891   5.540   5.841   7.437  0.4254  0.5709  0.7739
   76SLPC   C37 6892   5.598   6.037   7.476 -0.1301 -0.0290  0.6935
   76SLPC   H7X 6893   5.492   6.066   7.466  0.0260  0.8950  1.5710
   76SLPC   H7Y 6894   5.661   6.117   7.432 -3.7482  2.6734  0.0072
   76SLPC   C38 6895   5.625   6.023   7.623 -0.2788 -0.1435 -0.0823
   76SLPC   H8X 6896   5.730   5.996   7.644 -0.4269  0.1556  1.1003
   76SLPC   H8Y 6897   5.562   5.944   7.671  0.1990  0.3117  1.3463
   76SLPC   C39 6898   5.597   6.160   7.696  0.7624  0.4369  0.5676
   76SLPC   H9X 6899   5.486   6.171   7.698  0.8201  1.4349 -0.5524
   76SLPC   H9Y 6900   5.634   6.242   7.631  0.9843 -0.0495  0.0769
   76SLPC  C310 6901   5.655   6.175   7.837  0.5299  0.3564  0.2220
   76SLPC  H10X 6902   5.619   6.270   7.880 -1.0812  0.3841 -1.1234
   76SLPC  H10Y 6903   5.766   6.174   7.839  0.5364  0.2700 -0.1372
   76SLPC  C311 6904   5.614   6.055   7.929 -0.1244 -0.4962  0.5495
   76SLPC  H11X 6905   5.674   5.963   7.916  2.0197  0.9524 -0.4616
   76SLPC  H11Y 6906   5.511   6.033   7.893  0.3723 -3.1701  0.6318
   76SLPC  C312 6907   5.636   6.094   8.072  0.0617 -0.1957 -0.1960
   76SLPC  H12X 6908   5.587   6.010   8.127 -0.7470  0.5016  0.1897
   76SLPC  H12Y 6909   5.580   6.187   8.098 -3.3133 -1.8532 -0.8656
   76SLPC  C313 6910   5.782   6.099   8.121 -0.5751 -0.3362  0.4538
   76SLPC  H13X 6911   5.840   6.186   8.084 -1.0598  0.7864  2.2080
   76SLPC  H13Y 6912   5.833   6.011   8.075 -1.8033 -1.0058  0.3326
   76SLPC  C314 6913   5.794   6.097   8.274 -0.6172  0.6781  0.0331
   76SLPC  H14X 6914   5.898   6.076   8.306 -1.3652 -3.1678  0.4409
   76SLPC  H14Y 6915   5.744   6.002   8.302  0.2688  0.0880 -0.3545
   76SLPC  C315 6916   5.740   6.221   8.344 -0.1363  0.2627  0.0274
   76SLPC  H15X 6917   5.637   6.242   8.309 -0.0555  1.3322  0.3992
   76SLPC  H15Y 6918   5.800   6.306   8.305 -0.4709  0.5374  0.1018
   76SLPC  C316 6919   5.746   6.211   8.496 -0.5644 -0.1696  0.2011
   76SLPC  H16X 6920   5.844   6.176   8.534 -0.6298  1.3501  1.9369
   76SLPC  H16Y 6921   5.671   6.137   8.532 -0.8244 -0.3223 -0.6252
   76SLPC  C317 6922   5.706   6.353   8.549  0.5497 -0.3273  0.0439
   76SLPC  H17X 6923   5.786   6.423   8.518 -1.0051  1.9315  0.8775
   76SLPC  H17Y 6924   5.710   6.347   8.660 -0.6631 -0.1496  0.1080
   76SLPC  C318 6925   5.565   6.404   8.493 -0.0801 -0.0692  0.0014
   76SLPC  H18X 6926   5.553   6.507   8.533  1.2653  0.7031 -1.4612
   76SLPC  H18Y 6927   5.479   6.336   8.510 -0.6550  0.4846 -0.6311
   76SLPC  H18Z 6928   5.581   6.411   8.383  0.5272 -0.8061  0.0325
   77SLPC     N 6929   2.016   4.658   6.021  0.6066  0.5886  0.7375
   77SLPC   C13 6930   2.068   4.802   6.047  0.1492  0.4886  0.3013
   77SLPC  H13A 6931   2.051   4.834   6.149 -0.3449 -0.0796  0.4030
   77SLPC  H13B 6932   2.176   4.807   6.047  0.1981 -0.0079  1.9428
   77SLPC  H13C 6933   2.014   4.870   5.985 -1.7666 -0.7300  0.5500
   77SLPC   C14 6934   2.060   4.607   5.887 -0.0944 -0.3859 -0.6931
   77SLPC  H14A 6935   2.047   4.501   5.867  0.9676 -1.1077  2.0902
   77SLPC  H14B 6936   2.020   4.655   5.799 -1.2236 -2.0286 -1.1392
   77SLPC  H14C 6937   2.165   4.624   5.870  0.2964 -2.1798 -0.2867
   77SLPC   C15 6938   1.868   4.676   6.011  0.5096  0.7949 -0.6347
   77SLPC  H15A 6939   1.837   4.720   6.104 -1.2128  2.0420 -1.7383
   77SLPC  H15B 6940   1.842   4.752   5.939 -1.1272  2.1394  1.2696
   77SLPC  H15C 6941   1.819   4.580   5.997  2.5194 -0.2260 -1.0534
   77SLPC   C12 6942   2.054   4.559   6.130  0.3748 -0.7754 -0.0009
   77SLPC  H12A 6943   2.160   4.545   6.115  0.8008  3.1378 -1.9042
   77SLPC  H12B 6944   2.021   4.459   6.107  1.1294 -1.3350  1.2482
   77SLPC   C11 6945   2.018   4.594   6.278  0.0205  0.6767 -0.6727
   77SLPC  H11A 6946   2.046   4.507   6.341 -1.2324 -1.0374 -2.3725
   77SLPC  H11B 6947   1.907   4.591   6.276  0.0376  0.3793 -1.6807
   77SLPC     P 6948   2.223   4.714   6.385 -0.0601  0.1653 -0.0095
   77SLPC   O13 6949   2.309   4.637   6.297 -0.3382  0.0573 -0.0347
   77SLPC   O14 6950   2.270   4.851   6.407 -0.2782 -0.1247 -0.1923
   77SLPC   O12 6951   2.079   4.720   6.324 -0.0741 -0.0281  0.1733
   77SLPC   O11 6952   2.208   4.642   6.518  0.3840  0.2101  0.2066
   77SLPC    C1 6953   2.097   4.645   6.605  0.4332  0.3700 -0.1739
   77SLPC    HA 6954   2.009   4.649   6.537  0.4394 -1.2464 -0.3336
   77SLPC    HB 6955   2.096   4.545   6.653  0.6986 -0.5991 -2.0893
   77SLPC    C2 6956   2.100   4.758   6.717  0.0501 -0.3260  0.1983
   77SLPC    HS 6957   2.104   4.849   6.654  1.6285  0.3402  1.2223
   77SLPC   O21 6958   2.214   4.738   6.801 -0.2843  0.4283 -0.3621
   77SLPC   C21 6959   2.257   4.849   6.859 -0.3219 -0.1052 -0.1012
   77SLPC   O22 6960   2.210   4.959   6.849  0.2331  0.1446 -0.7750
   77SLPC   C22 6961   2.386   4.810   6.935  0.0110  0.0102  1.0203
   77SLPC   H2R 6962   2.373   4.711   6.984 -1.7411 -0.7129 -0.7545
   77SLPC   H2S 6963   2.463   4.809   6.855 -1.1446 -0.9810 -0.1201
   77SLPC    C3 6964   1.963   4.751   6.798  0.2747 -0.4087  0.0600
   77SLPC    HX 6965   1.903   4.731   6.707  0.1480  1.0348 -0.2052
   77SLPC    HY 6966   1.950   4.856   6.833  0.2840 -0.0632 -0.9510
   77SLPC   O31 6967   1.954   4.643   6.892 -0.2984 -0.4605  0.1143
   77SLPC   C31 6968   1.951   4.673   7.019  0.1626  0.5475 -0.1550
   77SLPC   O32 6969   1.978   4.779   7.075  0.3903  0.1307 -0.6178
   77SLPC   C32 6970   1.929   4.542   7.092  0.1221 -0.8556  0.4212
   77SLPC   H2X 6971   2.032   4.501   7.106  0.7387  0.0586 -1.2119
   77SLPC   H2Y 6972   1.878   4.462   7.035  1.0563 -1.0620 -0.1508
   77SLPC   C23 6973   2.426   4.924   7.036 -0.1594 -0.0171 -0.4941
   77SLPC   H3R 6974   2.450   5.023   6.993  1.6788  1.1267  2.7795
   77SLPC   H3S 6975   2.525   4.886   7.070  0.5082  1.7001 -0.4443
   77SLPC   C24 6976   2.336   4.935   7.165 -0.0501  0.7515 -0.3822
   77SLPC   H4R 6977   2.234   4.973   7.143 -0.5236 -1.5018 -2.5747
   77SLPC   H4S 6978   2.386   4.996   7.243 -2.2871  0.8820  1.0415
   77SLPC   C25 6979   2.296   4.800   7.229  0.3432 -0.8234 -0.2590
   77SLPC   H5R 6980   2.393   4.766   7.270  1.1489  2.4610  0.8555
   77SLPC   H5S 6981   2.266   4.721   7.156  1.9812 -1.2424 -0.5216
   77SLPC   C26 6982   2.189   4.810   7.345 -0.2151  0.1687  0.7891
   77SLPC   H6R 6983   2.093   4.844   7.302  0.4161  1.1020  0.0686
   77SLPC   H6S 6984   2.216   4.893   7.413 -0.1831 -0.4292  1.5196
   77SLPC   C27 6985   2.172   4.678   7.417  0.2495 -0.0967  0.1598
   77SLPC   H7R 6986   2.271   4.649   7.458  0.7932  0.9856 -0.3628
   77SLPC   H7S 6987   2.140   4.601   7.344 -2.5149  3.0798 -2.2580
   77SLPC   C28 6988   2.054   4.688   7.517  0.5051 -0.2624 -0.5702
   77SLPC   H8R 6989   2.032   4.586   7.556 -1.7127  0.6650  0.7823
   77SLPC   H8S 6990   1.969   4.730   7.460  0.2980 -1.2269 -0.9980
   77SLPC   C29 6991   2.085   4.779   7.630  0.3808 -0.0733 -0.0720
   77SLPC   H9R 6992   2.125   4.874   7.592  0.4886  0.1545  0.5829
   77SLPC  C210 6993   2.069   4.765   7.762  0.1836 -0.7821 -0.1789
   77SLPC  H10R 6994   2.099   4.856   7.815 -0.8662  0.9354 -2.4048
   77SLPC  C211 6995   2.003   4.649   7.836 -0.2335 -0.1176  0.2367
   77SLPC  H11R 6996   2.011   4.556   7.776 -0.1346 -1.4505  2.2003
   77SLPC  H11S 6997   1.892   4.652   7.846 -0.3501 -0.0523 -1.0275
   77SLPC  C212 6998   2.064   4.614   7.973  0.2228  0.4205  0.8128
   77SLPC  H12R 6999   2.161   4.562   7.967  0.2235  0.5011 -0.0766
   77SLPC  C213 7000   2.023   4.658   8.087  0.1587  0.5271  0.2231
   77SLPC  H13R 7001   2.078   4.627   8.177 -0.7206 -0.5032  0.4278
   77SLPC  C214 7002   1.908   4.748   8.119  0.4217  0.2132 -0.4258
   77SLPC  H14R 7003   1.825   4.694   8.168  1.0380 -2.3424 -2.0266
   77SLPC  H14S 7004   1.867   4.787   8.023 -0.4787 -1.2892 -0.6750
   77SLPC  C215 7005   1.937   4.872   8.198 -1.2482 -0.0876 -0.8319
   77SLPC  H15R 7006   1.861   4.950   8.179 -1.0120  0.9592  2.0096
   77SLPC  H15S 7007   2.028   4.925   8.162 -1.9831 -0.7668 -3.9626
   77SLPC  C216 7008   1.973   4.846   8.344  0.2184  0.1090 -0.1928
   77SLPC  H16R 7009   2.076   4.807   8.358  0.4665  0.6598 -0.4470
   77SLPC  H16S 7010   1.904   4.772   8.390  0.8861 -1.6245 -1.8890
   77SLPC  C217 7011   1.997   4.980   8.420  0.5443 -0.3934  0.5569
   77SLPC  H17R 7012   1.898   5.030   8.425  0.9047  0.5907 -1.3083
   77SLPC  H17S 7013   2.058   5.048   8.357  0.7326 -1.2903 -0.2566
   77SLPC  C218 7014   2.055   4.965   8.562 -0.4586 -0.5060 -0.2298
   77SLPC  H18R 7015   1.986   4.903   8.623 -0.3587 -1.4041 -1.0110
   77SLPC  H18S 7016   2.076   5.064   8.607  0.5139 -0.5721 -0.5272
   77SLPC  H18T 7017   2.151   4.911   8.554 -0.4893 -0.4526 -1.0307
   77SLPC   C33 7018   1.861   4.566   7.230 -0.2966  0.6097  0.2867
   77SLPC   H3X 7019   1.904   4.659   7.276 -1.7717  0.8121  1.3263
   77SLPC   H3Y 7020   1.876   4.476   7.294  1.0058  2.1924  2.3699
   77SLPC   C34 7021   1.713   4.578   7.225  0.6339 -0.2370 -0.5659
   77SLPC   H4X 7022   1.667   4.492   7.172 -0.9633 -0.3578  0.9305
   77SLPC   H4Y 7023   1.686   4.674   7.176 -2.1269  0.5497  2.1829
   77SLPC   C35 7024   1.644   4.595   7.354 -0.1129  0.4174  1.2116
   77SLPC   H5X 7025   1.538   4.624   7.338 -0.1585 -0.4078 -0.1413
   77SLPC   H5Y 7026   1.683   4.687   7.402  1.9611  0.6192 -0.7021
   77SLPC   C36 7027   1.657   4.472   7.451 -0.4176  0.5497 -0.4377
   77SLPC   H6X 7028   1.757   4.479   7.499 -1.4612  1.4636  1.7325
   77SLPC   H6Y 7029   1.639   4.376   7.398 -3.2114 -0.0178  1.3654
   77SLPC   C37 7030   1.561   4.482   7.566 -0.2122 -0.1719 -0.3241
   77SLPC   H7X 7031   1.547   4.387   7.622  2.6918 -1.2316 -1.1878
   77SLPC   H7Y 7032   1.458   4.506   7.533 -1.3842 -3.2916  0.7131
   77SLPC   C38 7033   1.605   4.600   7.663 -0.2857  0.1689  0.9395
   77SLPC   H8X 7034   1.611   4.700   7.616  1.3310  0.8420  2.4724
   77SLPC   H8Y 7035   1.712   4.576   7.681  0.1263 -0.4102 -1.8273
   77SLPC   C39 7036   1.523   4.611   7.795  0.1029 -0.1469  0.0229
   77SLPC   H9X 7037   1.516   4.506   7.832  0.5024 -0.0087  0.5005
   77SLPC   H9Y 7038   1.423   4.647   7.766 -0.5161 -2.1613 -0.5172
   77SLPC  C310 7039   1.592   4.704   7.895 -0.4298  0.5547 -0.4929
   77SLPC  H10X 7040   1.574   4.807   7.855 -0.4767  0.6913 -0.1178
   77SLPC  H10Y 7041   1.697   4.688   7.865 -0.3319  0.4565 -0.0900
   77SLPC  C311 7042   1.543   4.687   8.038 -0.1912 -0.0709  0.6767
   77SLPC  H11X 7043   1.605   4.750   8.106  1.6458  0.0163 -0.9678
   77SLPC  H11Y 7044   1.568   4.587   8.079  3.1398  0.2502 -0.2101
   77SLPC  C312 7045   1.379   4.699   8.061 -0.1485  0.6325  0.0258
   77SLPC  H12X 7046   1.353   4.664   8.163 -1.9085  1.7440 -0.0116
   77SLPC  H12Y 7047   1.322   4.641   7.986  1.1106 -0.5523 -0.0573
   77SLPC  C313 7048   1.328   4.843   8.062  0.0078 -0.3000  0.4520
   77SLPC  H13X 7049   1.311   4.895   7.965 -0.6493 -0.6464  0.3782
   77SLPC  H13Y 7050   1.411   4.903   8.105 -0.6771  2.2441 -1.5145
   77SLPC  C314 7051   1.201   4.855   8.131  0.3554 -0.5612  0.3114
   77SLPC  H14X 7052   1.197   4.807   8.231 -0.9791 -2.2264 -0.4815
   77SLPC  H14Y 7053   1.120   4.807   8.071  1.0566 -0.2662 -0.9114
   77SLPC  C315 7054   1.166   5.008   8.147 -0.4277 -0.5269 -0.0175
   77SLPC  H15X 7055   1.160   5.061   8.050 -0.5878 -0.9283 -0.2309
   77SLPC  H15Y 7056   1.241   5.066   8.204  0.9808 -0.9212 -1.3985
   77SLPC  C316 7057   1.032   5.024   8.220 -0.4861  0.0579  0.2694
   77SLPC  H16X 7058   1.029   4.986   8.325  2.8921 -1.6220 -0.0994
   77SLPC  H16Y 7059   0.956   4.958   8.173 -2.3184 -1.3603  4.6718
   77SLPC  C317 7060   0.981   5.167   8.212  0.0895 -0.7188  0.7715
   77SLPC  H17X 7061   0.965   5.187   8.104 -1.0486 -1.6853  0.7361
   77SLPC  H17Y 7062   1.053   5.242   8.250  0.3144  0.4261 -1.7552
   77SLPC  C318 7063   0.849   5.197   8.285 -0.1133 -0.1013  0.0571
   77SLPC  H18X 7064   0.873   5.215   8.392  3.8707  0.4285 -0.7673
   77SLPC  H18Y 7065   0.771   5.117   8.285 -0.9932  0.6897  2.0724
   77SLPC  H18Z 7066   0.804   5.292   8.251 -3.1986 -1.1233  0.9760
   78SLPC     N 7067   3.709   5.399   6.104 -0.0243  0.3729  0.4975
   78SLPC   C13 7068   3.832   5.477   6.115  0.9511 -0.0969  0.2692
   78SLPC  H13A 7069   3.824   5.544   6.200  0.3064 -0.1400  0.2485
   78SLPC  H13B 7070   3.906   5.405   6.145 -0.7777 -0.4228  4.5815
   78SLPC  H13C 7071   3.866   5.530   6.028  1.2588  1.7359  1.4390
   78SLPC   C14 7072   3.732   5.283   6.006  0.7465  0.1541 -0.0056
   78SLPC  H14A 7073   3.812   5.228   6.054 -0.0948 -2.0675 -0.9950
   78SLPC  H14B 7074   3.644   5.220   6.006  1.3814 -0.7996 -1.6269
   78SLPC  H14C 7075   3.759   5.300   5.903  1.3423 -0.0348  0.1159
   78SLPC   C15 7076   3.599   5.483   6.040 -0.5598  0.2916  0.1572
   78SLPC  H15A 7077   3.595   5.582   6.082  2.1704 -0.0561  1.4753
   78SLPC  H15B 7078   3.616   5.485   5.933  2.0063 -1.4184  0.4235
   78SLPC  H15C 7079   3.498   5.447   6.053 -0.5117 -0.6643 -1.6869
   78SLPC   C12 7080   3.659   5.333   6.237  0.0425 -0.1680  0.4888
   78SLPC  H12A 7081   3.574   5.268   6.220  1.0713 -1.3181 -0.5005
   78SLPC  H12B 7082   3.641   5.407   6.313 -1.0631 -0.2485  0.3195
   78SLPC   C11 7083   3.758   5.241   6.312  0.8501  0.1002  0.4950
   78SLPC  H11A 7084   3.705   5.194   6.397  0.4897 -2.8861 -1.2547
   78SLPC  H11B 7085   3.837   5.312   6.346 -0.2132  2.0660 -0.8893
   78SLPC     P 7086   3.960   5.110   6.213 -0.2147  0.1475 -0.1887
   78SLPC   O13 7087   3.970   4.967   6.195 -0.0513 -0.0081 -0.3733
   78SLPC   O14 7088   4.022   5.204   6.114  0.0231  0.3188  0.5240
   78SLPC   O12 7089   3.807   5.131   6.235 -0.5059  0.1283  0.4639
   78SLPC   O11 7090   4.034   5.151   6.349 -0.4094  0.1314 -0.4813
   78SLPC    C1 7091   4.010   5.084   6.475 -0.3957 -0.1337  0.3871
   78SLPC    HA 7092   3.926   5.012   6.468 -0.3702 -0.0453 -1.4241
   78SLPC    HB 7093   4.105   5.032   6.501  0.7726  1.5435 -0.3873
   78SLPC    C2 7094   3.981   5.186   6.590 -0.7076  0.0887  0.2152
   78SLPC    HS 7095   3.911   5.261   6.546  2.8569  2.9588 -1.0482
   78SLPC   O21 7096   4.113   5.237   6.631  0.3864  0.1167 -0.1755
   78SLPC   C21 7097   4.119   5.372   6.645  0.1918  0.3048  0.1098
   78SLPC   O22 7098   4.026   5.446   6.631  0.0702  0.4763  0.1582
   78SLPC   C22 7099   4.265   5.422   6.662  0.3235 -0.1153 -0.1442
   78SLPC   H2R 7100   4.317   5.375   6.576 -0.6707  2.5598 -2.3395
   78SLPC   H2S 7101   4.274   5.531   6.646 -1.8489 -0.0152 -1.0075
   78SLPC    C3 7102   3.914   5.106   6.704 -0.3551 -0.3510 -0.1265
   78SLPC    HX 7103   3.990   5.032   6.737 -0.3343 -0.1700  0.2333
   78SLPC    HY 7104   3.822   5.056   6.667 -2.8360  3.1583  0.8247
   78SLPC   O31 7105   3.876   5.193   6.816  0.2724 -0.4571 -0.5063
   78SLPC   C31 7106   3.768   5.272   6.806  0.2450 -0.8165  0.6414
   78SLPC   O32 7107   3.681   5.262   6.717  0.2174 -0.0461 -0.0237
   78SLPC   C32 7108   3.780   5.382   6.915 -0.2662 -0.2429  0.1361
   78SLPC   H2X 7109   3.716   5.462   6.872  1.4299  1.1212  0.0284
   78SLPC   H2Y 7110   3.884   5.421   6.915 -0.9167  1.6585 -1.3318
   78SLPC   C23 7111   4.313   5.357   6.788  0.5817  0.2969 -0.0472
   78SLPC   H3R 7112   4.416   5.390   6.814 -0.2913  1.5750  2.0673
   78SLPC   H3S 7113   4.317   5.247   6.775  0.2448 -0.1162  2.7600
   78SLPC   C24 7114   4.225   5.367   6.913  0.0503 -0.0286  0.0122
   78SLPC   H4R 7115   4.145   5.291   6.918 -0.9687  1.0279  0.3094
   78SLPC   H4S 7116   4.170   5.463   6.900 -2.9699 -1.8208 -1.4840
   78SLPC   C25 7117   4.309   5.326   7.039  0.1961  0.4147 -0.3867
   78SLPC   H5R 7118   4.415   5.357   7.024  0.6964 -0.0358  1.9444
   78SLPC   H5S 7119   4.307   5.216   7.052  0.7291  0.2923 -1.1928
   78SLPC   C26 7120   4.254   5.406   7.157  0.2933  0.6672 -0.6592
   78SLPC   H6R 7121   4.159   5.364   7.198  0.0930  0.6835 -1.1003
   78SLPC   H6S 7122   4.219   5.502   7.115  0.5995 -0.0779 -2.7120
   78SLPC   C27 7123   4.359   5.439   7.264 -0.2908 -0.0634 -0.7944
   78SLPC   H7R 7124   4.433   5.504   7.211  2.1017 -1.2141  0.9454
   78SLPC   H7S 7125   4.415   5.353   7.307  0.0258 -0.0216 -1.1164
   78SLPC   C28 7126   4.304   5.509   7.385  0.9746 -0.1958 -0.4260
   78SLPC   H8R 7127   4.253   5.602   7.352  2.2041  0.6972  0.1622
   78SLPC   H8S 7128   4.389   5.537   7.450 -0.0158 -1.0261  1.2966
   78SLPC   C29 7129   4.211   5.426   7.480  0.4620 -0.3382  0.2384
   78SLPC   H9R 7130   4.146   5.365   7.415  1.4189  2.0547 -3.2073
   78SLPC  C210 7131   4.201   5.411   7.615  0.2761 -0.5912  0.1719
   78SLPC  H10R 7132   4.123   5.354   7.667 -1.6841  1.2091 -0.6595
   78SLPC  C211 7133   4.293   5.479   7.716 -0.8786 -0.0702  0.4681
   78SLPC  H11R 7134   4.399   5.466   7.685 -0.0117  0.9940  2.7376
   78SLPC  H11S 7135   4.302   5.415   7.806  1.8640 -1.1472 -0.4685
   78SLPC  C212 7136   4.266   5.624   7.735  0.6472  0.3087  0.0101
   78SLPC  H12R 7137   4.290   5.693   7.652  2.3191 -0.4670 -0.1929
   78SLPC  C213 7138   4.226   5.675   7.850  0.0732 -0.1894  0.4049
   78SLPC  H13R 7139   4.215   5.784   7.854  0.1906 -0.2152  2.5569
   78SLPC  C214 7140   4.201   5.597   7.975  0.6936 -0.2213 -0.0859
   78SLPC  H14R 7141   4.249   5.496   7.979  0.1449 -0.5077 -0.6224
   78SLPC  H14S 7142   4.092   5.580   7.986 -0.1965  3.4550 -1.7943
   78SLPC  C215 7143   4.248   5.667   8.101  0.1307 -0.3319 -0.0335
   78SLPC  H15R 7144   4.211   5.772   8.109 -0.2178 -0.5765  2.4955
   78SLPC  H15S 7145   4.359   5.666   8.098  0.3028  3.8536 -2.3970
   78SLPC  C216 7146   4.206   5.595   8.228 -0.1515  0.2791  0.1311
   78SLPC  H16R 7147   4.285   5.621   8.302  0.6749  1.3216 -1.0776
   78SLPC  H16S 7148   4.222   5.490   8.196 -0.3337  0.4171 -0.4245
   78SLPC  C217 7149   4.072   5.636   8.289 -0.9847  0.0483  0.2937
   78SLPC  H17R 7150   3.991   5.619   8.215 -1.2073  0.0331  0.5392
   78SLPC  H17S 7151   4.091   5.743   8.310  3.6111 -0.0329 -2.0851
   78SLPC  C218 7152   4.022   5.558   8.408  0.3198  0.4397  0.6948
   78SLPC  H18R 7153   3.989   5.456   8.378  1.9547  0.2580 -0.6544
   78SLPC  H18S 7154   3.936   5.618   8.444 -0.4959 -0.1932 -0.1526
   78SLPC  H18T 7155   4.107   5.551   8.479  0.6420 -0.6987  0.2206
   78SLPC   C33 7156   3.733   5.334   7.059  0.2679  0.2878  0.4171
   78SLPC   H3X 7157   3.650   5.262   7.041 -1.3435  2.1605  0.1092
   78SLPC   H3Y 7158   3.695   5.420   7.117 -0.9596  0.4109 -0.5158
   78SLPC   C34 7159   3.845   5.258   7.136 -0.1795  0.3285 -0.1791
   78SLPC   H4X 7160   3.905   5.349   7.161 -0.9722  0.9249 -0.4165
   78SLPC   H4Y 7161   3.909   5.192   7.074  1.9892  0.6639  1.5507
   78SLPC   C35 7162   3.798   5.192   7.269 -0.5263 -0.0330  1.2195
   78SLPC   H5X 7163   3.713   5.124   7.251 -1.0070  0.7269  0.5843
   78SLPC   H5Y 7164   3.771   5.276   7.337 -1.0571 -0.4845  1.5743
   78SLPC   C36 7165   3.906   5.101   7.330 -0.5386  0.4873  0.6988
   78SLPC   H6X 7166   3.990   5.163   7.368  1.0905 -0.5110 -1.1306
   78SLPC   H6Y 7167   3.942   5.036   7.248 -0.6927  1.9568 -0.5936
   78SLPC   C37 7168   3.848   5.018   7.434  0.1049 -0.8671  0.4308
   78SLPC   H7X 7169   3.912   4.931   7.461 -2.2424 -3.1172 -0.8614
   78SLPC   H7Y 7170   3.751   4.972   7.408 -1.4580  2.0420  0.7982
   78SLPC   C38 7171   3.837   5.101   7.567 -0.0569  0.2321 -0.6272
   78SLPC   H8X 7172   3.753   5.171   7.544  1.1465  2.3154  0.9163
   78SLPC   H8Y 7173   3.927   5.162   7.591 -1.0497  0.7375  2.2762
   78SLPC   C39 7174   3.804   5.012   7.688  0.0993  0.3160  0.5902
   78SLPC   H9X 7175   3.762   5.075   7.769 -2.5412 -0.8541  0.2231
   78SLPC   H9Y 7176   3.892   4.956   7.727  0.5734  1.7551  1.6637
   78SLPC  C310 7177   3.693   4.907   7.657 -0.0204  0.3456 -0.4040
   78SLPC  H10X 7178   3.742   4.832   7.591 -0.1702  1.3914 -1.7701
   78SLPC  H10Y 7179   3.605   4.953   7.607 -0.9504 -1.7223 -0.7744
   78SLPC  C311 7180   3.643   4.836   7.779  0.2407 -0.0793 -0.2539
   78SLPC  H11X 7181   3.722   4.771   7.823 -0.6241  1.1198  3.3874
   78SLPC  H11Y 7182   3.561   4.764   7.755 -0.9664  0.8118  1.0315
   78SLPC  C312 7183   3.581   4.926   7.889 -0.8700  0.4374  0.6110
   78SLPC  H12X 7184   3.515   5.000   7.840 -2.7556 -1.3589  0.3213
   78SLPC  H12Y 7185   3.662   4.983   7.941  1.2451  0.0734 -2.0618
   78SLPC  C313 7186   3.485   4.850   7.985  0.4093  0.4919  0.2400
   78SLPC  H13X 7187   3.541   4.769   8.036 -2.0147 -0.8156  0.9843
   78SLPC  H13Y 7188   3.407   4.793   7.931  0.8427 -0.3946  0.5403
   78SLPC  C314 7189   3.435   4.928   8.110  0.3390 -0.0974  0.1799
   78SLPC  H14X 7190   3.370   5.014   8.080 -1.1475 -1.3948 -0.5053
   78SLPC  H14Y 7191   3.523   4.984   8.147 -0.7027  1.7011  0.0504
   78SLPC  C315 7192   3.357   4.848   8.215 -0.2025  0.5845 -0.5541
   78SLPC  H15X 7193   3.410   4.762   8.260 -1.2465  0.0336 -0.3575
   78SLPC  H15Y 7194   3.270   4.804   8.162  0.7942 -1.9085 -0.2622
   78SLPC  C316 7195   3.319   4.937   8.332  0.3482  0.1216  0.4742
   78SLPC  H16X 7196   3.253   4.884   8.404 -0.0184  2.1557  1.6927
   78SLPC  H16Y 7197   3.255   5.023   8.303 -0.0177 -0.7664 -1.5659
   78SLPC  C317 7198   3.438   4.968   8.421  0.2513 -0.6083 -0.7567
   78SLPC  H17X 7199   3.511   5.039   8.377  2.8390 -2.7780 -0.2499
   78SLPC  H17Y 7200   3.497   4.874   8.431  2.3027  0.7888  0.9134
   78SLPC  C318 7201   3.388   5.026   8.557 -0.1345 -0.2865  0.3252
   78SLPC  H18X 7202   3.473   5.042   8.626 -0.5560 -1.4221  1.1511
   78SLPC  H18Y 7203   3.311   4.960   8.603 -1.8093  1.3945  0.0687
   78SLPC  H18Z 7204   3.345   5.128   8.549  2.6755  1.3002  3.0359
   79SLPC     N 7205   0.873   1.231   6.165  0.0615 -0.0165  0.0873
   79SLPC   C13 7206   0.904   1.358   6.095 -0.3096  0.3552  0.3797
   79SLPC  H13A 7207   0.857   1.445   6.137 -0.0054  0.7071  0.0045
   79SLPC  H13B 7208   1.010   1.371   6.078 -0.2259  0.2000  0.7847
   79SLPC  H13C 7209   0.861   1.349   5.996  1.3841  0.9450 -0.4623
   79SLPC   C14 7210   0.969   1.123   6.116 -0.4717  0.0477  0.0188
   79SLPC  H14A 7211   0.953   1.093   6.013 -3.1768  0.1066  0.3617
   79SLPC  H14B 7212   1.070   1.160   6.110 -0.8250  0.9906 -0.3476
   79SLPC  H14C 7213   0.953   1.041   6.185 -1.0286  1.2377  1.3397
   79SLPC   C15 7214   0.730   1.191   6.145  0.2474 -0.3388  0.8154
   79SLPC  H15A 7215   0.705   1.184   6.040 -0.9306 -0.4513  1.0826
   79SLPC  H15B 7216   0.718   1.100   6.202  2.3980 -1.6560 -0.6829
   79SLPC  H15C 7217   0.660   1.258   6.193  1.0619  2.2183 -1.3436
   79SLPC   C12 7218   0.900   1.261   6.317 -0.2319 -0.0080 -0.3480
   79SLPC  H12A 7219   0.838   1.346   6.341  2.0268  1.8651 -0.6552
   79SLPC  H12B 7220   0.999   1.301   6.333 -0.0273  0.5420 -2.6053
   79SLPC   C11 7221   0.897   1.152   6.417 -0.0354  0.1175 -0.9403
   79SLPC  H11A 7222   0.941   1.185   6.513 -0.2737  0.6486 -1.0107
   79SLPC  H11B 7223   0.966   1.069   6.391  1.1013  0.7495  0.0001
   79SLPC     P 7224   0.725   0.965   6.490  0.0304 -0.3934 -0.1108
   79SLPC   O13 7225   0.582   0.954   6.491  0.4001 -0.4352 -0.0739
   79SLPC   O14 7226   0.814   0.875   6.418 -0.0186  0.5220 -0.1091
   79SLPC   O12 7227   0.768   1.102   6.443 -0.1594  0.2661 -0.2624
   79SLPC   O11 7228   0.764   0.970   6.642  0.1618 -0.3485  0.0052
   79SLPC    C1 7229   0.895   0.931   6.681 -0.3236  0.5672 -0.3795
   79SLPC    HA 7230   0.891   0.833   6.733  0.6079  1.0107  0.5575
   79SLPC    HB 7231   0.969   0.910   6.601 -0.4285  0.1240 -0.3625
   79SLPC    C2 7232   0.954   1.036   6.781 -0.1998 -0.2934  0.0755
   79SLPC    HS 7233   0.926   1.139   6.750  1.9142  0.1957 -0.3498
   79SLPC   O21 7234   1.099   1.024   6.794 -0.0151 -0.0438 -0.8161
   79SLPC   C21 7235   1.165   1.125   6.853 -0.1953  0.3020  0.4733
   79SLPC   O22 7236   1.117   1.233   6.878 -0.4171 -0.0425  0.2881
   79SLPC   C22 7237   1.307   1.084   6.878 -0.5943  0.2512  0.1661
   79SLPC   H2R 7238   1.344   1.009   6.805  3.3558  2.1355 -0.0582
   79SLPC   H2S 7239   1.384   1.162   6.861  2.1272 -2.0748  0.9933
   79SLPC    C3 7240   0.882   1.030   6.915 -0.2525  0.4131 -0.0343
   79SLPC    HX 7241   0.774   1.052   6.901 -0.7444 -1.4776  0.4883
   79SLPC    HY 7242   0.932   1.102   6.983  0.3915 -0.3756  0.3419
   79SLPC   O31 7243   0.900   0.900   6.969  0.0129  0.7363  0.8636
   79SLPC   C31 7244   0.827   0.883   7.074  0.4768 -0.0171  0.6489
   79SLPC   O32 7245   0.760   0.972   7.124  0.7666  0.1628 -0.0435
   79SLPC   C32 7246   0.815   0.731   7.108  0.1437 -0.3755 -0.1368
   79SLPC   H2X 7247   0.829   0.684   7.009  1.3435  1.1332 -0.7373
   79SLPC   H2Y 7248   0.721   0.698   7.157  0.3963 -0.0464  0.5892
   79SLPC   C23 7249   1.324   1.031   7.031  0.3411 -0.1854  0.1325
   79SLPC   H3R 7250   1.424   0.991   7.058 -0.0714 -1.0692  0.4027
   79SLPC   H3S 7251   1.254   0.946   7.044 -0.5598  0.6592  1.0120
   79SLPC   C24 7252   1.294   1.147   7.133  0.1553 -0.2413 -0.1966
   79SLPC   H4R 7253   1.203   1.206   7.108  1.8865  1.7826 -2.2006
   79SLPC   H4S 7254   1.381   1.215   7.121 -0.0120 -0.2555 -1.8116
   79SLPC   C25 7255   1.271   1.102   7.274  1.0061 -0.2343  0.1243
   79SLPC   H5R 7256   1.354   1.047   7.324 -1.1350 -0.8602  3.2640
   79SLPC   H5S 7257   1.180   1.039   7.283 -0.0991  1.2491 -0.3276
   79SLPC   C26 7258   1.264   1.224   7.367  0.6761  0.4295  0.6860
   79SLPC   H6R 7259   1.221   1.303   7.303  1.6643  0.0535 -0.4737
   79SLPC   H6S 7260   1.360   1.257   7.410  1.6519 -1.7033  0.2845
   79SLPC   C27 7261   1.163   1.204   7.484 -0.5840  0.0726 -0.3678
   79SLPC   H7R 7262   1.071   1.156   7.442 -0.6304 -0.0578 -0.1166
   79SLPC   H7S 7263   1.140   1.308   7.515 -0.5421  0.1538 -0.6042
   79SLPC   C28 7264   1.217   1.127   7.611  0.1068 -0.1240  0.1176
   79SLPC   H8R 7265   1.250   1.025   7.582 -1.1032 -0.5139  0.0375
   79SLPC   H8S 7266   1.127   1.107   7.674  0.0226 -2.9700 -0.7631
   79SLPC   C29 7267   1.336   1.190   7.678 -0.4395  0.6462 -0.7838
   79SLPC   H9R 7268   1.426   1.165   7.620 -0.2437 -0.6464  0.0550
   79SLPC  C210 7269   1.348   1.251   7.796  0.5073  0.7480  0.0199
   79SLPC  H10R 7270   1.448   1.287   7.826  0.4571  0.2614  0.8232
   79SLPC  C211 7271   1.251   1.280   7.908 -0.6457 -0.4146  0.7999
   79SLPC  H11R 7272   1.160   1.238   7.860  0.9556 -1.5511 -1.4969
   79SLPC  H11S 7273   1.239   1.390   7.906  0.7159 -0.2540 -0.5276
   79SLPC  C212 7274   1.276   1.201   8.028 -0.2122 -0.5066  0.2028
   79SLPC  H12R 7275   1.291   1.093   8.009 -0.5460 -0.3614 -1.0073
   79SLPC  C213 7276   1.266   1.252   8.151 -0.3958  0.1150  1.0372
   79SLPC  H13R 7277   1.297   1.189   8.236 -0.6690 -0.6661  0.5654
   79SLPC  C214 7278   1.214   1.388   8.193  0.1263  0.1742  0.9357
   79SLPC  H14R 7279   1.221   1.460   8.108 -0.1474 -0.2446  0.5518
   79SLPC  H14S 7280   1.283   1.428   8.270  1.8893 -2.4098  0.8435
   79SLPC  C215 7281   1.063   1.394   8.241 -0.6352  0.3052  1.0710
   79SLPC  H15R 7282   1.007   1.335   8.165  0.4780  0.0297  0.4512
   79SLPC  H15S 7283   1.041   1.502   8.230 -1.6445  0.1089  1.0535
   79SLPC  C216 7284   1.039   1.348   8.389  0.0297  0.2517  0.0244
   79SLPC  H16R 7285   1.095   1.414   8.458 -2.3863  0.3378  2.0193
   79SLPC  H16S 7286   1.060   1.240   8.401 -1.5423  0.2274  3.4578
   79SLPC  C217 7287   0.892   1.391   8.419  0.4727  0.1187 -0.1155
   79SLPC  H17R 7288   0.822   1.350   8.343  2.5549  1.2205 -2.7905
   79SLPC  H17S 7289   0.880   1.501   8.408  1.0516  0.4640  2.1399
   79SLPC  C218 7290   0.854   1.352   8.565 -0.5629 -0.1475  1.0217
   79SLPC  H18R 7291   0.754   1.388   8.599 -1.8711 -2.3355 -0.2693
   79SLPC  H18S 7292   0.928   1.392   8.637 -1.3038 -2.0195  2.9184
   79SLPC  H18T 7293   0.864   1.242   8.567  0.0174 -0.1614 -0.9120
   79SLPC   C33 7294   0.934   0.695   7.192  0.0069  0.3705  0.1801
   79SLPC   H3X 7295   1.027   0.722   7.137 -0.0323  0.5833  0.2144
   79SLPC   H3Y 7296   0.933   0.585   7.203  1.4329  0.3432  0.2758
   79SLPC   C34 7297   0.945   0.760   7.333  0.5070 -0.1909 -0.1625
   79SLPC   H4X 7298   0.992   0.860   7.320  0.6091 -0.1723  0.3252
   79SLPC   H4Y 7299   1.018   0.698   7.389 -0.4542 -1.5032 -0.3055
   79SLPC   C35 7300   0.822   0.778   7.423  0.3921 -0.1006 -1.0744
   79SLPC   H5X 7301   0.774   0.678   7.432  0.7012 -0.2217 -0.7771
   79SLPC   H5Y 7302   0.745   0.848   7.383 -0.3085  0.5854  1.3220
   79SLPC   C36 7303   0.872   0.830   7.560  0.2289 -0.0434 -0.3195
   79SLPC   H6X 7304   0.793   0.890   7.609 -0.4312 -0.8709 -0.3344
   79SLPC   H6Y 7305   0.947   0.909   7.544 -1.2322  1.3522 -0.5181
   79SLPC   C37 7306   0.930   0.717   7.650 -0.3439  0.1415  0.5327
   79SLPC   H7X 7307   1.019   0.677   7.597 -0.6134  0.4513 -0.1720
   79SLPC   H7Y 7308   0.852   0.640   7.668 -0.8616  0.6556  0.5310
   79SLPC   C38 7309   0.981   0.766   7.785 -0.5879  0.8133  0.5269
   79SLPC   H8X 7310   0.909   0.831   7.839 -1.6096 -1.2920  1.8172
   79SLPC   H8Y 7311   1.078   0.819   7.771 -0.4778  0.3338 -0.6454
   79SLPC   C39 7312   1.007   0.649   7.890 -0.8786  0.1786 -0.2183
   79SLPC   H9X 7313   1.070   0.572   7.841  1.6759  1.7096  0.4348
   79SLPC   H9Y 7314   0.916   0.590   7.912 -1.0026  0.4368 -0.0327
   79SLPC  C310 7315   1.058   0.717   8.020  0.1667 -0.0199  0.3542
   79SLPC  H10X 7316   1.094   0.821   8.005  0.4499 -0.2671 -0.7574
   79SLPC  H10Y 7317   1.125   0.644   8.070  0.5981 -1.1667 -1.7821
   79SLPC  C311 7318   0.947   0.749   8.127 -0.6277 -0.8152 -0.4468
   79SLPC  H11X 7319   0.912   0.647   8.154  2.0334 -1.3075  1.5842
   79SLPC  H11Y 7320   0.870   0.807   8.071  0.9256  0.9465 -0.8681
   79SLPC  C312 7321   0.999   0.830   8.244  0.0123 -0.3782 -0.6108
   79SLPC  H12X 7322   1.023   0.929   8.200 -0.7482 -0.0075 -0.2036
   79SLPC  H12Y 7323   1.093   0.778   8.273 -0.4884 -0.7407  0.4005
   79SLPC  C313 7324   0.894   0.843   8.356  0.5505  0.5144  0.0451
   79SLPC  H13X 7325   0.873   0.739   8.386 -0.6498  0.8444  0.4177
   79SLPC  H13Y 7326   0.800   0.879   8.308 -1.3655 -1.6243  1.9808
   79SLPC  C314 7327   0.934   0.929   8.476 -0.2399 -0.4656  0.2526
   79SLPC  H14X 7328   0.862   0.904   8.557 -0.6107 -1.6205 -0.4079
   79SLPC  H14Y 7329   0.925   1.037   8.450 -0.2812 -0.2668  1.0668
   79SLPC  C315 7330   1.081   0.920   8.525  0.3312 -0.0941 -0.2276
   79SLPC  H15X 7331   1.148   0.934   8.437 -0.8353  2.5222 -0.8106
   79SLPC  H15Y 7332   1.101   0.823   8.575 -0.4454  0.9091  2.1396
   79SLPC  C316 7333   1.115   1.019   8.645 -0.0644  0.4029 -0.1483
   79SLPC  H16X 7334   1.081   0.960   8.733  1.3533  1.8272  1.4401
   79SLPC  H16Y 7335   1.064   1.118   8.645  0.7047  0.8113  0.1977
   79SLPC  C317 7336   1.271   1.047   8.661 -0.4957  0.2169  0.1691
   79SLPC  H17X 7337   1.283   1.141   8.718 -0.0967 -1.0591  2.2741
   79SLPC  H17Y 7338   1.304   1.070   8.557 -0.4634 -0.6554 -0.0269
   79SLPC  C318 7339   1.347   0.932   8.724 -0.0743 -0.0187 -0.1087
   79SLPC  H18X 7340   1.308   0.925   8.828  0.2821  1.3626  0.1317
   79SLPC  H18Y 7341   1.452   0.967   8.733 -1.0040  2.7075  1.2058
   79SLPC  H18Z 7342   1.339   0.838   8.664  1.7316 -2.0109  2.5287
   80SLPC     N 7343   2.962   6.358   6.070  0.4204 -0.2523  0.2338
   80SLPC   C13 7344   2.976   6.485   5.989  0.3589  0.2875  0.1680
   80SLPC  H13A 7345   3.040   6.557   6.038  1.7613 -1.1656  0.5810
   80SLPC  H13B 7346   3.014   6.463   5.891  0.7155 -0.7728  0.5267
   80SLPC  H13C 7347   2.885   6.541   5.974 -0.3610 -0.6432  0.9007
   80SLPC   C14 7348   3.092   6.285   6.074 -0.6263  0.3600  0.4903
   80SLPC  H14A 7349   3.108   6.219   5.991 -0.8078  1.4961 -0.4769
   80SLPC  H14B 7350   3.174   6.354   6.087  0.2548 -0.7452  0.9716
   80SLPC  H14C 7351   3.105   6.229   6.166  2.0694  0.5222  0.2846
   80SLPC   C15 7352   2.860   6.269   6.006  0.1198  0.6256 -0.8562
   80SLPC  H15A 7353   2.877   6.250   5.900 -1.3536 -2.7458 -0.6298
   80SLPC  H15B 7354   2.853   6.174   6.057  1.2069  1.4614  0.9500
   80SLPC  H15C 7355   2.762   6.312   6.008 -0.7161 -1.2047  0.4504
   80SLPC   C12 7356   2.926   6.403   6.203 -0.6886  0.6244  0.2064
   80SLPC  H12A 7357   3.016   6.442   6.248 -0.2420  0.7284 -0.7533
   80SLPC  H12B 7358   2.897   6.320   6.266 -2.3325  0.4734 -0.7038
   80SLPC   C11 7359   2.815   6.502   6.229  0.0637  0.0141  0.8554
   80SLPC  H11A 7360   2.839   6.599   6.180 -1.5851  0.3054  0.5847
   80SLPC  H11B 7361   2.807   6.526   6.337 -1.1434  2.0249  0.3709
   80SLPC     P 7362   2.596   6.361   6.256 -0.0683 -0.2999 -0.6230
   80SLPC   O13 7363   2.458   6.383   6.206 -0.3108  0.0456  0.4455
   80SLPC   O14 7364   2.654   6.224   6.245  0.4881 -0.0757 -0.1972
   80SLPC   O12 7365   2.693   6.460   6.181 -0.0735  0.6472  0.3355
   80SLPC   O11 7366   2.596   6.397   6.407 -0.2222 -0.7571  0.2210
   80SLPC    C1 7367   2.513   6.504   6.443  0.1973 -0.1869 -0.3235
   80SLPC    HA 7368   2.563   6.603   6.433  0.3752  0.1822  3.0298
   80SLPC    HB 7369   2.411   6.506   6.399  0.7298 -2.1610 -1.7717
   80SLPC    C2 7370   2.484   6.494   6.604  0.4975 -0.4433 -0.0453
   80SLPC    HS 7371   2.441   6.590   6.639 -0.1983  0.0244 -2.0769
   80SLPC   O21 7372   2.609   6.474   6.676  0.5983 -0.2808 -0.2562
   80SLPC   C21 7373   2.695   6.571   6.680  0.2381  0.0859 -0.0006
   80SLPC   O22 7374   2.683   6.684   6.635  0.1856  0.1225 -0.4589
   80SLPC   C22 7375   2.825   6.519   6.744  1.0892  0.1461 -0.3957
   80SLPC   H2R 7376   2.861   6.457   6.659 -2.9710  1.8601 -3.7273
   80SLPC   H2S 7377   2.882   6.611   6.769  0.5496  0.7505 -1.3237
   80SLPC    C3 7378   2.374   6.388   6.637  0.0362 -0.1727  0.1466
   80SLPC    HX 7379   2.413   6.288   6.609  0.3124 -0.0807  0.1931
   80SLPC    HY 7380   2.288   6.407   6.570 -0.2952 -0.2738  0.5400
   80SLPC   O31 7381   2.328   6.400   6.766 -0.3447  0.4232  0.1165
   80SLPC   C31 7382   2.387   6.320   6.854 -0.1631 -0.0857  0.3425
   80SLPC   O32 7383   2.480   6.246   6.843 -0.1266 -0.4850 -0.0642
   80SLPC   C32 7384   2.299   6.327   6.980  0.8200  0.0026  0.3607
   80SLPC   H2X 7385   2.201   6.290   6.944  0.9777 -0.3296  0.2675
   80SLPC   H2Y 7386   2.280   6.429   7.019 -1.1065 -0.8226  1.7352
   80SLPC   C23 7387   2.816   6.438   6.881  0.7461  0.3784 -0.0176
   80SLPC   H3R 7388   2.923   6.433   6.908  1.0402 -1.9048 -1.3676
   80SLPC   H3S 7389   2.763   6.342   6.861 -2.6229  1.8914  0.8931
   80SLPC   C24 7390   2.740   6.496   7.008  0.5413 -0.5452 -0.5913
   80SLPC   H4R 7391   2.635   6.520   6.982  0.6317  3.8244  2.1535
   80SLPC   H4S 7392   2.788   6.595   7.025 -0.6311  0.1148 -1.0277
   80SLPC   C25 7393   2.763   6.424   7.138 -0.4708  0.3094  0.4279
   80SLPC   H5R 7394   2.871   6.407   7.155  0.4139  2.7658 -1.9604
   80SLPC   H5S 7395   2.716   6.324   7.124 -1.6423  1.2458 -3.3833
   80SLPC   C26 7396   2.713   6.489   7.264 -0.0218  0.4649  0.0085
   80SLPC   H6R 7397   2.604   6.508   7.251 -0.3067 -0.9881  0.1336
   80SLPC   H6S 7398   2.759   6.590   7.275 -0.1928  0.7214 -1.4335
   80SLPC   C27 7399   2.749   6.403   7.391  0.0183 -0.4218 -0.0809
   80SLPC   H7R 7400   2.856   6.376   7.386  0.9579  2.6632  0.9148
   80SLPC   H7S 7401   2.696   6.308   7.369 -0.9032  0.5545 -2.4594
   80SLPC   C28 7402   2.721   6.471   7.524  0.5055 -0.2632  0.3255
   80SLPC   H8R 7403   2.625   6.527   7.531  0.6404  0.0745 -0.4258
   80SLPC   H8S 7404   2.791   6.557   7.517  0.1847 -0.1241 -2.1870
   80SLPC   C29 7405   2.741   6.375   7.636  0.1782 -0.0710 -0.4006
   80SLPC   H9R 7406   2.808   6.290   7.615 -0.7685 -1.0039  0.1979
   80SLPC  C210 7407   2.672   6.373   7.757 -0.0625  0.2493  0.6480
   80SLPC  H10R 7408   2.714   6.309   7.835  2.2004  0.6518 -0.1741
   80SLPC  C211 7409   2.567   6.475   7.798 -0.6108  0.5052  0.6366
   80SLPC  H11R 7410   2.469   6.422   7.801  0.2544 -1.1034  1.6091
   80SLPC  H11S 7411   2.569   6.550   7.716  1.8575  0.4315  0.5786
   80SLPC  C212 7412   2.609   6.535   7.937 -0.0490  0.1934  0.3731
   80SLPC  H12R 7413   2.666   6.628   7.925 -1.4615  1.1755  1.0180
   80SLPC  C213 7414   2.596   6.491   8.062  0.0540  0.4785 -0.0952
   80SLPC  H13R 7415   2.630   6.552   8.146 -0.6551  2.1539 -0.9682
   80SLPC  C214 7416   2.519   6.365   8.095  0.7101 -0.4315  0.1481
   80SLPC  H14R 7417   2.475   6.312   8.008  0.2647  1.0922 -0.5996
   80SLPC  H14S 7418   2.432   6.414   8.143  0.2567 -0.4234 -0.6686
   80SLPC  C215 7419   2.578   6.274   8.201  0.8224  0.2319 -0.0276
   80SLPC  H15R 7420   2.511   6.188   8.225  2.6430 -1.5214 -1.0045
   80SLPC  H15S 7421   2.599   6.336   8.291  1.1212 -0.0695  0.1107
   80SLPC  C216 7422   2.717   6.217   8.169  0.1789  0.0482 -0.2848
   80SLPC  H16R 7423   2.788   6.301   8.151 -0.6227  0.1942 -3.2477
   80SLPC  H16S 7424   2.729   6.177   8.066  1.5573 -0.0395 -0.1023
   80SLPC  C217 7425   2.766   6.116   8.273 -0.0761  0.4384 -0.4408
   80SLPC  H17R 7426   2.835   6.040   8.232 -0.1323 -0.8319  1.6826
   80SLPC  H17S 7427   2.679   6.058   8.310  1.5576 -0.7845  1.6839
   80SLPC  C218 7428   2.836   6.171   8.399 -1.2644  0.5374 -0.6701
   80SLPC  H18R 7429   2.777   6.251   8.449 -0.4815  0.5254  0.3216
   80SLPC  H18S 7430   2.937   6.207   8.371 -0.1410 -2.6237 -1.1029
   80SLPC  H18T 7431   2.862   6.091   8.472  1.6726  2.1170  0.1501
   80SLPC   C33 7432   2.354   6.242   7.097  0.0318  0.6337  0.0649
   80SLPC   H3X 7433   2.431   6.305   7.148 -1.3259  2.1421  0.3336
   80SLPC   H3Y 7434   2.395   6.141   7.076  1.0162  0.8989  0.6005
   80SLPC   C34 7435   2.244   6.217   7.195 -0.8182  0.1412  0.1204
   80SLPC   H4X 7436   2.183   6.135   7.152  1.6996 -1.0114 -1.5032
   80SLPC   H4Y 7437   2.178   6.305   7.210  0.0339  1.3091 -2.3701
   80SLPC   C35 7438   2.287   6.163   7.335 -0.2822 -0.6493  0.0808
   80SLPC   H5X 7439   2.366   6.088   7.313  1.0065  0.6874 -0.0808
   80SLPC   H5Y 7440   2.198   6.118   7.383 -1.2795  0.9764 -0.1697
   80SLPC   C36 7441   2.353   6.265   7.427  0.0822  0.4628 -0.0620
   80SLPC   H6X 7442   2.271   6.332   7.460 -0.7602 -2.3272  4.1877
   80SLPC   H6Y 7443   2.416   6.331   7.363 -1.2008  0.2686 -1.5831
   80SLPC   C37 7444   2.430   6.198   7.538  0.3939 -0.4394 -0.4296
   80SLPC   H7X 7445   2.481   6.278   7.595  0.5181 -2.2760  2.1953
   80SLPC   H7Y 7446   2.516   6.135   7.505  0.8732 -1.0699  1.8786
   80SLPC   C38 7447   2.338   6.124   7.637  0.4141  0.4244  1.0643
   80SLPC   H8X 7448   2.290   6.042   7.579  2.1422  1.1920 -1.6292
   80SLPC   H8Y 7449   2.251   6.185   7.669 -0.9961  0.0871 -1.8511
   80SLPC   C39 7450   2.415   6.069   7.759 -0.5684 -0.1837 -0.1393
   80SLPC   H9X 7451   2.507   6.125   7.787  0.4936 -2.5810  1.5154
   80SLPC   H9Y 7452   2.461   5.974   7.723  0.5900 -0.7158  2.4502
   80SLPC  C310 7453   2.338   6.016   7.874  0.1399 -0.3470 -0.8609
   80SLPC  H10X 7454   2.244   5.967   7.838 -0.7289 -0.0053  0.8358
   80SLPC  H10Y 7455   2.310   6.106   7.933  1.1993 -1.4348  1.4303
   80SLPC  C311 7456   2.417   5.926   7.965  0.2412  0.1978  0.3023
   80SLPC  H11X 7457   2.487   5.993   8.021  0.6459  0.3615 -0.3892
   80SLPC  H11Y 7458   2.477   5.849   7.913  0.4099 -1.7099  3.0744
   80SLPC  C312 7459   2.326   5.827   8.051 -0.3971  0.3643  0.4311
   80SLPC  H12X 7460   2.388   5.742   8.088 -0.4522  0.1581  0.0497
   80SLPC  H12Y 7461   2.262   5.779   7.974  0.1346  1.1083 -0.4975
   80SLPC  C313 7462   2.240   5.892   8.160 -0.5275 -0.1469 -0.6071
   80SLPC  H13X 7463   2.157   5.833   8.204  0.7010 -0.7921  0.9553
   80SLPC  H13Y 7464   2.197   5.984   8.116  0.3765  0.5509 -0.0798
   80SLPC  C314 7465   2.335   5.936   8.278  0.3268  0.2260  0.3062
   80SLPC  H14X 7466   2.284   6.023   8.326  2.9057  1.5147  0.9325
   80SLPC  H14Y 7467   2.431   5.968   8.233  0.6780 -0.8563  0.2545
   80SLPC  C315 7468   2.372   5.824   8.374  0.1421  0.0784  0.1827
   80SLPC  H15X 7469   2.412   5.747   8.306  0.0569  0.3087 -0.1297
   80SLPC  H15Y 7470   2.272   5.798   8.417 -0.4998  2.5660  0.3918
   80SLPC  C316 7471   2.482   5.853   8.470 -0.1940 -0.1460  0.0599
   80SLPC  H16X 7472   2.557   5.914   8.414  0.7143 -1.7682 -0.5482
   80SLPC  H16Y 7473   2.526   5.755   8.496 -1.2223 -0.2665  1.4791
   80SLPC  C317 7474   2.437   5.940   8.591  0.8211 -0.2179 -0.3297
   80SLPC  H17X 7475   2.371   5.878   8.655  1.2534  0.2558  0.5925
   80SLPC  H17Y 7476   2.389   6.030   8.547  0.1799 -1.3980 -2.1935
   80SLPC  C318 7477   2.559   5.966   8.683  0.5711 -0.4195  0.0162
   80SLPC  H18X 7478   2.523   6.024   8.770  2.4364 -1.0670  1.2669
   80SLPC  H18Y 7479   2.635   6.025   8.627  1.0198 -0.1983  0.8491
   80SLPC  H18Z 7480   2.599   5.867   8.713 -1.1377 -0.8818  0.8753
   81SAPS     N 7481   3.408   0.592  11.215 -0.0953 -0.1963  0.5432
   81SAPS   HN1 7482   3.461   0.605  11.304  1.6596 -0.5596 -0.3875
   81SAPS   HN2 7483   3.335   0.519  11.220 -0.0333 -0.3580 -0.5239
   81SAPS   HN3 7484   3.479   0.575  11.140 -0.3946 -0.2053  0.2630
   81SAPS   C12 7485   3.335   0.719  11.182  0.3311 -0.0797 -0.0879
   81SAPS  H12A 7486   3.316   0.723  11.076  0.7420 -1.2629 -0.2225
   81SAPS   C13 7487   3.210   0.741  11.277  0.0132 -0.0351  0.3103
   81SAPS  O13A 7488   3.206   0.679  11.388 -0.0248  0.5590 -0.0430
   81SAPS  O13B 7489   3.125   0.827  11.245 -0.2517 -0.1339  0.0281
   81SAPS   C11 7490   3.429   0.838  11.215  0.5734  0.6254  0.4929
   81SAPS  H11A 7491   3.455   0.852  11.322 -1.5958  0.1799  1.1333
   81SAPS  H11B 7492   3.377   0.931  11.182 -3.1833 -1.5171 -0.2780
   81SAPS     P 7493   3.655   0.933  11.121 -0.0185  0.1801 -0.0823
   81SAPS   O13 7494   3.629   1.051  11.203  0.0101 -0.1780 -0.4517
   81SAPS   O14 7495   3.774   0.858  11.160  0.2004 -0.4234  0.1087
   81SAPS   O12 7496   3.545   0.820  11.139 -0.2961  0.0874 -0.0245
   81SAPS   O11 7497   3.663   0.975  10.967 -0.0915  0.0589  0.3884
   81SAPS    C1 7498   3.629   0.867  10.872  0.3824 -0.4269 -0.0181
   81SAPS    HA 7499   3.690   0.775  10.883  2.1696  0.7885  0.6515
   81SAPS    HB 7500   3.528   0.824  10.889  0.4264  0.1435  1.9500
   81SAPS    C2 7501   3.646   0.909  10.728  0.4689  0.2078 -0.3236
   81SAPS    HS 7502   3.609   0.829  10.660  0.8421 -0.9806  0.8253
   81SAPS   O21 7503   3.783   0.944  10.696 -0.3884 -0.4060 -0.2040
   81SAPS   C21 7504   3.862   0.844  10.691  0.1046 -0.2874  0.7025
   81SAPS   O22 7505   3.841   0.727  10.723  0.8697 -0.1976 -0.3382
   81SAPS   C22 7506   3.997   0.886  10.634  0.2475 -0.2015 -0.7292
   81SAPS   H2R 7507   3.992   0.995  10.611  0.5837 -0.1122 -0.3841
   81SAPS   H2S 7508   4.067   0.864  10.717  3.8618 -0.6325 -3.6266
   81SAPS    C3 7509   3.562   1.025  10.692 -0.1132  0.1053 -0.0438
   81SAPS    HX 7510   3.589   1.113  10.754  1.2686  0.5152 -1.1720
   81SAPS    HY 7511   3.453   1.005  10.704  0.7042 -5.6184  0.3280
   81SAPS   O31 7512   3.569   1.039  10.546 -0.0541 -0.3302 -0.5088
   81SAPS   C31 7513   3.614   1.163  10.504 -0.1384  0.2980 -0.1923
   81SAPS   O32 7514   3.656   1.251  10.573 -0.3898  0.2570  0.4493
   81SAPS   C32 7515   3.589   1.166  10.356  0.1064  1.0269  0.5178
   81SAPS   H2X 7516   3.623   1.269  10.333 -0.4233  1.2640  0.7923
   81SAPS   H2Y 7517   3.479   1.167  10.346 -0.0581 -0.9447  1.5522
   81SAPS   C23 7518   4.034   0.791  10.513  0.1445  0.2606 -0.0185
   81SAPS   H3R 7519   4.021   0.688  10.554 -1.1780  0.8119  1.0047
   81SAPS   H3S 7520   4.142   0.811  10.502  0.1255  1.0509  1.0810
   81SAPS   C24 7521   3.948   0.822  10.389  0.7157 -0.1341  0.2947
   81SAPS   H4R 7522   3.957   0.926  10.351  1.4313 -0.2970  0.0005
   81SAPS   H4S 7523   3.844   0.795  10.418 -0.1916  1.7182 -1.0330
   81SAPS   C25 7524   3.991   0.722  10.282  0.4621  0.0690 -0.4407
   81SAPS   H5R 7525   3.919   0.639  10.270  0.3733 -0.0853  0.9397
   81SAPS   C26 7526   4.095   0.723  10.199  0.0687 -0.4135  0.6875
   81SAPS   H6R 7527   4.093   0.641  10.125 -0.4000 -0.3004  0.5728
   81SAPS   C27 7528   4.202   0.832  10.196  0.0336  0.1892 -0.0954
   81SAPS   H7R 7529   4.258   0.842  10.292 -0.3186 -0.6862  0.2039
   81SAPS   H7S 7530   4.153   0.932  10.194  0.7522  0.5420 -1.2886
   81SAPS   C28 7531   4.307   0.814  10.091 -0.5219 -0.4127  0.4361
   81SAPS   H8R 7532   4.401   0.773  10.128  0.2338 -0.3691 -1.3154
   81SAPS   C29 7533   4.294   0.853   9.959 -0.1280  0.2615  0.1988
   81SAPS   H9R 7534   4.375   0.828   9.889 -0.7813 -1.1001 -0.0977
   81SAPS  C210 7535   4.163   0.910   9.899  0.4845  1.1351 -1.1274
   81SAPS  H10R 7536   4.088   0.934   9.977  1.9100  0.2545  0.5737
   81SAPS  H10S 7537   4.109   0.836   9.835  0.3574 -0.2655  0.5452
   81SAPS  C211 7538   4.189   1.039   9.827  0.0986  0.1624 -0.1136
   81SAPS  H11R 7539   4.172   1.132   9.883 -0.5436 -0.4517  0.7433
   81SAPS  C212 7540   4.252   1.047   9.709 -0.0812  0.2595 -0.5774
   81SAPS  H12R 7541   4.267   1.145   9.661  1.0204 -0.4589 -1.7796
   81SAPS  C213 7542   4.305   0.938   9.620 -0.0476  0.1100  0.4011
   81SAPS  H13R 7543   4.244   0.955   9.529  0.4369  0.7749  0.1964
   81SAPS  H13S 7544   4.289   0.831   9.644 -0.8867 -0.3818 -2.0938
   81SAPS  C214 7545   4.451   0.957   9.585  0.0976  0.0229 -0.0096
   81SAPS  H14R 7546   4.506   1.038   9.635  1.8299 -1.2294  0.2069
   81SAPS  C215 7547   4.518   0.896   9.488  0.5849 -0.6429 -0.7340
   81SAPS  H15R 7548   4.627   0.910   9.476  0.9524 -1.6577  1.0724
   81SAPS  C216 7549   4.471   0.793   9.394  0.0571 -0.3524  0.6777
   81SAPS  H16R 7550   4.381   0.740   9.431 -0.6542  1.0241  0.9895
   81SAPS  H16S 7551   4.553   0.722   9.372 -0.2391 -0.7091  0.7190
   81SAPS  C217 7552   4.424   0.845   9.253  0.1563  0.4143 -0.7649
   81SAPS  H17R 7553   4.501   0.918   9.218  0.2478  1.0658  0.7357
   81SAPS  H17S 7554   4.328   0.898   9.270  1.1994  2.6088 -1.2471
   81SAPS  C218 7555   4.414   0.736   9.147  0.1737 -1.1580 -0.2961
   81SAPS  H18R 7556   4.352   0.653   9.187  0.7704 -0.1391  2.9773
   81SAPS  H18S 7557   4.518   0.703   9.125  0.9762  0.6538  0.5831
   81SAPS  C219 7558   4.374   0.793   9.016 -0.0851 -0.4151  0.1107
   81SAPS  H19R 7559   4.452   0.864   8.984 -1.5807  1.4595  0.4120
   81SAPS  H19S 7560   4.282   0.856   9.018  0.4936  0.7327 -3.1223
   81SAPS  C220 7561   4.353   0.686   8.907 -0.3186 -0.0604 -0.5245
   81SAPS  H20R 7562   4.449   0.638   8.877 -0.7206 -0.7309 -0.7714
   81SAPS  H20S 7563   4.316   0.742   8.818 -1.2354  0.8464  0.4081
   81SAPS  H20T 7564   4.277   0.610   8.934 -2.0195  1.5500 -0.5951
   81SAPS   C33 7565   3.674   1.059  10.284 -0.1603 -0.0077  0.7568
   81SAPS   H3X 7566   3.638   0.957  10.305 -2.1836  0.3834 -0.5213
   81SAPS   H3Y 7567   3.775   1.049  10.330 -0.0692 -4.7963  0.0076
   81SAPS   C34 7568   3.682   1.095  10.132  0.0810 -0.0648 -0.9427
   81SAPS   H4X 7569   3.742   1.189  10.131 -1.5356  1.4062  4.5961
   81SAPS   H4Y 7570   3.585   1.124  10.087  0.9385  0.2338 -2.7114
   81SAPS   C35 7571   3.736   0.981  10.043  0.3385 -0.0923 -0.1293
   81SAPS   H5X 7572   3.657   0.903  10.041  0.4403 -0.1846 -0.5069
   81SAPS   H5Y 7573   3.813   0.944  10.114 -0.2478  0.7727  0.9936
   81SAPS   C36 7574   3.786   1.029   9.905 -0.4065 -0.4136 -0.7449
   81SAPS   H6X 7575   3.839   0.940   9.866  1.7403 -0.9296  2.8368
   81SAPS   H6Y 7576   3.869   1.101   9.927 -0.9747  0.1140 -0.2964
   81SAPS   C37 7577   3.682   1.102   9.822  0.0161 -0.2786  0.9863
   81SAPS   H7X 7578   3.645   1.185   9.886 -0.8229 -0.8228  1.2158
   81SAPS   H7Y 7579   3.591   1.046   9.794  1.0531 -1.3912 -0.3131
   81SAPS   C38 7580   3.736   1.143   9.686  0.3908 -0.0186  0.2129
   81SAPS   H8X 7581   3.821   1.214   9.698  0.6269 -0.1376 -0.6746
   81SAPS   H8Y 7582   3.660   1.199   9.626  0.1855  1.1711  1.5212
   81SAPS   C39 7583   3.799   1.028   9.604  0.2947 -1.0325  0.3861
   81SAPS   H9X 7584   3.722   0.949   9.588 -0.8509 -0.1774  1.4383
   81SAPS   H9Y 7585   3.879   0.980   9.664 -1.2420 -1.0934  2.5138
   81SAPS  C310 7586   3.839   1.057   9.459 -0.3624 -0.5180  0.3811
   81SAPS  H10X 7587   3.755   1.123   9.429 -0.6731  0.2994  2.7817
   81SAPS  H10Y 7588   3.854   0.984   9.377  1.3929  1.6160 -1.3235
   81SAPS  C311 7589   3.973   1.138   9.455 -0.0735  0.7902  0.2183
   81SAPS  H11X 7590   4.056   1.069   9.482  0.3855  0.9390 -0.7594
   81SAPS  H11Y 7591   3.966   1.218   9.531 -0.0757 -0.6233  1.7682
   81SAPS  C312 7592   3.993   1.183   9.310  0.2474  0.4647 -0.8450
   81SAPS  H12X 7593   3.902   1.237   9.274 -0.9697 -1.8655 -1.4935
   81SAPS  H12Y 7594   4.010   1.088   9.256 -1.7416 -1.8659  2.2807
   81SAPS  C313 7595   4.109   1.275   9.292  0.5267 -0.1224  0.3843
   81SAPS  H13X 7596   4.125   1.339   9.382  1.0020 -1.0107  0.9428
   81SAPS  H13Y 7597   4.098   1.341   9.203  1.8395 -0.8415 -0.3376
   81SAPS  C314 7598   4.238   1.199   9.258 -0.1410  0.7854  0.2524
   81SAPS  H14X 7599   4.223   1.136   9.168  1.5487  1.8270 -0.8279
   81SAPS  H14Y 7600   4.256   1.147   9.355 -1.9191  1.0495  0.7560
   81SAPS  C315 7601   4.356   1.295   9.237  0.2242  0.3509  0.3734
   81SAPS  H15X 7602   4.451   1.238   9.240  0.6030  0.9480  0.0673
   81SAPS  H15Y 7603   4.360   1.378   9.311 -0.3203  1.0338 -0.3481
   81SAPS  C316 7604   4.356   1.369   9.099  0.3266  0.1834  0.0012
   81SAPS  H16X 7605   4.262   1.425   9.082  0.3237  0.4872  0.9493
   81SAPS  H16Y 7606   4.364   1.285   9.027  1.3733  1.0175 -0.8889
   81SAPS  C317 7607   4.477   1.457   9.077  0.2890  1.4260 -0.6517
   81SAPS  H17X 7608   4.563   1.392   9.104 -0.7421 -0.6412 -2.0827
   81SAPS  H17Y 7609   4.478   1.553   9.133  0.3105  0.3666  1.2418
   81SAPS  C318 7610   4.488   1.480   8.929 -0.5804 -0.0090 -0.2495
   81SAPS  H18X 7611   4.493   1.382   8.878 -0.7516  1.0317 -2.3853
   81SAPS  H18Y 7612   4.572   1.548   8.903 -1.2255  2.8282  4.0230
   81SAPS  H18Z 7613   4.391   1.523   8.896 -0.4462  1.6257  1.3407
   82SAPS     N 7614   2.231   0.329  11.003  1.1374  0.1295  0.3094
   82SAPS   HN1 7615   2.142   0.307  10.955  0.6292  0.1928  1.1914
   82SAPS   HN2 7616   2.198   0.355  11.098 -0.1506  0.6848 -0.2678
   82SAPS   HN3 7617   2.272   0.415  10.963 -0.8846  1.2046  0.4375
   82SAPS   C12 7618   2.324   0.205  10.995  0.6819  0.0865 -0.1514
   82SAPS  H12A 7619   2.394   0.198  11.076  1.0012  0.1987 -0.4182
   82SAPS   C13 7620   2.253   0.068  10.993 -0.3897 -0.3833  0.4464
   82SAPS  O13A 7621   2.130   0.059  11.001  0.1630  0.1289  0.2594
   82SAPS  O13B 7622   2.319  -0.039  10.998 -0.1914  0.4196 -0.4828
   82SAPS   C11 7623   2.417   0.225  10.878  0.5154  0.1196 -0.3447
   82SAPS  H11A 7624   2.363   0.246  10.783  1.0975 -0.5811 -0.8489
   82SAPS  H11B 7625   2.466   0.125  10.873 -2.7627 -1.6836  0.6094
   82SAPS     P 7626   2.519   0.463  10.827  0.4312  0.5254 -0.5865
   82SAPS   O13 7627   2.377   0.507  10.835  0.3488  0.1469 -0.0308
   82SAPS   O14 7628   2.629   0.543  10.885 -0.1976 -0.1339 -0.2744
   82SAPS   O12 7629   2.512   0.327  10.907 -0.7098  0.0713 -0.4344
   82SAPS   O11 7630   2.552   0.422  10.683 -0.6693  0.2458  0.1237
   82SAPS    C1 7631   2.673   0.348  10.655  0.1938 -0.0115  1.2389
   82SAPS    HA 7632   2.760   0.416  10.670 -1.5611  1.9894  3.0259
   82SAPS    HB 7633   2.686   0.253  10.711  1.4919 -0.1363  0.7683
   82SAPS    C2 7634   2.678   0.303  10.510  0.5680  0.3155 -0.0369
   82SAPS    HS 7635   2.589   0.237  10.497  1.5829 -0.8373 -1.3839
   82SAPS   O21 7636   2.794   0.229  10.471  0.8387 -0.0095 -0.0201
   82SAPS   C21 7637   2.827   0.115  10.526 -0.2515  0.1769 -0.1305
   82SAPS   O22 7638   2.762   0.050  10.606 -0.3637 -0.4666  0.3371
   82SAPS   C22 7639   2.954   0.071  10.453 -0.5898 -0.0951 -0.7223
   82SAPS   H2R 7640   2.933   0.064  10.344  0.3376 -0.4305 -0.8847
   82SAPS   H2S 7641   3.022   0.158  10.462  0.1450 -0.6622 -0.7259
   82SAPS    C3 7642   2.675   0.423  10.406 -0.4128  0.0912  0.2117
   82SAPS    HX 7643   2.741   0.497  10.456 -1.5279 -0.1624  2.1713
   82SAPS    HY 7644   2.573   0.467  10.403 -0.2764  0.3335 -1.1630
   82SAPS   O31 7645   2.729   0.390  10.275  0.8211 -0.1557 -0.0758
   82SAPS   C31 7646   2.742   0.495  10.194 -1.0239 -0.1661 -0.1735
   82SAPS   O32 7647   2.718   0.611  10.221  0.1808 -0.3404 -0.0512
   82SAPS   C32 7648   2.790   0.455  10.051  0.5191  0.1989  0.2314
   82SAPS   H2X 7649   2.708   0.392  10.010  1.5221 -0.8212 -0.2802
   82SAPS   H2Y 7650   2.890   0.406  10.060 -0.3343 -1.6268  0.0883
   82SAPS   C23 7651   3.018  -0.058  10.512  0.7574  0.0520 -0.2938
   82SAPS   H3R 7652   2.950  -0.145  10.521 -0.1905  0.7838 -0.2213
   82SAPS   H3S 7653   3.048  -0.044  10.618 -0.4645 -1.0824  0.2197
   82SAPS   C24 7654   3.135  -0.096  10.424 -0.4431 -0.3131 -0.6660
   82SAPS   H4R 7655   3.089  -0.107  10.324  2.0039  2.1101 -2.2026
   82SAPS   H4S 7656   3.170  -0.198  10.454 -1.1316 -1.0141 -2.1529
   82SAPS   C25 7657   3.236   0.020  10.422  0.2613 -0.8813  0.0177
   82SAPS   H5R 7658   3.282   0.041  10.520 -3.0605 -0.7569  1.6695
   82SAPS   C26 7659   3.275   0.100  10.316 -0.0993  0.4626  0.4210
   82SAPS   H6R 7660   3.366   0.159  10.333 -0.8165  1.8231 -0.3303
   82SAPS   C27 7661   3.218   0.104  10.172 -0.3538  0.0920 -0.7096
   82SAPS   H7R 7662   3.140   0.028  10.152 -1.4354  1.4318 -1.8061
   82SAPS   H7S 7663   3.301   0.080  10.102 -0.1939 -1.5802  0.0343
   82SAPS   C28 7664   3.163   0.238  10.130 -0.0604  0.2318  0.7832
   82SAPS   H8R 7665   3.139   0.307  10.212 -1.2290  0.3219  0.3832
   82SAPS   C29 7666   3.138   0.273  10.002 -0.1603 -0.0668 -0.0606
   82SAPS   H9R 7667   3.105   0.375   9.976 -0.6339 -0.6071 -1.7276
   82SAPS  C210 7668   3.169   0.198   9.881  0.9123 -0.1041  1.0220
   82SAPS  H10R 7669   3.086   0.224   9.811  0.5990 -1.2042  0.9632
   82SAPS  H10S 7670   3.177   0.087   9.891  3.2877 -0.1628 -0.5737
   82SAPS  C211 7671   3.309   0.231   9.835  0.0097  0.6113  0.2508
   82SAPS  H11R 7672   3.393   0.235   9.906  0.8630 -2.0068 -0.5042
   82SAPS  C212 7673   3.350   0.257   9.705  0.2905 -0.4495 -0.0013
   82SAPS  H12R 7674   3.458   0.258   9.680  0.8446 -0.2436  2.2150
   82SAPS  C213 7675   3.256   0.257   9.586 -0.2381  0.4621  0.4093
   82SAPS  H13R 7676   3.193   0.166   9.596 -1.3786  1.0844 -0.8098
   82SAPS  H13S 7677   3.311   0.239   9.491 -1.2901 -1.9196  0.1810
   82SAPS  C214 7678   3.165   0.376   9.556 -0.0590  0.3903 -0.0412
   82SAPS  H14R 7679   3.101   0.407   9.640 -1.0537  0.5772 -0.8491
   82SAPS  C215 7680   3.158   0.440   9.436  0.1010  0.5437 -0.1953
   82SAPS  H15R 7681   3.102   0.535   9.433 -2.5276 -0.9357 -1.2212
   82SAPS  C216 7682   3.248   0.405   9.315 -1.5649  0.3773  0.9444
   82SAPS  H16R 7683   3.237   0.303   9.273  0.1768  1.0856 -1.4113
   82SAPS  H16S 7684   3.356   0.415   9.337 -1.1384 -0.3832 -0.6865
   82SAPS  C217 7685   3.215   0.504   9.202  0.1050  0.0017  0.7532
   82SAPS  H17R 7686   3.192   0.597   9.259  1.0354  0.4056  0.4770
   82SAPS  H17S 7687   3.123   0.465   9.153  1.5252 -1.1399 -1.1249
   82SAPS  C218 7688   3.334   0.517   9.105  0.2768 -0.1912 -0.3072
   82SAPS  H18R 7689   3.365   0.417   9.067  0.1883  0.3216 -1.8100
   82SAPS  H18S 7690   3.425   0.561   9.151  0.3287 -1.3476  0.7515
   82SAPS  C219 7691   3.311   0.621   8.990 -0.3424  0.5628  0.1256
   82SAPS  H19R 7692   3.304   0.721   9.038  1.0957  0.9531 -0.4225
   82SAPS  H19S 7693   3.215   0.587   8.946  1.8905 -0.7795 -4.3123
   82SAPS  C220 7694   3.411   0.606   8.879 -0.3859 -0.3458  0.2950
   82SAPS  H20R 7695   3.410   0.688   8.804  0.1949 -1.6287 -1.1763
   82SAPS  H20S 7696   3.404   0.509   8.825 -0.5052 -1.0848  1.6041
   82SAPS  H20T 7697   3.512   0.627   8.921 -0.7159  2.3927 -0.1468
   82SAPS   C33 7698   2.820   0.570   9.946  0.4089 -0.2549  0.6637
   82SAPS   H3X 7699   2.920   0.611   9.972  1.2641 -2.6793  1.4615
   82SAPS   H3Y 7700   2.748   0.654   9.953  0.6995 -0.0447  1.1713
   82SAPS   C34 7701   2.809   0.503   9.809  0.0831  0.1663  0.0963
   82SAPS   H4X 7702   2.843   0.397   9.809  2.3146  0.8161 -0.9051
   82SAPS   H4Y 7703   2.887   0.545   9.742  2.7971 -2.8529  1.0803
   82SAPS   C35 7704   2.670   0.519   9.746  0.7503 -0.6397  0.4844
   82SAPS   H5X 7705   2.677   0.621   9.704 -0.8606 -0.4568  0.5949
   82SAPS   H5Y 7706   2.583   0.511   9.815  1.8635 -0.6315  1.9196
   82SAPS   C36 7707   2.655   0.431   9.616 -0.1543  0.5453 -0.1116
   82SAPS   H6X 7708   2.552   0.454   9.583 -1.1059 -2.3951  0.4668
   82SAPS   H6Y 7709   2.669   0.321   9.628  1.8200  0.7023 -0.6020
   82SAPS   C37 7710   2.756   0.471   9.507 -0.1510 -0.1776  0.1074
   82SAPS   H7X 7711   2.858   0.434   9.532 -0.3427 -0.1107  1.0114
   82SAPS   H7Y 7712   2.766   0.582   9.518  2.8812 -0.3164 -0.2994
   82SAPS   C38 7713   2.711   0.445   9.366 -0.0784  0.0426  0.9389
   82SAPS   H8X 7714   2.609   0.488   9.369  0.3889  1.3500 -0.9424
   82SAPS   H8Y 7715   2.684   0.340   9.340 -1.5626  1.0899 -2.1554
   82SAPS   C39 7716   2.795   0.503   9.250  0.2994 -0.1056 -0.6335
   82SAPS   H9X 7717   2.875   0.429   9.231  1.0005  0.6666 -0.7213
   82SAPS   H9Y 7718   2.848   0.592   9.288  0.5348 -0.0102 -1.1750
   82SAPS  C310 7719   2.713   0.529   9.116  0.4403  0.7680  0.0790
   82SAPS  H10X 7720   2.656   0.624   9.128 -0.1317  0.5430 -0.8211
   82SAPS  H10Y 7721   2.642   0.445   9.108 -0.5147  1.4972  0.5747
   82SAPS  C311 7722   2.803   0.540   8.991  0.2559 -0.1361  0.3332
   82SAPS  H11X 7723   2.870   0.628   9.002 -2.0589  1.7008  0.6430
   82SAPS  H11Y 7724   2.734   0.570   8.910 -0.8094  0.6809  1.4991
   82SAPS  C312 7725   2.875   0.406   8.967 -0.0820 -0.5054  0.4600
   82SAPS  H12X 7726   2.801   0.323   8.958  0.9137 -1.1499 -3.3870
   82SAPS  H12Y 7727   2.952   0.389   9.045  0.9497 -1.8309 -0.7981
   82SAPS  C313 7728   2.946   0.418   8.836  0.1417  0.1119 -0.1107
   82SAPS  H13X 7729   3.014   0.506   8.832  2.1338 -1.3785 -1.0782
   82SAPS  H13Y 7730   2.874   0.428   8.753  0.5195 -1.6026 -0.6850
   82SAPS  C314 7731   3.016   0.290   8.790  0.0731  0.8514 -0.8127
   82SAPS  H14X 7732   3.079   0.256   8.874 -0.9581  2.0124  0.4838
   82SAPS  H14Y 7733   3.088   0.330   8.715  2.5277  0.7439  1.3686
   82SAPS  C315 7734   2.941   0.177   8.721  0.1458  0.1424 -0.2432
   82SAPS  H15X 7735   2.987   0.140   8.627  0.7640  1.7706 -0.6231
   82SAPS  H15Y 7736   2.846   0.223   8.685  0.4908  0.7714 -0.3791
   82SAPS  C316 7737   2.919   0.058   8.819 -0.4551  0.7674 -0.4293
   82SAPS  H16X 7738   2.840   0.003   8.763 -1.0273 -0.0508  1.1185
   82SAPS  H16Y 7739   2.872   0.092   8.914 -1.7450 -0.7349 -0.4885
   82SAPS  C317 7740   3.050  -0.025   8.846  0.1844  0.1231  0.1282
   82SAPS  H17X 7741   3.133   0.031   8.893  0.3204 -0.9334  1.1727
   82SAPS  H17Y 7742   3.087  -0.080   8.757 -0.3279 -0.3106  0.1772
   82SAPS  C318 7743   3.021  -0.130   8.952 -1.3619  0.5574  0.2135
   82SAPS  H18X 7744   2.936  -0.194   8.919 -0.9130  0.2119 -0.2935
   82SAPS  H18Y 7745   2.996  -0.081   9.048 -1.2322  0.2854  0.3870
   82SAPS  H18Z 7746   3.111  -0.194   8.964  1.2039  3.9393  0.2971
   83SAPS     N 7747   5.259   1.009  11.345  0.3668  0.2004 -0.6315
   83SAPS   HN1 7748   5.258   1.041  11.444  4.7266 -1.2174  0.0976
   83SAPS   HN2 7749   5.345   0.952  11.347  0.1362 -0.1678 -0.9877
   83SAPS   HN3 7750   5.266   1.084  11.273  1.9909  1.9874  1.2921
   83SAPS   C12 7751   5.146   0.909  11.321 -0.3418 -0.7319  0.1635
   83SAPS  H12A 7752   5.153   0.857  11.227 -3.6141 -0.3844 -0.3785
   83SAPS   C13 7753   5.137   0.805  11.435  0.6053  0.0904 -0.0739
   83SAPS  O13A 7754   5.225   0.794  11.523  0.2116 -0.1808 -0.6101
   83SAPS  O13B 7755   5.055   0.709  11.408 -0.0884  0.0437 -0.9080
   83SAPS   C11 7756   5.016   0.986  11.304 -0.3137 -0.7609  0.5647
   83SAPS  H11A 7757   4.972   1.018  11.401  0.9141 -0.9840  1.2175
   83SAPS  H11B 7758   4.956   0.900  11.268  1.9932 -2.6589  1.0325
   83SAPS     P 7759   4.900   1.188  11.169  0.3793  0.0200 -0.0074
   83SAPS   O13 7760   4.801   1.188  11.284  0.1727  1.0097 -0.7072
   83SAPS   O14 7761   4.942   1.326  11.132 -0.2462  0.3293  0.0755
   83SAPS   O12 7762   5.022   1.096  11.211 -0.3394  0.1984  0.3741
   83SAPS   O11 7763   4.839   1.117  11.043 -1.0023  0.1533  0.4121
   83SAPS    C1 7764   4.905   1.026  10.959 -0.2269 -0.1434  0.6847
   83SAPS    HA 7765   4.961   0.948  11.015 -3.0242 -1.4545  1.8470
   83SAPS    HB 7766   4.826   0.974  10.901 -0.3033 -1.3292  1.8270
   83SAPS    C2 7767   5.002   1.106  10.860 -0.5739 -0.3892 -0.4876
   83SAPS    HS 7768   5.064   1.164  10.932 -1.2522 -1.2332  0.8278
   83SAPS   O21 7769   4.925   1.183  10.765  0.0603  0.6542  0.1523
   83SAPS   C21 7770   4.961   1.316  10.749 -0.8286 -0.2761  1.2655
   83SAPS   O22 7771   5.043   1.374  10.818  0.2330  0.2563 -0.1351
   83SAPS   C22 7772   4.883   1.378  10.637 -0.0799 -0.3445 -0.0458
   83SAPS   H2R 7773   4.885   1.311  10.548  0.0134  0.5619 -0.7400
   83SAPS   H2S 7774   4.779   1.390  10.676  0.5079  0.4049  1.3566
   83SAPS    C3 7775   5.099   1.000  10.799 -0.4004  0.5777  0.0381
   83SAPS    HX 7776   5.134   0.936  10.883  1.9720 -1.1909 -2.1024
   83SAPS    HY 7777   5.182   1.065  10.763  0.9361 -0.2765  1.4393
   83SAPS   O31 7778   5.045   0.921  10.690  0.6273  0.2111  0.0870
   83SAPS   C31 7779   5.060   0.977  10.564 -0.3223 -0.2612  0.1802
   83SAPS   O32 7780   5.113   1.083  10.540  0.3468  0.1122  0.6754
   83SAPS   C32 7781   5.008   0.881  10.462  0.4642  0.4449  0.3175
   83SAPS   H2X 7782   4.900   0.872  10.485 -0.3566  3.7774 -1.5232
   83SAPS   H2Y 7783   5.052   0.780  10.477 -1.7545 -0.6107  0.1462
   83SAPS   C23 7784   4.936   1.517  10.593 -0.1097 -0.2955  0.8154
   83SAPS   H3R 7785   5.027   1.505  10.530 -0.7852  0.2263 -0.2955
   83SAPS   H3S 7786   4.969   1.572  10.684  2.3198 -2.8167  1.6010
   83SAPS   C24 7787   4.835   1.583  10.507 -0.7845  0.1494 -0.2551
   83SAPS   H4R 7788   4.749   1.611  10.570 -1.8906 -0.3460 -1.4894
   83SAPS   H4S 7789   4.788   1.511  10.436 -1.7959  0.4484  0.0965
   83SAPS   C25 7790   4.896   1.701  10.435  0.1172  0.3771  0.2861
   83SAPS   H5R 7791   4.980   1.744  10.492  2.1032 -0.8531 -1.5302
   83SAPS   C26 7792   4.859   1.745  10.314 -0.0692  0.4248  0.6416
   83SAPS   H6R 7793   4.893   1.844  10.281  1.2109  0.2368  1.3196
   83SAPS   C27 7794   4.752   1.679  10.231  0.1229 -0.4743 -0.0950
   83SAPS   H7R 7795   4.698   1.757  10.173 -0.3100 -1.6181 -1.2814
   83SAPS   H7S 7796   4.673   1.624  10.286 -0.3356 -0.8162 -1.0759
   83SAPS   C28 7797   4.816   1.591  10.126  0.1722  0.0624 -0.8100
   83SAPS   H8R 7798   4.809   1.486  10.157 -0.7927  0.4013  0.1738
   83SAPS   C29 7799   4.876   1.620  10.007 -0.3879  0.1608  0.4658
   83SAPS   H9R 7800   4.923   1.542   9.946  0.8040  1.0567  0.1836
   83SAPS  C210 7801   4.879   1.755   9.944  0.5793  0.1372 -0.1443
   83SAPS  H10R 7802   4.846   1.838  10.010 -0.3169  0.3468 -0.8332
   83SAPS  H10S 7803   4.809   1.760   9.858  2.3836  2.4871 -1.5855
   83SAPS  C211 7804   5.014   1.794   9.896 -0.3695  0.3033 -0.6078
   83SAPS  H11R 7805   5.081   1.793   9.983 -1.9522 -0.0497  0.6423
   83SAPS  C212 7806   5.059   1.814   9.776  0.2518 -0.0358 -0.2087
   83SAPS  H12R 7807   5.165   1.842   9.769  0.8472 -1.8688  0.7209
   83SAPS  C213 7808   4.972   1.807   9.655  0.0432  0.2848 -0.2951
   83SAPS  H13R 7809   4.913   1.713   9.655 -0.8405  0.8195  0.0466
   83SAPS  H13S 7810   5.050   1.795   9.577  1.4189  0.9227  0.9283
   83SAPS  C214 7811   4.894   1.937   9.641 -0.1308 -0.2153 -0.3229
   83SAPS  H14R 7812   4.810   1.936   9.712  0.0960 -0.6405 -0.0525
   83SAPS  C215 7813   4.900   2.038   9.547 -0.4872 -0.3485 -0.6530
   83SAPS  H15R 7814   4.836   2.125   9.568 -0.7852 -1.1989  2.4165
   83SAPS  C216 7815   5.005   2.042   9.445  0.2592 -0.7030  0.3273
   83SAPS  H16R 7816   5.050   1.942   9.426 -2.9920 -1.7421 -2.8701
   83SAPS  H16S 7817   5.077   2.115   9.488  0.5596  0.3153 -1.8026
   83SAPS  C217 7818   4.961   2.098   9.313  0.1950 -0.4735 -0.0531
   83SAPS  H17R 7819   4.915   2.198   9.326  0.9599 -0.1665  0.3295
   83SAPS  H17S 7820   4.871   2.040   9.285  0.6374 -0.8392 -0.7506
   83SAPS  C218 7821   5.065   2.103   9.201  0.2165  0.2171  0.6010
   83SAPS  H18R 7822   5.105   2.002   9.176  0.1652  0.2026  0.5767
   83SAPS  H18S 7823   5.150   2.162   9.241 -0.4071  1.6330 -0.1152
   83SAPS  C219 7824   5.018   2.170   9.076  0.5905 -0.0424  1.1025
   83SAPS  H19R 7825   4.981   2.274   9.077  2.7048  0.7536  1.3404
   83SAPS  H19S 7826   4.936   2.104   9.041  1.6684 -0.5806 -0.5014
   83SAPS  C220 7827   5.126   2.145   8.962  0.6779 -0.6301  0.2452
   83SAPS  H20R 7828   5.212   2.213   8.980  2.7094 -2.4673 -1.9890
   83SAPS  H20S 7829   5.079   2.170   8.864  0.1828 -0.2032  0.5844
   83SAPS  H20T 7830   5.159   2.040   8.963  1.7644 -0.3367 -1.4227
   83SAPS   C33 7831   5.028   0.924  10.314 -0.0253 -0.2566  0.0829
   83SAPS   H3X 7832   5.139   0.932  10.310 -0.0843  0.9234  0.4445
   83SAPS   H3Y 7833   4.985   1.024  10.291  0.7557  0.0828  0.0680
   83SAPS   C34 7834   4.982   0.821  10.210  0.5927 -0.2674  0.0951
   83SAPS   H4X 7835   4.997   0.717  10.247  2.3374  0.3051  1.1075
   83SAPS   H4Y 7836   5.056   0.830  10.128  2.4047 -0.9676  1.5857
   83SAPS   C35 7837   4.838   0.835  10.161  0.1084  0.0741 -0.0142
   83SAPS   H5X 7838   4.836   0.939  10.122 -0.4559 -0.6427 -2.0525
   83SAPS   H5Y 7839   4.758   0.820  10.237  0.9430 -0.6884  0.7366
   83SAPS   C36 7840   4.812   0.734  10.049  0.0694  0.0963  0.5104
   83SAPS   H6X 7841   4.823   0.631  10.090  2.7354  0.2227  0.2928
   83SAPS   H6Y 7842   4.879   0.760   9.965 -0.3000  0.9694  0.4747
   83SAPS   C37 7843   4.669   0.759   9.981  0.0115  1.1337  0.2454
   83SAPS   H7X 7844   4.671   0.842   9.906 -2.1003 -0.3506 -1.6118
   83SAPS   H7Y 7845   4.606   0.797  10.064 -1.1979  1.7346 -0.8931
   83SAPS   C38 7846   4.605   0.637   9.931  0.2353  0.3495 -0.1573
   83SAPS   H8X 7847   4.498   0.632   9.964  0.5840 -0.5744  0.9374
   83SAPS   H8Y 7848   4.648   0.556   9.993 -0.2424  0.0292 -0.2366
   83SAPS   C39 7849   4.631   0.616   9.786  0.4913 -0.3373 -0.0643
   83SAPS   H9X 7850   4.722   0.663   9.743  0.4692  0.5560  0.8210
   83SAPS   H9Y 7851   4.550   0.667   9.729 -0.3376 -1.1710  0.3389
   83SAPS  C310 7852   4.630   0.471   9.742  0.4228 -0.2199  0.1361
   83SAPS  H10X 7853   4.530   0.429   9.765 -0.0777  0.3005 -1.0660
   83SAPS  H10Y 7854   4.704   0.416   9.806 -1.2814 -1.1599  1.3822
   83SAPS  C311 7855   4.663   0.461   9.595  0.4139 -0.4561 -0.2023
   83SAPS  H11X 7856   4.762   0.511   9.585 -0.1998  0.7708 -0.1643
   83SAPS  H11Y 7857   4.581   0.511   9.539 -0.8101 -0.6792  1.3450
   83SAPS  C312 7858   4.690   0.320   9.533 -0.0935  0.2929 -0.3023
   83SAPS  H12X 7859   4.594   0.271   9.559  0.3496 -1.2466 -1.4466
   83SAPS  H12Y 7860   4.764   0.260   9.589 -0.6173 -2.6730 -2.5732
   83SAPS  C313 7861   4.723   0.307   9.386  0.4547 -0.5624 -0.1574
   83SAPS  H13X 7862   4.830   0.334   9.373  0.6584 -0.7193  1.0055
   83SAPS  H13Y 7863   4.656   0.371   9.325  2.4059  2.4124  0.5946
   83SAPS  C314 7864   4.705   0.162   9.338  1.2852 -0.2328 -0.6495
   83SAPS  H14X 7865   4.596   0.146   9.321  0.8522  0.8393  0.8845
   83SAPS  H14Y 7866   4.743   0.088   9.412 -0.8596 -0.9574 -0.1986
   83SAPS  C315 7867   4.781   0.142   9.210  0.0044 -0.6296  0.2285
   83SAPS  H15X 7868   4.780   0.035   9.181 -0.6767  0.2750 -3.6964
   83SAPS  H15Y 7869   4.889   0.168   9.210 -0.0456 -0.2113 -1.8959
   83SAPS  C316 7870   4.734   0.224   9.090 -0.4534 -0.4263 -0.4630
   83SAPS  H16X 7871   4.749   0.333   9.108  1.0497 -0.0527 -3.3785
   83SAPS  H16Y 7872   4.624   0.217   9.084 -0.6788  2.2939 -0.4918
   83SAPS  C317 7873   4.807   0.188   8.960  0.3724  0.0765 -0.1841
   83SAPS  H17X 7874   4.916   0.204   8.965  0.3507  1.2967 -2.3655
   83SAPS  H17Y 7875   4.764   0.248   8.877  0.8408 -0.2692 -0.6824
   83SAPS  C318 7876   4.775   0.047   8.912 -0.1529  0.2609 -0.3888
   83SAPS  H18X 7877   4.803  -0.031   8.985  2.0209  0.5363 -0.8450
   83SAPS  H18Y 7878   4.833   0.021   8.820  1.9551  1.9429  0.3737
   83SAPS  H18Z 7879   4.668   0.041   8.884  0.0744 -1.3390 -1.0350
   84SAPS     N 7880   5.495   0.817  11.038  0.5657  0.8671  0.1567
   84SAPS   HN1 7881   5.450   0.910  11.056  0.5072  0.5504  1.7959
   84SAPS   HN2 7882   5.513   0.800  10.938  0.2326 -0.2171  0.2735
   84SAPS   HN3 7883   5.419   0.753  11.068  1.2839 -0.8804 -1.5567
   84SAPS   C12 7884   5.628   0.809  11.104 -0.9151  0.0723  0.0579
   84SAPS  H12A 7885   5.698   0.859  11.040 -1.8322 -1.2465 -2.0680
   84SAPS   C13 7886   5.625   0.879  11.236 -0.1408 -0.2222  0.3419
   84SAPS  O13A 7887   5.517   0.922  11.291  0.1831  0.1066 -0.4512
   84SAPS  O13B 7888   5.731   0.887  11.306  0.5576  0.0159  0.2189
   84SAPS   C11 7889   5.681   0.664  11.117  0.2131  0.2259 -0.2375
   84SAPS  H11A 7890   5.620   0.607  11.191  1.5874 -0.8985  0.0629
   84SAPS  H11B 7891   5.784   0.667  11.159  0.0546  0.3583  0.1440
   84SAPS     P 7892   5.769   0.480  10.953  0.3162  0.0789 -0.4415
   84SAPS   O13 7893   5.897   0.498  11.027  0.5540 -0.4481 -0.6138
   84SAPS   O14 7894   5.695   0.352  10.971 -0.4168 -0.0324  0.1480
   84SAPS   O12 7895   5.672   0.601  10.984 -0.0038 -0.5726 -0.1742
   84SAPS   O11 7896   5.814   0.499  10.799  0.0068  0.0119 -0.3610
   84SAPS    C1 7897   5.774   0.609  10.718 -0.1908  0.1067 -0.4028
   84SAPS    HA 7898   5.741   0.694  10.781 -1.2940 -0.7643  0.2310
   84SAPS    HB 7899   5.852   0.646  10.648 -1.9193  1.0172 -1.9516
   84SAPS    C2 7900   5.659   0.558  10.621 -0.2742 -0.0084  1.3688
   84SAPS    HS 7901   5.577   0.525  10.688 -3.4421  3.5675 -0.3804
   84SAPS   O21 7902   5.699   0.449  10.530 -0.1188  0.1250 -0.2506
   84SAPS   C21 7903   5.613   0.344  10.526  0.3039  0.3122 -0.0962
   84SAPS   O22 7904   5.506   0.328  10.584 -0.1579 -0.2148 -0.2116
   84SAPS   C22 7905   5.687   0.237  10.449  0.5308  0.1806 -0.0257
   84SAPS   H2R 7906   5.772   0.288  10.398  1.1104 -1.3735 -0.6845
   84SAPS   H2S 7907   5.740   0.164  10.514  1.5536  0.3185 -0.6762
   84SAPS    C3 7908   5.610   0.665  10.529 -0.1462  0.4070  0.8980
   84SAPS    HX 7909   5.699   0.682  10.464 -1.4579 -1.8796 -1.6871
   84SAPS    HY 7910   5.583   0.762  10.577 -1.8157 -0.4860  1.8450
   84SAPS   O31 7911   5.505   0.623  10.444  0.2351  0.2597  0.2204
   84SAPS   C31 7912   5.380   0.605  10.494 -0.5748  0.1654  0.7937
   84SAPS   O32 7913   5.338   0.648  10.600 -0.4976 -0.4317 -0.5281
   84SAPS   C32 7914   5.295   0.554  10.366  0.4378  0.6533  0.5069
   84SAPS   H2X 7915   5.370   0.526  10.289  1.2071  1.0400  1.1132
   84SAPS   H2Y 7916   5.237   0.641  10.328  0.5118  0.8165  0.7680
   84SAPS   C23 7917   5.600   0.153  10.353 -0.2182  0.1332  0.1725
   84SAPS   H3R 7918   5.522   0.095  10.408  2.3664 -1.8745  2.0117
   84SAPS   H3S 7919   5.662   0.073  10.307 -1.6898 -1.0774  0.1947
   84SAPS   C24 7920   5.534   0.225  10.235 -1.0179 -0.8982 -0.4440
   84SAPS   H4R 7921   5.459   0.291  10.284 -0.5540 -0.1104 -0.7939
   84SAPS   H4S 7922   5.475   0.150  10.178 -0.0856 -0.9096 -1.4081
   84SAPS   C25 7923   5.625   0.314  10.153 -0.1832 -0.1035  0.1892
   84SAPS   H5R 7924   5.668   0.399  10.206 -0.6504 -0.2212  0.7636
   84SAPS   C26 7925   5.633   0.311  10.025 -0.4120  0.6820  0.5664
   84SAPS   H6R 7926   5.695   0.383   9.969  0.5200 -1.5799 -1.5148
   84SAPS   C27 7927   5.558   0.216   9.937  0.0998  0.4740  0.1173
   84SAPS   H7R 7928   5.456   0.255   9.916 -1.6113 -1.9785  3.1114
   84SAPS   H7S 7929   5.536   0.120   9.987 -0.1134  0.8249  0.7109
   84SAPS   C28 7930   5.633   0.184   9.812 -0.4703  0.2733  0.1513
   84SAPS   H8R 7931   5.742   0.192   9.821  0.1625 -3.1380 -2.4283
   84SAPS   C29 7932   5.588   0.151   9.691 -0.0509  0.3084  0.7959
   84SAPS   H9R 7933   5.654   0.144   9.604  0.2815 -0.4950  1.1071
   84SAPS  C210 7934   5.440   0.136   9.653  0.1721  0.6598 -0.0578
   84SAPS  H10R 7935   5.402   0.221   9.593 -1.1772  0.0470 -0.1310
   84SAPS  H10S 7936   5.373   0.136   9.742 -0.8892  0.0661 -0.8222
   84SAPS  C211 7937   5.412   0.016   9.570  0.1376  0.3790  0.4297
   84SAPS  H11R 7938   5.378  -0.070   9.629  1.8816  0.0298  0.9850
   84SAPS  C212 7939   5.427   0.010   9.436 -0.5337  0.0592 -0.1800
   84SAPS  H12R 7940   5.424  -0.089   9.387 -3.9238 -1.0095  1.8428
   84SAPS  C213 7941   5.476   0.129   9.349  0.4097  0.5043 -0.0448
   84SAPS  H13R 7942   5.465   0.225   9.402 -2.5111 -1.0549  2.5497
   84SAPS  H13S 7943   5.411   0.131   9.258 -3.1642 -0.5411  2.2640
   84SAPS  C214 7944   5.620   0.106   9.307  0.4805  0.1467 -0.1377
   84SAPS  H14R 7945   5.684   0.078   9.391 -0.1671  1.7136  0.9245
   84SAPS  C215 7946   5.677   0.148   9.189 -0.8140  0.6446  1.1697
   84SAPS  H15R 7947   5.774   0.105   9.161 -1.3859  0.1561 -0.1224
   84SAPS  C216 7948   5.618   0.220   9.070 -0.3361  0.1330 -0.7312
   84SAPS  H16R 7949   5.690   0.294   9.028 -2.0521  0.2820 -3.6665
   84SAPS  H16S 7950   5.518   0.263   9.095 -1.2398 -2.5010  0.5555
   84SAPS  C217 7951   5.576   0.125   8.957  0.8058  0.6107 -0.7662
   84SAPS  H17R 7952   5.535   0.184   8.872 -0.5152 -0.1448 -0.6716
   84SAPS  H17S 7953   5.488   0.065   8.989  0.7381  0.8827 -0.4392
   84SAPS  C218 7954   5.693   0.045   8.912 -0.2884 -0.4122 -0.1775
   84SAPS  H18R 7955   5.734  -0.023   8.990  0.3569 -0.8364 -0.8819
   84SAPS  H18S 7956   5.768   0.121   8.882 -0.8173  0.9646  1.7726
   84SAPS  C219 7957   5.659  -0.042   8.794 -0.7117 -0.3023  0.4607
   84SAPS  H19R 7958   5.559  -0.077   8.825 -0.7474 -0.6388 -0.0272
   84SAPS  H19S 7959   5.732  -0.125   8.782  0.3900  0.6951  0.0515
   84SAPS  C220 7960   5.653   0.046   8.667 -0.2398  0.7727  0.1271
   84SAPS  H20R 7961   5.750   0.086   8.630  0.0088  0.5844  0.5768
   84SAPS  H20S 7962   5.576   0.126   8.671  0.0573  1.0517  0.3002
   84SAPS  H20T 7963   5.625  -0.024   8.585 -2.1561  1.2050  0.3736
   84SAPS   C33 7964   5.212   0.427  10.381  0.2421 -0.1660  0.4957
   84SAPS   H3X 7965   5.150   0.424  10.473  0.4789 -0.7735  0.6382
   84SAPS   H3Y 7966   5.282   0.341  10.370 -0.9824 -0.9298 -2.0028
   84SAPS   C34 7967   5.109   0.412  10.268  0.2158 -0.2398  0.7661
   84SAPS   H4X 7968   5.026   0.487  10.269 -0.1097 -0.5638  3.4665
   84SAPS   H4Y 7969   5.058   0.314  10.281 -1.0925 -0.0064 -1.9062
   84SAPS   C35 7970   5.163   0.425  10.124 -0.1807 -0.4353  1.0006
   84SAPS   H5X 7971   5.254   0.363  10.114  1.7063  2.3653 -0.5215
   84SAPS   H5Y 7972   5.197   0.524  10.088  2.0751 -1.4980  0.0054
   84SAPS   C36 7973   5.046   0.381  10.031  0.1843 -0.1725 -0.1178
   84SAPS   H6X 7974   4.976   0.465  10.010  0.2550  0.7645  3.0070
   84SAPS   H6Y 7975   4.985   0.296  10.068  1.1595 -1.9852 -2.3455
   84SAPS   C37 7976   5.100   0.328   9.893 -0.3548  0.0234 -0.0057
   84SAPS   H7X 7977   5.168   0.242   9.906 -1.7974 -1.1879 -0.2186
   84SAPS   H7Y 7978   5.158   0.410   9.845 -0.8041  0.7110  0.5918
   84SAPS   C38 7979   4.984   0.280   9.802  0.2639  0.0480 -0.6075
   84SAPS   H8X 7980   4.908   0.360   9.791  2.1978  2.1616  0.7372
   84SAPS   H8Y 7981   4.934   0.199   9.860  0.7532  1.5062  1.9613
   84SAPS   C39 7982   5.034   0.232   9.661  0.0356 -0.0214 -0.7146
   84SAPS   H9X 7983   4.957   0.173   9.605  0.2715 -1.3924  0.3598
   84SAPS   H9Y 7984   5.117   0.163   9.684 -0.7282 -1.3985 -1.8751
   84SAPS  C310 7985   5.077   0.346   9.563 -0.0986 -0.1791 -0.0637
   84SAPS  H10X 7986   5.163   0.402   9.605 -0.6265 -0.4358  1.4250
   84SAPS  H10Y 7987   4.999   0.425   9.557  0.2275  0.2098  0.6782
   84SAPS  C311 7988   5.110   0.294   9.429  0.8704 -0.0134 -0.0316
   84SAPS  H11X 7989   5.030   0.227   9.390  0.5005  0.5398 -0.2481
   84SAPS  H11Y 7990   5.206   0.239   9.430  1.3500  0.8276  0.9807
   84SAPS  C312 7991   5.132   0.415   9.336  0.4611  0.6258  0.2670
   84SAPS  H12X 7992   5.212   0.473   9.387  0.9416 -0.6164  0.9928
   84SAPS  H12Y 7993   5.040   0.476   9.345 -1.3865 -1.8105 -0.9192
   84SAPS  C313 7994   5.162   0.389   9.188  0.1399 -0.5810 -0.0346
   84SAPS  H13X 7995   5.113   0.297   9.150 -3.1773  1.0251 -0.0557
   84SAPS  H13Y 7996   5.271   0.369   9.191  0.4026  0.7640 -0.0055
   84SAPS  C314 7997   5.136   0.511   9.102 -0.1167 -0.0389  0.1107
   84SAPS  H14X 7998   5.027   0.530   9.105 -0.5710 -2.2788  3.7294
   84SAPS  H14Y 7999   5.170   0.500   8.996 -2.0010  0.3859 -0.5837
   84SAPS  C315 8000   5.209   0.645   9.142 -0.6361  0.0714 -0.0160
   84SAPS  H15X 8001   5.193   0.679   9.247 -1.0102 -2.9347  1.0102
   84SAPS  H15Y 8002   5.172   0.725   9.074 -0.9236  0.4633  0.5891
   84SAPS  C316 8003   5.365   0.625   9.135  0.0039  0.0343  0.6297
   84SAPS  H16X 8004   5.401   0.548   9.206 -0.7023  0.7864  1.8399
   84SAPS  H16Y 8005   5.407   0.726   9.156 -1.5600  1.1157 -1.1697
   84SAPS  C317 8006   5.417   0.587   8.992  0.6151 -0.4747 -0.7848
   84SAPS  H17X 8007   5.375   0.658   8.917  0.7289  3.1049  2.2803
   84SAPS  H17Y 8008   5.374   0.486   8.970 -2.1400 -0.0764  2.0709
   84SAPS  C318 8009   5.566   0.577   8.985  0.1217  0.4418  0.2719
   84SAPS  H18X 8010   5.615   0.673   9.015 -1.2797  0.8592  1.3535
   84SAPS  H18Y 8011   5.613   0.541   8.892 -1.3413 -0.2424 -0.2325
   84SAPS  H18Z 8012   5.591   0.505   9.066 -1.4969 -1.3941 -0.7855
   85SAPS     N 8013   2.601   2.670  11.164  0.0157 -0.5775  0.9949
   85SAPS   HN1 8014   2.576   2.720  11.251  1.1404 -1.5919  1.9339
   85SAPS   HN2 8015   2.679   2.731  11.131 -0.4206  0.4129  1.7570
   85SAPS   HN3 8016   2.529   2.681  11.090 -0.5629  0.5038  1.6990
   85SAPS   C12 8017   2.658   2.534  11.183  0.2545 -0.9065 -0.6707
   85SAPS  H12A 8018   2.730   2.540  11.263  0.3268  3.1722 -0.8507
   85SAPS   C13 8019   2.547   2.428  11.222 -0.2706  0.7921 -0.0838
   85SAPS  O13A 8020   2.426   2.448  11.203 -0.0122 -0.0397  0.4332
   85SAPS  O13B 8021   2.592   2.310  11.261  0.3768 -0.0962  0.1970
   85SAPS   C11 8022   2.731   2.495  11.056  0.1449  0.4243 -0.6911
   85SAPS  H11A 8023   2.658   2.476  10.974 -0.9875 -0.1795  0.4237
   85SAPS  H11B 8024   2.769   2.392  11.078 -1.7191  0.3231  2.7112
   85SAPS     P 8025   2.939   2.568  10.919 -0.1623 -0.7204  0.0687
   85SAPS   O13 8026   3.066   2.618  10.975  0.6896 -0.2295  0.1693
   85SAPS   O14 8027   2.936   2.429  10.876 -0.3153 -0.0154 -0.7998
   85SAPS   O12 8028   2.831   2.598  11.028  0.5774 -0.3591 -0.4877
   85SAPS   O11 8029   2.886   2.670  10.814 -0.8140  0.1979  0.4952
   85SAPS    C1 8030   2.758   2.722  10.798  0.3585 -0.4104  0.1448
   85SAPS    HA 8031   2.694   2.679  10.877  0.4713  1.2931  1.2029
   85SAPS    HB 8032   2.762   2.832  10.816 -0.7080  0.0909 -2.2484
   85SAPS    C2 8033   2.685   2.716  10.650 -0.2608 -0.9025 -0.1541
   85SAPS    HS 8034   2.576   2.714  10.670 -0.5045  1.1476 -0.9916
   85SAPS   O21 8035   2.738   2.599  10.579  0.1634  0.2678  0.1719
   85SAPS   C21 8036   2.705   2.486  10.632 -0.8022 -0.3755  0.0904
   85SAPS   O22 8037   2.634   2.475  10.728 -0.6398  0.2345 -0.5371
   85SAPS   C22 8038   2.782   2.373  10.570  0.1524 -0.0653  0.4380
   85SAPS   H2R 8039   2.891   2.394  10.580 -0.3339  1.7350  2.7630
   85SAPS   H2S 8040   2.754   2.282  10.626 -0.8960 -0.7909 -1.1801
   85SAPS    C3 8041   2.713   2.842  10.563  0.1267 -0.4134 -0.5447
   85SAPS    HX 8042   2.820   2.826  10.537 -0.0397 -0.2810 -1.3496
   85SAPS    HY 8043   2.695   2.929  10.630 -0.4791 -1.8948  1.2911
   85SAPS   O31 8044   2.634   2.834  10.439  0.1652 -0.4189  0.1055
   85SAPS   C31 8045   2.686   2.902  10.346  0.1625 -0.1309 -0.2397
   85SAPS   O32 8046   2.779   2.975  10.351 -0.9710 -0.0555  0.3625
   85SAPS   C32 8047   2.616   2.884  10.207  0.1948 -0.1952  0.1480
   85SAPS   H2X 8048   2.509   2.856  10.217 -0.2768  0.9285 -1.3334
   85SAPS   H2Y 8049   2.673   2.802  10.158 -0.2583 -0.6600  0.3879
   85SAPS   C23 8050   2.742   2.339  10.422  0.2110  0.3432 -0.4270
   85SAPS   H3R 8051   2.737   2.434  10.364 -1.9864  1.3591  1.2743
   85SAPS   H3S 8052   2.644   2.287  10.415  0.1614  0.1678  1.2780
   85SAPS   C24 8053   2.842   2.251  10.357 -1.2852  0.7189  0.6801
   85SAPS   H4R 8054   2.860   2.154  10.409 -0.6114 -0.5580 -1.7588
   85SAPS   H4S 8055   2.945   2.293  10.365 -0.7431 -0.6003  0.9128
   85SAPS   C25 8056   2.838   2.223  10.207 -0.0901 -0.2091 -0.0405
   85SAPS   H5R 8057   2.825   2.322  10.162  2.7465  0.7925  1.1061
   85SAPS   C26 8058   2.860   2.114  10.132 -0.0373  0.1554  0.4869
   85SAPS   H6R 8059   2.854   2.142  10.026 -1.7640  0.6342  0.6739
   85SAPS   C27 8060   2.902   1.984  10.182 -0.3013  0.6211 -0.4838
   85SAPS   H7R 8061   3.006   1.979  10.220 -0.3206 -0.3372 -0.5343
   85SAPS   H7S 8062   2.915   1.923  10.091 -2.7649 -0.6856 -0.0407
   85SAPS   C28 8063   2.803   1.912  10.276  0.9696 -0.0386 -0.6467
   85SAPS   H8R 8064   2.806   1.949  10.379 -0.9458  1.5607 -1.0968
   85SAPS   C29 8065   2.701   1.832  10.239 -0.5296 -0.3956  0.0990
   85SAPS   H9R 8066   2.629   1.794  10.313 -0.1501 -2.3408 -0.4639
   85SAPS  C210 8067   2.661   1.789  10.101 -0.4956  0.1248  0.2907
   85SAPS  H10R 8068   2.644   1.876  10.034 -1.0887  0.1004  0.3990
   85SAPS  H10S 8069   2.561   1.742  10.112 -0.0134 -0.7286  1.2483
   85SAPS  C211 8070   2.765   1.694  10.035 -0.4776  0.1911  0.1090
   85SAPS  H11R 8071   2.785   1.607  10.098  0.3619  0.1816 -0.1609
   85SAPS  C212 8072   2.846   1.707   9.920 -0.0069  0.4341  0.3669
   85SAPS  H12R 8073   2.915   1.629   9.885  1.3179  1.6561  0.1599
   85SAPS  C213 8074   2.850   1.823   9.828  0.1432  0.2089 -0.1543
   85SAPS  H13R 8075   2.893   1.908   9.885 -1.2922 -0.4465  2.0374
   85SAPS  H13S 8076   2.742   1.844   9.810 -0.2476 -2.5199 -1.5390
   85SAPS  C214 8077   2.915   1.809   9.693 -0.1539 -0.0697 -0.3384
   85SAPS  H14R 8078   2.927   1.707   9.653 -2.9309 -0.3803 -0.5901
   85SAPS  C215 8079   2.967   1.914   9.628  0.2289 -0.6129 -0.1202
   85SAPS  H15R 8080   3.017   1.900   9.531  0.8627  2.0329 -0.2469
   85SAPS  C216 8081   2.957   2.063   9.671  0.2564 -0.2864 -0.1674
   85SAPS  H16R 8082   3.043   2.106   9.727 -1.3603 -1.4976  3.5566
   85SAPS  H16S 8083   2.871   2.065   9.742 -0.3747 -1.1466 -0.8874
   85SAPS  C217 8084   2.910   2.156   9.561  0.9154 -0.2554 -0.0459
   85SAPS  H17R 8085   2.993   2.168   9.488  2.1612  1.3469  1.5525
   85SAPS  H17S 8086   2.901   2.254   9.612 -0.2808 -1.2486  1.7429
   85SAPS  C218 8087   2.774   2.132   9.492 -0.2619 -0.3171  0.3628
   85SAPS  H18R 8088   2.696   2.093   9.562 -0.4324 -0.3127  0.1776
   85SAPS  H18S 8089   2.790   2.061   9.409 -1.4532  0.9695 -1.0545
   85SAPS  C219 8090   2.716   2.263   9.440 -0.1087 -0.4678  0.8245
   85SAPS  H19R 8091   2.788   2.305   9.367  0.6409 -0.9348  1.2727
   85SAPS  H19S 8092   2.726   2.338   9.521 -0.2785 -0.5022  0.8778
   85SAPS  C220 8093   2.577   2.262   9.389  0.3349  0.0381  0.4658
   85SAPS  H20R 8094   2.508   2.228   9.470  1.1230 -1.0381  0.7085
   85SAPS  H20S 8095   2.566   2.204   9.295  0.4113  1.4747 -0.4466
   85SAPS  H20T 8096   2.550   2.362   9.351 -0.9443 -0.4899 -0.0707
   85SAPS   C33 8097   2.620   3.018  10.123 -0.0918 -0.1093  0.5207
   85SAPS   H3X 8098   2.715   3.075  10.131 -1.1596  1.9499 -0.7314
   85SAPS   H3Y 8099   2.547   3.090  10.167  0.1504  0.4444  0.0291
   85SAPS   C34 8100   2.586   2.985   9.971 -0.2384 -0.0456 -0.0915
   85SAPS   H4X 8101   2.491   2.925   9.970 -1.0128  1.0438 -3.1500
   85SAPS   H4Y 8102   2.672   2.921   9.944 -0.8169 -0.0009 -2.2405
   85SAPS   C35 8103   2.568   3.108   9.881  0.7995  0.6966 -0.1580
   85SAPS   H5X 8104   2.670   3.149   9.865  1.9607 -1.1167  1.8888
   85SAPS   H5Y 8105   2.503   3.176   9.938 -0.5174 -1.8030  1.5310
   85SAPS   C36 8106   2.506   3.072   9.744 -0.6244  0.2386  0.5955
   85SAPS   H6X 8107   2.397   3.054   9.754 -0.8538  1.0128 -0.3308
   85SAPS   H6Y 8108   2.558   2.979   9.713  2.7992  1.7506  1.2821
   85SAPS   C37 8109   2.513   3.182   9.645 -0.5725  0.7206  0.3502
   85SAPS   H7X 8110   2.619   3.199   9.615 -0.5774  1.8765  0.9485
   85SAPS   H7Y 8111   2.469   3.272   9.694  1.2351  0.1108  3.3627
   85SAPS   C38 8112   2.439   3.147   9.519  0.8780 -0.1006 -0.9922
   85SAPS   H8X 8113   2.332   3.141   9.550  0.5113  1.0881 -1.9502
   85SAPS   H8Y 8114   2.469   3.048   9.478  0.3808 -0.6016 -0.1700
   85SAPS   C39 8115   2.443   3.265   9.418 -0.4931  0.1048 -0.2385
   85SAPS   H9X 8116   2.545   3.310   9.424 -0.2961 -0.3574 -0.1209
   85SAPS   H9Y 8117   2.381   3.353   9.447  1.4862  0.9910  1.6639
   85SAPS  C310 8118   2.413   3.228   9.276 -0.1272 -0.1868  0.2528
   85SAPS  H10X 8119   2.372   3.322   9.233  0.7323  0.4653  0.8367
   85SAPS  H10Y 8120   2.325   3.159   9.277  0.5928 -1.1274  0.3313
   85SAPS  C311 8121   2.536   3.167   9.205 -0.5881 -0.3879 -0.2319
   85SAPS  H11X 8122   2.581   3.091   9.272 -0.3105  0.5273  0.6425
   85SAPS  H11Y 8123   2.604   3.254   9.201 -1.6610  0.6545  2.2683
   85SAPS  C312 8124   2.512   3.098   9.069 -0.4171 -0.5070  0.2183
   85SAPS  H12X 8125   2.441   3.018   9.099 -0.2993  0.2578  2.7501
   85SAPS  H12Y 8126   2.614   3.059   9.045 -0.6867 -1.1313  0.0455
   85SAPS  C313 8127   2.457   3.187   8.961 -0.3509  0.0540  0.3092
   85SAPS  H13X 8128   2.527   3.273   8.946 -0.3958  0.5388  2.5695
   85SAPS  H13Y 8129   2.357   3.227   8.986  0.4130  1.2329  1.6530
   85SAPS  C314 8130   2.443   3.105   8.834 -0.2554 -0.3675  0.2503
   85SAPS  H14X 8131   2.409   3.003   8.860 -2.0063  0.2829  0.6374
   85SAPS  H14Y 8132   2.546   3.097   8.793 -0.4956  2.2461 -1.0535
   85SAPS  C315 8133   2.340   3.167   8.741  0.0985  0.3660 -0.6666
   85SAPS  H15X 8134   2.371   3.270   8.713 -2.2345  1.7026  1.2609
   85SAPS  H15Y 8135   2.242   3.178   8.791  0.1090  1.9404 -0.9477
   85SAPS  C316 8136   2.337   3.087   8.607  0.7400  0.2956  0.0065
   85SAPS  H16X 8137   2.298   2.985   8.629 -1.9641  1.5312  1.5236
   85SAPS  H16Y 8138   2.437   3.076   8.561  0.3332 -2.1284 -0.4732
   85SAPS  C317 8139   2.252   3.152   8.500 -0.5624  0.3467 -0.1684
   85SAPS  H17X 8140   2.284   3.109   8.402 -0.2840 -0.1178  0.1212
   85SAPS  H17Y 8141   2.261   3.262   8.497 -1.4609  0.4360  0.0276
   85SAPS  C318 8142   2.102   3.117   8.503  0.2647 -0.5874 -0.0797
   85SAPS  H18X 8143   2.042   3.182   8.570 -1.9474 -0.6226 -1.8939
   85SAPS  H18Y 8144   2.089   3.008   8.521  4.5414 -1.5128 -1.6080
   85SAPS  H18Z 8145   2.059   3.146   8.405 -1.1538  1.6472  1.1180
   86SAPS     N 8146   5.088   3.538  10.886  0.1798  0.2900 -0.1363
   86SAPS   HN1 8147   5.122   3.610  10.952 -1.3033  0.5971  0.3271
   86SAPS   HN2 8148   5.167   3.472  10.871 -1.3181 -1.9434  1.2299
   86SAPS   HN3 8149   5.075   3.581  10.792 -3.9179  1.4573  0.7766
   86SAPS   C12 8150   4.963   3.459  10.934  0.0216  0.5019 -0.4506
   86SAPS  H12A 8151   4.981   3.429  11.036 -0.9722 -2.1997 -0.9677
   86SAPS   C13 8152   4.816   3.519  10.946 -0.7185  0.0964 -0.0030
   86SAPS  O13A 8153   4.813   3.645  10.939  0.0942 -0.1317  0.2145
   86SAPS  O13B 8154   4.719   3.446  10.978 -0.0604  0.3870  0.2466
   86SAPS   C11 8155   4.951   3.327  10.860  0.0349  1.0467 -0.2011
   86SAPS  H11A 8156   4.921   3.347  10.755 -1.2410 -0.3340 -0.1287
   86SAPS  H11B 8157   4.864   3.270  10.897 -1.8679  3.0850 -1.2965
   86SAPS     P 8158   5.063   3.107  10.808  0.1673  0.9526 -0.1889
   86SAPS   O13 8159   5.182   3.026  10.851 -0.8002  0.0887  0.5462
   86SAPS   O14 8160   4.931   3.037  10.823 -0.2023  0.0063 -0.0159
   86SAPS   O12 8161   5.073   3.251  10.873 -0.4639  0.0679 -0.1712
   86SAPS   O11 8162   5.079   3.156  10.662 -0.4272 -0.0664 -0.5756
   86SAPS    C1 8163   4.981   3.131  10.556 -0.6192  0.2146 -0.5224
   86SAPS    HA 8164   4.926   3.036  10.568  1.8407 -1.5729 -2.4068
   86SAPS    HB 8165   4.910   3.216  10.544 -0.2772  0.8822  1.7426
   86SAPS    C2 8166   5.047   3.121  10.413 -0.5863 -0.2361 -0.3520
   86SAPS    HS 8167   5.116   3.208  10.409  0.4064 -0.7230  3.1053
   86SAPS   O21 8168   4.938   3.126  10.310 -0.9846  0.2486  0.1589
   86SAPS   C21 8169   4.982   3.184  10.203 -0.2057  0.1960  0.3477
   86SAPS   O22 8170   5.090   3.241  10.184  0.1684  0.8143  0.3104
   86SAPS   C22 8171   4.869   3.184  10.103 -0.5924  0.4005  0.3957
   86SAPS   H2R 8172   4.826   3.081  10.095  2.4954 -0.8693 -1.8330
   86SAPS   H2S 8173   4.785   3.253  10.128 -1.7250 -0.1864 -1.5611
   86SAPS    C3 8174   5.131   2.991  10.404 -0.3712  0.0086 -0.1588
   86SAPS    HX 8175   5.065   2.903  10.417  0.5327 -0.6598  0.0223
   86SAPS    HY 8176   5.196   2.967  10.491 -0.2532 -1.7282 -0.6871
   86SAPS   O31 8177   5.197   2.974  10.278  0.1354 -0.8743  0.5169
   86SAPS   C31 8178   5.322   3.015  10.283 -0.9959 -0.2207 -0.5015
   86SAPS   O32 8179   5.383   3.079  10.376  0.2457 -0.3756  0.0208
   86SAPS   C32 8180   5.382   2.990  10.143  0.2831  0.2979 -0.3035
   86SAPS   H2X 8181   5.298   2.992  10.070  0.5846  1.2445 -0.6337
   86SAPS   H2Y 8182   5.427   2.889  10.153  0.9414  0.4920 -1.1512
   86SAPS   C23 8183   4.927   3.195   9.958 -0.0463 -0.1506  0.2436
   86SAPS   H3R 8184   5.008   3.121   9.947 -1.3603 -1.5144 -0.6273
   86SAPS   H3S 8185   4.977   3.293   9.944 -2.8437  1.5604  1.3328
   86SAPS   C24 8186   4.823   3.183   9.844 -0.2147  0.5844  0.9093
   86SAPS   H4R 8187   4.760   3.096   9.873  1.1418 -0.5899  0.4231
   86SAPS   H4S 8188   4.879   3.154   9.752  1.2709  0.5665  1.7844
   86SAPS   C25 8189   4.729   3.298   9.828 -0.1455  0.2504 -0.4785
   86SAPS   H5R 8190   4.727   3.365   9.915 -4.3938  0.7589 -0.7613
   86SAPS   C26 8191   4.637   3.317   9.733 -0.9508 -0.4778  0.7696
   86SAPS   H6R 8192   4.589   3.415   9.732  0.7393  0.4221  1.7924
   86SAPS   C27 8193   4.603   3.223   9.618  0.2900 -0.2410  0.2030
   86SAPS   H7R 8194   4.494   3.199   9.622  0.1008  0.6937  1.1027
   86SAPS   H7S 8195   4.649   3.123   9.627  0.8758  0.0465  0.4620
   86SAPS   C28 8196   4.623   3.313   9.498 -0.8218 -0.7879 -0.2901
   86SAPS   H8R 8197   4.717   3.370   9.500 -0.7948 -0.8539  1.4601
   86SAPS   C29 8198   4.549   3.309   9.390  0.4361  0.1412 -0.3350
   86SAPS   H9R 8199   4.567   3.383   9.311 -1.5352  0.9145 -0.1247
   86SAPS  C210 8200   4.426   3.220   9.371 -0.1100 -0.3404  0.4977
   86SAPS  H10R 8201   4.412   3.137   9.443 -0.3065 -0.2776  0.5342
   86SAPS  H10S 8202   4.451   3.160   9.281  0.8519 -0.5585  0.8958
   86SAPS  C211 8203   4.297   3.294   9.342 -0.5148 -0.1453 -0.3307
   86SAPS  H11R 8204   4.256   3.329   9.438  0.8519 -1.4613  0.8090
   86SAPS  C212 8205   4.246   3.324   9.215 -0.2753 -0.5561  0.3688
   86SAPS  H12R 8206   4.160   3.393   9.215  0.1270  0.0481  2.7476
   86SAPS  C213 8207   4.319   3.282   9.090  0.8509  0.0191  0.3726
   86SAPS  H13R 8208   4.344   3.174   9.089 -0.7649 -0.3858 -0.4257
   86SAPS  H13S 8209   4.410   3.346   9.086  1.7981 -1.2685  0.6355
   86SAPS  C214 8210   4.238   3.320   8.964  0.0004  0.6641 -0.4550
   86SAPS  H14R 8211   4.157   3.393   8.979  0.9363  1.9857 -1.5240
   86SAPS  C215 8212   4.270   3.286   8.831  0.2831  0.0816 -1.0187
   86SAPS  H15R 8213   4.219   3.337   8.748  0.8290 -1.6824 -2.4817
   86SAPS  C216 8214   4.374   3.188   8.787  0.2225  0.0764  0.1760
   86SAPS  H16R 8215   4.343   3.164   8.683 -2.0494  2.3836  0.2318
   86SAPS  H16S 8216   4.380   3.097   8.851 -0.0026  1.7637  2.7818
   86SAPS  C217 8217   4.522   3.234   8.768 -0.4321 -0.4263 -0.1754
   86SAPS  H17R 8218   4.535   3.295   8.860 -1.1939 -1.7184  0.8148
   86SAPS  H17S 8219   4.521   3.306   8.683  1.6801  0.8606  0.7987
   86SAPS  C218 8220   4.632   3.134   8.748 -0.5984  0.5325 -0.1796
   86SAPS  H18R 8221   4.608   3.066   8.663 -2.3078 -1.0325  1.4884
   86SAPS  H18S 8222   4.636   3.083   8.847  0.7622  2.5523  0.8695
   86SAPS  C219 8223   4.771   3.194   8.720 -0.2510  0.2033  0.8661
   86SAPS  H19R 8224   4.766   3.304   8.737 -2.6561  0.5026 -1.1685
   86SAPS  H19S 8225   4.799   3.172   8.614 -1.2781 -1.5211  0.9217
   86SAPS  C220 8226   4.886   3.143   8.804  1.0744  0.3323  0.3099
   86SAPS  H20R 8227   4.990   3.160   8.768  1.3684  1.0753  1.4394
   86SAPS  H20S 8228   4.887   3.032   8.798  2.2995  0.3894 -1.1821
   86SAPS  H20T 8229   4.877   3.183   8.907 -0.2085  4.0345 -1.0955
   86SAPS   C33 8230   5.493   3.093  10.109  0.1543 -0.1523 -0.4222
   86SAPS   H3X 8231   5.577   3.078  10.181 -0.9965  2.7997  1.7335
   86SAPS   H3Y 8232   5.466   3.199  10.131  1.9963 -0.1131  2.2372
   86SAPS   C34 8233   5.549   3.083   9.972 -0.5915  0.2015  0.1221
   86SAPS   H4X 8234   5.472   3.106   9.895  0.3248  0.5389 -0.7121
   86SAPS   H4Y 8235   5.588   2.984   9.942  0.8962  0.5997  0.6799
   86SAPS   C35 8236   5.661   3.179   9.941 -0.2858  0.0066  0.2363
   86SAPS   H5X 8237   5.741   3.168  10.018 -1.0924  0.4719  1.1556
   86SAPS   H5Y 8238   5.633   3.286   9.948  0.4717  0.2713 -0.5391
   86SAPS   C36 8239   5.718   3.172   9.799  0.0183  0.0647 -0.6642
   86SAPS   H6X 8240   5.637   3.200   9.728 -1.2871  0.4217  0.9268
   86SAPS   H6Y 8241   5.756   3.069   9.778  0.4126  0.3637 -1.4694
   86SAPS   C37 8242   5.840   3.267   9.778 -0.1212  0.6902  0.2756
   86SAPS   H7X 8243   5.920   3.260   9.855  0.9920  0.7183 -0.8529
   86SAPS   H7Y 8244   5.805   3.372   9.791 -0.8228  0.4664  0.2575
   86SAPS   C38 8245   5.891   3.269   9.633 -0.3607 -0.3338  0.4989
   86SAPS   H8X 8246   5.923   3.168   9.600 -0.1651 -0.6814  1.6904
   86SAPS   H8Y 8247   5.984   3.329   9.620 -2.1435  2.1484 -1.8247
   86SAPS   C39 8248   5.782   3.310   9.531  0.0040  0.8155  0.0267
   86SAPS   H9X 8249   5.722   3.398   9.564 -0.4412 -0.0219  1.5071
   86SAPS   H9Y 8250   5.711   3.224   9.526  0.7737  0.0750  1.3798
   86SAPS  C310 8251   5.846   3.344   9.391 -0.1002 -0.5426  0.5409
   86SAPS  H10X 8252   5.918   3.266   9.360  0.3258  0.1324 -0.1796
   86SAPS  H10Y 8253   5.911   3.433   9.403  0.1217 -0.4453 -1.2361
   86SAPS  C311 8254   5.741   3.370   9.284 -0.2590  0.1800 -0.0419
   86SAPS  H11X 8255   5.702   3.472   9.302  0.6036  0.4350  0.4091
   86SAPS  H11Y 8256   5.657   3.298   9.296  0.1780 -0.2253  0.6782
   86SAPS  C312 8257   5.810   3.362   9.148  0.7074  0.4853 -0.0576
   86SAPS  H12X 8258   5.855   3.261   9.134 -1.4866 -0.7640  1.3849
   86SAPS  H12Y 8259   5.886   3.443   9.142 -0.4229  1.4863 -1.2544
   86SAPS  C313 8260   5.713   3.379   9.027 -0.4716 -0.0435 -0.3836
   86SAPS  H13X 8261   5.663   3.281   9.007 -3.3719  1.1248  0.6693
   86SAPS  H13Y 8262   5.771   3.407   8.936 -0.3139 -1.4657 -0.7432
   86SAPS  C314 8263   5.600   3.478   9.053  0.6451 -0.5940 -0.2455
   86SAPS  H14X 8264   5.630   3.583   9.074 -1.1764  0.0919 -0.8658
   86SAPS  H14Y 8265   5.538   3.446   9.140  3.6463 -0.5172  2.0572
   86SAPS  C315 8266   5.508   3.475   8.928  0.2637 -0.4723 -0.1035
   86SAPS  H15X 8267   5.472   3.375   8.895 -1.7140  0.3712 -0.6792
   86SAPS  H15Y 8268   5.560   3.532   8.847 -0.5084  0.6578  0.1633
   86SAPS  C316 8269   5.387   3.572   8.947  0.1755  0.1410 -0.0119
   86SAPS  H16X 8270   5.403   3.648   9.027 -0.0750 -0.0718  0.2401
   86SAPS  H16Y 8271   5.293   3.524   8.980 -1.1501  3.7061  2.0279
   86SAPS  C317 8272   5.354   3.644   8.821 -1.0147  0.5174 -0.0968
   86SAPS  H17X 8273   5.443   3.703   8.787 -2.0532  0.4579 -3.3155
   86SAPS  H17Y 8274   5.270   3.712   8.847  1.6203  2.6808  3.7913
   86SAPS  C318 8275   5.324   3.551   8.692 -0.0066  0.2744  0.9424
   86SAPS  H18X 8276   5.246   3.476   8.713 -0.2239 -0.1953 -1.3086
   86SAPS  H18Y 8277   5.409   3.487   8.660  1.4932  1.4311  2.3939
   86SAPS  H18Z 8278   5.284   3.609   8.606  1.0582 -0.5023 -0.1163
   87SAPS     N 8279   4.711   4.424  10.967 -0.6034 -0.3233 -0.3235
   87SAPS   HN1 8280   4.645   4.464  10.898 -0.7848  0.6266  0.3749
   87SAPS   HN2 8281   4.786   4.381  10.909 -1.0262 -2.2394  0.4601
   87SAPS   HN3 8282   4.659   4.348  11.015 -0.4637 -0.3707 -0.2457
   87SAPS   C12 8283   4.756   4.536  11.052  0.1567 -0.5146  0.3434
   87SAPS  H12A 8284   4.670   4.576  11.103  1.8915  0.6934  2.5195
   87SAPS   C13 8285   4.868   4.508  11.158  0.3927 -0.2115 -0.4055
   87SAPS  O13A 8286   4.918   4.395  11.168 -0.4785  0.4322 -0.1158
   87SAPS  O13B 8287   4.905   4.600  11.237  0.2689  0.2757  0.1139
   87SAPS   C11 8288   4.797   4.650  10.960 -0.4575 -0.3587 -0.6684
   87SAPS  H11A 8289   4.884   4.608  10.904 -0.9610  0.5703 -2.2118
   87SAPS  H11B 8290   4.832   4.732  11.025 -1.7590  0.2589 -0.7310
   87SAPS     P 8291   4.656   4.848  10.865  0.2229  0.1020 -0.2359
   87SAPS   O13 8292   4.557   4.871  10.976 -0.1193 -0.1329 -0.4327
   87SAPS   O14 8293   4.786   4.923  10.867  0.5127  0.0072  0.5466
   87SAPS   O12 8294   4.697   4.699  10.873 -0.4502  0.1965  0.1683
   87SAPS   O11 8295   4.578   4.872  10.731 -0.2640 -0.5864  0.3270
   87SAPS    C1 8296   4.450   4.812  10.711 -0.1602 -0.2367 -0.0894
   87SAPS    HA 8297   4.400   4.788  10.807  0.1107  0.6550  0.2830
   87SAPS    HB 8298   4.383   4.879  10.653 -1.0186 -0.7748  0.2647
   87SAPS    C2 8299   4.457   4.679  10.628  0.5711 -0.0658 -0.1611
   87SAPS    HS 8300   4.537   4.620  10.678 -0.0953 -0.9610 -0.1463
   87SAPS   O21 8301   4.482   4.711  10.489 -0.1272 -0.3367 -0.8439
   87SAPS   C21 8302   4.546   4.624  10.415 -0.6395  0.2385 -0.2899
   87SAPS   O22 8303   4.582   4.512  10.452 -0.0797 -0.1262 -0.1778
   87SAPS   C22 8304   4.543   4.672  10.268  0.7857  0.7554  0.7716
   87SAPS   H2R 8305   4.448   4.628  10.230 -0.7012  2.7410  1.9725
   87SAPS   H2S 8306   4.534   4.783  10.266  1.1061  0.7799 -1.3561
   87SAPS    C3 8307   4.322   4.595  10.628 -0.1775  0.1344  0.0873
   87SAPS    HX 8308   4.288   4.575  10.732  0.0246 -0.7283  0.0001
   87SAPS    HY 8309   4.348   4.499  10.579 -0.0532 -0.2633  0.9129
   87SAPS   O31 8310   4.214   4.667  10.569 -0.2171  0.2637 -0.4474
   87SAPS   C31 8311   4.199   4.657  10.436  0.0504  0.9338 -0.3797
   87SAPS   O32 8312   4.254   4.568  10.368  0.1140  0.3203 -0.4372
   87SAPS   C32 8313   4.110   4.769  10.379 -0.2964  0.3733 -0.5572
   87SAPS   H2X 8314   4.070   4.817  10.471  2.7217  1.5207  0.2747
   87SAPS   H2Y 8315   4.024   4.726  10.322 -0.5866  0.3228 -0.0806
   87SAPS   C23 8316   4.650   4.621  10.176  0.6675 -0.1487 -0.1585
   87SAPS   H3R 8317   4.651   4.510  10.176  0.2814 -0.1530  0.0029
   87SAPS   H3S 8318   4.746   4.657  10.218  0.2715 -0.8046  1.3653
   87SAPS   C24 8319   4.636   4.672  10.030 -0.9158 -0.0641 -0.0712
   87SAPS   H4R 8320   4.724   4.648   9.967 -1.8326 -0.8017 -1.0928
   87SAPS   H4S 8321   4.621   4.782  10.035  0.1910  0.0754  0.8010
   87SAPS   C25 8322   4.514   4.607   9.974  0.2318  0.3411  0.3443
   87SAPS   H5R 8323   4.415   4.648   9.997  0.3353  0.3639  0.7447
   87SAPS   C26 8324   4.509   4.506   9.884 -0.1584 -0.8944  0.6162
   87SAPS   H6R 8325   4.411   4.465   9.858  0.3453 -1.1280 -1.0013
   87SAPS   C27 8326   4.621   4.434   9.812  0.0434 -0.0253  0.3801
   87SAPS   H7R 8327   4.615   4.324   9.823  1.3751 -0.1784 -0.2259
   87SAPS   H7S 8328   4.717   4.471   9.854 -0.4667  0.1225  1.4385
   87SAPS   C28 8329   4.602   4.468   9.662  0.2677  0.0897  0.3611
   87SAPS   H8R 8330   4.577   4.569   9.627  0.9618 -0.0303 -0.5106
   87SAPS   C29 8331   4.621   4.382   9.561  0.2150  1.1758  0.0554
   87SAPS   H9R 8332   4.592   4.411   9.459  2.4971  0.0923 -0.9815
   87SAPS  C210 8333   4.662   4.238   9.565  0.2591  0.5785 -0.1556
   87SAPS  H10R 8334   4.704   4.217   9.666 -0.7734  1.2099  0.4230
   87SAPS  H10S 8335   4.742   4.223   9.490 -1.4092  2.3829 -2.4731
   87SAPS  C211 8336   4.558   4.139   9.528 -0.6709  0.1127  0.1707
   87SAPS  H11R 8337   4.498   4.113   9.616  0.2517  1.5000  1.2461
   87SAPS  C212 8338   4.537   4.097   9.401 -0.4449 -0.0755 -0.2379
   87SAPS  H12R 8339   4.455   4.025   9.388 -0.1986 -0.1270 -1.6205
   87SAPS  C213 8340   4.612   4.145   9.283  0.4589 -1.2782  0.3094
   87SAPS  H13R 8341   4.658   4.243   9.306 -1.0857 -0.5396  0.3425
   87SAPS  H13S 8342   4.547   4.174   9.197  1.6948  1.9891  0.3352
   87SAPS  C214 8343   4.720   4.053   9.232  0.0395  0.2785 -0.6851
   87SAPS  H14R 8344   4.735   3.976   9.309  0.4138  3.3339  2.5112
   87SAPS  C215 8345   4.804   4.076   9.129  0.1820 -0.0862 -0.4981
   87SAPS  H15R 8346   4.885   4.006   9.101  0.0658 -1.1904  1.6741
   87SAPS  C216 8347   4.795   4.204   9.053  0.9563  0.6802  0.1231
   87SAPS  H16R 8348   4.894   4.216   9.005  1.3275  1.3406  1.0334
   87SAPS  H16S 8349   4.777   4.291   9.119 -0.7038  1.2726 -1.0316
   87SAPS  C217 8350   4.692   4.209   8.941 -0.2421  1.0066 -0.0186
   87SAPS  H17R 8351   4.590   4.187   8.978 -1.4445  1.5530 -2.7261
   87SAPS  H17S 8352   4.710   4.125   8.869 -0.8384  1.8999 -1.2519
   87SAPS  C218 8353   4.692   4.346   8.863 -0.2756  0.4031 -0.4066
   87SAPS  H18R 8354   4.795   4.386   8.865 -0.0791 -0.0664  2.3907
   87SAPS  H18S 8355   4.634   4.417   8.927  0.4271 -0.3412  1.1035
   87SAPS  C219 8356   4.642   4.332   8.722 -0.0773 -0.1490  0.1918
   87SAPS  H19R 8357   4.533   4.315   8.735  0.2791 -1.8486  1.2381
   87SAPS  H19S 8358   4.685   4.253   8.656  1.3555  2.3963 -2.1362
   87SAPS  C220 8359   4.640   4.463   8.642  0.2723  0.0853  0.5054
   87SAPS  H20R 8360   4.726   4.464   8.571  1.0770  1.8745  1.4438
   87SAPS  H20S 8361   4.657   4.551   8.707  0.3882  0.6025 -0.2111
   87SAPS  H20T 8362   4.548   4.488   8.585 -0.4047 -2.4285  0.3691
   87SAPS   C33 8363   4.183   4.877  10.297 -0.1877 -1.2879  0.0494
   87SAPS   H3X 8364   4.267   4.904  10.364  0.1157 -1.0955 -0.4069
   87SAPS   H3Y 8365   4.111   4.962  10.301 -0.4460 -1.4704 -0.6823
   87SAPS   C34 8366   4.217   4.858  10.146 -0.6186  0.6348 -0.1109
   87SAPS   H4X 8367   4.124   4.827  10.094  0.1992 -3.1011  0.3675
   87SAPS   H4Y 8368   4.287   4.772  10.141 -1.1043  0.2011  0.4783
   87SAPS   C35 8369   4.275   4.984  10.090 -0.1094  0.5569 -0.5212
   87SAPS   H5X 8370   4.350   5.017  10.165  1.9898 -0.5441 -2.0152
   87SAPS   H5Y 8371   4.206   5.070  10.082  2.4005  2.6435 -1.2568
   87SAPS   C36 8372   4.335   4.958   9.955 -0.4475  0.4351 -0.2668
   87SAPS   H6X 8373   4.396   4.865   9.951 -2.1101 -0.8303  1.8649
   87SAPS   H6Y 8374   4.396   5.047   9.930 -0.5429  0.8886  1.0680
   87SAPS   C37 8375   4.229   4.955   9.851  0.5371  0.5643 -0.2435
   87SAPS   H7X 8376   4.147   5.030   9.858  0.1481  0.1762 -0.6145
   87SAPS   H7Y 8377   4.181   4.856   9.868  1.1783  0.2363 -0.3289
   87SAPS   C38 8378   4.295   4.970   9.713 -0.7770 -0.3065  0.2183
   87SAPS   H8X 8379   4.369   4.889   9.696  2.6039  2.5743  0.0849
   87SAPS   H8Y 8380   4.355   5.062   9.702  1.9065 -1.5292  3.1516
   87SAPS   C39 8381   4.196   4.969   9.601  0.6646  0.2916  0.2250
   87SAPS   H9X 8382   4.115   5.042   9.622  0.7459  0.9375 -1.5264
   87SAPS   H9Y 8383   4.152   4.868   9.612  1.9559 -0.2517  0.5611
   87SAPS  C310 8384   4.247   4.994   9.460 -0.2119 -0.0330 -0.0944
   87SAPS  H10X 8385   4.336   4.929   9.445  0.2077  0.8095 -1.4469
   87SAPS  H10Y 8386   4.282   5.099   9.452 -1.0069  0.3650  1.2533
   87SAPS  C311 8387   4.133   4.974   9.362  0.3187  0.4452  0.9176
   87SAPS  H11X 8388   4.058   5.054   9.379 -0.2611  0.1193 -0.0126
   87SAPS  H11Y 8389   4.074   4.883   9.383 -1.0569  0.8989 -0.7289
   87SAPS  C312 8390   4.180   4.975   9.210  0.0871 -0.6078 -0.1514
   87SAPS  H12X 8391   4.256   4.895   9.195  0.1560 -0.2086 -2.3241
   87SAPS  H12Y 8392   4.222   5.074   9.182 -0.0092  0.0175  1.7349
   87SAPS  C313 8393   4.065   4.940   9.119 -0.0173 -0.2203 -0.0662
   87SAPS  H13X 8394   3.993   5.024   9.112  0.3338  0.0349 -0.6184
   87SAPS  H13Y 8395   4.007   4.860   9.171  1.4087 -0.0092  1.9766
   87SAPS  C314 8396   4.097   4.895   8.975  0.3175 -0.1865 -0.0165
   87SAPS  H14X 8397   4.183   4.826   8.984 -0.2976 -0.9966 -0.2057
   87SAPS  H14Y 8398   4.121   4.988   8.918 -0.3179 -0.1615 -0.2574
   87SAPS  C315 8399   3.976   4.825   8.905 -0.4633 -1.1690 -0.5005
   87SAPS  H15X 8400   3.952   4.737   8.968 -0.9083 -1.4174 -1.0097
   87SAPS  H15Y 8401   3.997   4.791   8.801 -1.2355  0.7936 -1.3677
   87SAPS  C316 8402   3.849   4.919   8.891  0.4929 -0.1285 -0.0717
   87SAPS  H16X 8403   3.866   4.983   8.801  1.1739  0.1069  0.2140
   87SAPS  H16Y 8404   3.842   4.977   8.985 -0.7334 -0.1237 -0.1567
   87SAPS  C317 8405   3.714   4.850   8.872  0.2683 -0.1605 -0.2883
   87SAPS  H17X 8406   3.713   4.748   8.918  2.1116 -0.4533 -0.8080
   87SAPS  H17Y 8407   3.710   4.831   8.762  0.3388 -2.8341  0.0844
   87SAPS  C318 8408   3.592   4.934   8.908  0.0043 -0.1064  0.3138
   87SAPS  H18X 8409   3.602   5.033   8.860 -1.3450  0.8070  1.8353
   87SAPS  H18Y 8410   3.576   4.951   9.016  1.8592 -0.6849  0.7158
   87SAPS  H18Z 8411   3.504   4.883   8.862  1.5516 -0.5283 -2.4056
   88SAPS     N 8412   2.239   0.777  10.855  1.1283  0.6595  0.1841
   88SAPS   HN1 8413   2.202   0.829  10.773  0.1504  1.5753  1.1755
   88SAPS   HN2 8414   2.335   0.815  10.867  1.9153 -1.5328  1.5331
   88SAPS   HN3 8415   2.230   0.680  10.821  0.1282  0.1402  1.8050
   88SAPS   C12 8416   2.148   0.809  10.966  0.0062  0.2630  0.5217
   88SAPS  H12A 8417   2.054   0.757  10.953  0.1768 -0.2194  1.1636
   88SAPS   C13 8418   2.213   0.759  11.093  0.2144 -0.1909 -0.0119
   88SAPS  O13A 8419   2.336   0.742  11.117  0.6352  0.3104  0.5607
   88SAPS  O13B 8420   2.130   0.754  11.187  0.2688  0.8684 -0.1252
   88SAPS   C11 8421   2.133   0.967  10.968  0.7094 -0.2710 -0.2810
   88SAPS  H11A 8422   2.236   1.005  10.981  1.4720 -1.7971 -1.5229
   88SAPS  H11B 8423   2.071   0.982  11.059  0.2990 -1.6054 -0.3211
   88SAPS     P 8424   1.908   1.026  10.850  0.1149  0.5965 -0.1233
   88SAPS   O13 8425   1.840   0.892  10.874 -0.4767 -0.8673  0.4618
   88SAPS   O14 8426   1.881   1.137  10.938 -0.0742  0.5180 -0.2578
   88SAPS   O12 8427   2.066   1.011  10.843  0.1627  0.5716  0.2382
   88SAPS   O11 8428   1.880   1.067  10.702 -0.0928 -0.0558  0.2880
   88SAPS    C1 8429   1.759   1.129  10.652 -0.8910  0.1063  0.1682
   88SAPS    HA 8430   1.684   1.048  10.642  0.5630 -1.3283  0.2889
   88SAPS    HB 8431   1.721   1.207  10.721 -0.9744  1.6798 -1.5768
   88SAPS    C2 8432   1.781   1.214  10.523  0.1227 -0.5415 -0.5687
   88SAPS    HS 8433   1.851   1.293  10.556 -2.0938  1.3320 -0.0570
   88SAPS   O21 8434   1.652   1.263  10.471  0.5514 -0.2916  0.6292
   88SAPS   C21 8435   1.612   1.374  10.517  0.1515 -0.2336  0.0788
   88SAPS   O22 8436   1.669   1.435  10.610  0.5218  0.0930  0.1463
   88SAPS   C22 8437   1.475   1.412  10.456  0.3301  0.1204 -0.0303
   88SAPS   H2R 8438   1.489   1.468  10.362 -1.7654 -0.4763 -0.7464
   88SAPS   H2S 8439   1.425   1.315  10.432  1.3206 -0.6138  0.7470
   88SAPS    C3 8440   1.852   1.119  10.422  0.4579  0.1607  0.2656
   88SAPS    HX 8441   1.777   1.038  10.413  0.4413  0.0191  1.5480
   88SAPS    HY 8442   1.945   1.084  10.473  1.7100  2.4025 -0.3313
   88SAPS   O31 8443   1.884   1.184  10.295 -0.9782 -0.7013  0.2374
   88SAPS   C31 8444   1.998   1.142  10.234 -0.1788  0.1094 -0.0467
   88SAPS   O32 8445   2.049   1.034  10.261  0.4492  0.6216  0.4582
   88SAPS   C32 8446   2.035   1.223  10.111 -0.2273  0.1908  0.2889
   88SAPS   H2X 8447   2.126   1.279  10.142  1.4652 -2.1511 -0.2030
   88SAPS   H2Y 8448   1.955   1.293  10.077 -0.0359  0.0580 -0.4434
   88SAPS   C23 8449   1.388   1.489  10.563 -0.1050 -0.3660 -0.0667
   88SAPS   H3R 8450   1.445   1.578  10.597 -2.2529  0.3809  1.8149
   88SAPS   H3S 8451   1.370   1.424  10.652  0.3400 -0.8938 -0.3531
   88SAPS   C24 8452   1.256   1.542  10.496 -0.1485  0.1896  0.2229
   88SAPS   H4R 8453   1.288   1.582  10.397 -0.5600 -0.2889 -0.1020
   88SAPS   H4S 8454   1.215   1.624  10.559 -1.5179  0.3856 -0.8797
   88SAPS   C25 8455   1.142   1.443  10.472 -0.1438 -0.7047 -0.0601
   88SAPS   H5R 8456   1.121   1.398  10.570  3.6707 -1.0747  0.7325
   88SAPS   C26 8457   1.073   1.417  10.358  0.6401 -1.2583 -0.0191
   88SAPS   H6R 8458   0.993   1.342  10.357 -0.3665 -0.2253 -1.0418
   88SAPS   C27 8459   1.095   1.481  10.219  0.5711 -0.3888  0.0532
   88SAPS   H7R 8460   1.113   1.398  10.148 -1.9327 -1.2695  0.3525
   88SAPS   H7S 8461   1.188   1.542  10.220  1.4177 -1.5868 -1.5048
   88SAPS   C28 8462   0.997   1.579  10.156 -0.7690 -0.6560  0.8353
   88SAPS   H8R 8463   0.912   1.620  10.213 -1.7700  0.5890 -1.4142
   88SAPS   C29 8464   1.005   1.604  10.021 -0.5838 -0.7935 -0.6174
   88SAPS   H9R 8465   0.938   1.684   9.987  1.1968  2.7443  3.1797
   88SAPS  C210 8466   1.105   1.555   9.917  0.1781  0.0346 -0.9217
   88SAPS  H10R 8467   1.087   1.449   9.889  1.9770 -0.3947 -0.5449
   88SAPS  H10S 8468   1.204   1.566   9.965  0.2224 -1.7684 -0.5411
   88SAPS  C211 8469   1.113   1.626   9.795 -0.1399 -0.4342  0.2923
   88SAPS  H11R 8470   1.132   1.733   9.811  1.7533 -0.5714 -0.7585
   88SAPS  C212 8471   1.089   1.591   9.662  0.2735  0.4911  0.9591
   88SAPS  H12R 8472   1.094   1.665   9.582  2.3781 -2.0515 -1.4692
   88SAPS  C213 8473   1.042   1.459   9.622 -0.3439  0.3846  0.5133
   88SAPS  H13R 8474   0.957   1.426   9.686 -1.0111  0.5104 -0.3032
   88SAPS  H13S 8475   1.119   1.384   9.653 -0.6028 -0.2362 -0.3322
   88SAPS  C214 8476   1.009   1.430   9.478  0.3966 -0.3047 -0.1378
   88SAPS  H14R 8477   0.914   1.375   9.483  1.0003 -1.2708  3.0907
   88SAPS  C215 8478   1.065   1.468   9.359 -0.4336 -0.4980  0.3502
   88SAPS  H15R 8479   1.015   1.439   9.265  0.8641 -0.7848 -0.2664
   88SAPS  C216 8480   1.186   1.555   9.348  0.1987 -0.2236 -0.3173
   88SAPS  H16R 8481   1.265   1.518   9.279  1.1070 -0.0416  0.5862
   88SAPS  H16S 8482   1.245   1.549   9.442  0.2304  0.7719 -0.2648
   88SAPS  C217 8483   1.140   1.704   9.333 -0.5397  0.2147  0.1963
   88SAPS  H17R 8484   1.212   1.777   9.376  1.0484 -0.5904 -1.0056
   88SAPS  H17S 8485   1.046   1.725   9.389  0.3077  0.7157  1.4945
   88SAPS  C218 8486   1.112   1.736   9.186 -0.0782  0.0969 -1.0335
   88SAPS  H18R 8487   1.074   1.841   9.187  0.0425  0.1587  0.6260
   88SAPS  H18S 8488   1.030   1.676   9.140  0.6245 -0.0562 -2.1222
   88SAPS  C219 8489   1.231   1.718   9.099  0.4455  0.3944 -0.0991
   88SAPS  H19R 8490   1.236   1.609   9.080  0.6298  0.0579  1.7329
   88SAPS  H19S 8491   1.321   1.742   9.159 -0.0207  0.9844  0.3828
   88SAPS  C220 8492   1.246   1.804   8.980 -0.0769  0.3786  0.6752
   88SAPS  H20R 8493   1.174   1.767   8.903 -1.3809  0.1520  1.9714
   88SAPS  H20S 8494   1.347   1.788   8.938  0.2399  0.6793  1.3184
   88SAPS  H20T 8495   1.221   1.911   8.990  0.1660  0.4660  0.3877
   88SAPS   C33 8496   2.077   1.129   9.992 -0.7259  0.2574 -0.1861
   88SAPS   H3X 8497   1.996   1.053   9.992 -2.4209  1.9895 -0.4295
   88SAPS   H3Y 8498   2.176   1.087  10.019 -0.5743  0.5970 -0.2060
   88SAPS   C34 8499   2.066   1.198   9.859 -0.3854  0.1111  0.3441
   88SAPS   H4X 8500   2.160   1.254   9.837  0.6794 -1.0863  1.7069
   88SAPS   H4Y 8501   1.982   1.271   9.854  0.4527  1.0660 -0.2782
   88SAPS   C35 8502   2.051   1.103   9.740  0.2414 -0.0009  0.6305
   88SAPS   H5X 8503   1.942   1.083   9.729  0.7845 -1.8638 -2.6990
   88SAPS   H5Y 8504   2.091   1.001   9.759 -1.0816 -1.0324 -1.6047
   88SAPS   C36 8505   2.103   1.162   9.609 -0.3942 -0.5733  0.1218
   88SAPS   H6X 8506   2.209   1.190   9.627  0.3791 -2.7452 -0.7041
   88SAPS   H6Y 8507   2.043   1.252   9.582 -0.9172 -1.3787 -1.5660
   88SAPS   C37 8508   2.102   1.076   9.480 -0.9239  0.3390  0.4891
   88SAPS   H7X 8509   2.000   1.034   9.466 -1.0913  0.8048  0.2925
   88SAPS   H7Y 8510   2.181   1.000   9.499 -1.2792  0.0954  1.0235
   88SAPS   C38 8511   2.144   1.152   9.363 -0.1977 -0.2416  0.5775
   88SAPS   H8X 8512   2.243   1.196   9.386  1.5549 -2.2122 -2.3874
   88SAPS   H8Y 8513   2.067   1.231   9.348 -1.5689 -1.2546  1.9235
   88SAPS   C39 8514   2.158   1.066   9.238 -0.0803 -0.1199 -0.5689
   88SAPS   H9X 8515   2.237   0.988   9.240 -0.3984 -0.5794 -3.0489
   88SAPS   H9Y 8516   2.186   1.136   9.156  2.1306 -0.1618  0.0747
   88SAPS  C310 8517   2.030   0.992   9.207  0.3420  0.1152 -0.4007
   88SAPS  H10X 8518   1.955   1.074   9.216 -1.7335 -1.4602 -2.1921
   88SAPS  H10Y 8519   1.992   0.912   9.275 -0.9686  1.0106 -0.0330
   88SAPS  C311 8520   2.023   0.923   9.073  0.3824 -1.1454 -0.0616
   88SAPS  H11X 8521   2.104   0.848   9.060  0.2292 -1.3472  0.1542
   88SAPS  H11Y 8522   2.037   0.990   8.985  0.5501  0.1100  0.8990
   88SAPS  C312 8523   1.895   0.839   9.051 -0.3525 -0.5185 -0.5030
   88SAPS  H12X 8524   1.808   0.909   9.052 -0.4638 -0.6313 -1.3221
   88SAPS  H12Y 8525   1.876   0.779   9.142 -1.0398  0.7040  0.1920
   88SAPS  C313 8526   1.887   0.767   8.917  0.4586  0.1752  0.4692
   88SAPS  H13X 8527   1.817   0.682   8.933  1.3035 -0.5463  0.3695
   88SAPS  H13Y 8528   1.983   0.718   8.894  0.8329  0.7782  0.7179
   88SAPS  C314 8529   1.843   0.873   8.811  0.3598 -0.7919  0.9115
   88SAPS  H14X 8530   1.842   0.978   8.848 -0.6648 -1.1460  1.9546
   88SAPS  H14Y 8531   1.739   0.863   8.774  1.0146 -0.5117 -1.1234
   88SAPS  C315 8532   1.935   0.865   8.692 -0.1715 -0.6848 -0.3391
   88SAPS  H15X 8533   1.945   0.758   8.666 -0.3698 -1.0858  1.1450
   88SAPS  H15Y 8534   2.026   0.923   8.720 -0.4681 -0.3551 -0.0379
   88SAPS  C316 8535   1.888   0.934   8.562 -0.6227  0.9301 -0.1577
   88SAPS  H16X 8536   1.785   0.897   8.539 -0.7373  1.2799 -0.2081
   88SAPS  H16Y 8537   1.950   0.893   8.480  0.5102  2.0106  0.1278
   88SAPS  C317 8538   1.881   1.088   8.555 -0.4982  0.0688 -0.5809
   88SAPS  H17X 8539   1.854   1.114   8.660 -2.9714 -0.4694 -1.0309
   88SAPS  H17Y 8540   1.803   1.123   8.483 -1.0881  1.7199  0.7763
   88SAPS  C318 8541   2.016   1.154   8.508  0.8184  0.4585 -1.0265
   88SAPS  H18X 8542   2.096   1.123   8.579  0.1105 -1.5740 -1.0418
   88SAPS  H18Y 8543   2.027   1.263   8.523  0.9994  0.1120  2.0511
   88SAPS  H18Z 8544   2.049   1.123   8.407 -1.0183 -2.1035 -0.9539
   89SAPS     N 8545   0.558   4.792  10.761  0.7909 -0.2615 -0.3619
   89SAPS   HN1 8546   0.533   4.765  10.663  0.4732 -0.6676 -0.1708
   89SAPS   HN2 8547   0.585   4.892  10.767 -0.7609  0.2743 -1.5084
   89SAPS   HN3 8548   0.650   4.755  10.792  2.6888  4.0480 -0.1563
   89SAPS   C12 8549   0.443   4.757  10.854  0.1043  0.3041 -0.7792
   89SAPS  H12A 8550   0.429   4.651  10.872  0.6925  0.0575 -1.6966
   89SAPS   C13 8551   0.447   4.814  10.995 -1.1528 -0.2209  0.2883
   89SAPS  O13A 8552   0.545   4.883  11.033 -0.5465 -0.1379  0.0253
   89SAPS  O13B 8553   0.364   4.773  11.076  0.1127 -0.1268  0.0163
   89SAPS   C11 8554   0.318   4.814  10.790  0.6318  0.2243  0.1475
   89SAPS  H11A 8555   0.330   4.919  10.755  2.2025 -0.0706 -0.2986
   89SAPS  H11B 8556   0.231   4.816  10.859 -0.8326  1.6455 -1.6348
   89SAPS     P 8557   0.195   4.609  10.684  0.1689  0.1344  0.2539
   89SAPS   O13 8558   0.293   4.502  10.712  1.0088  0.3493 -0.2760
   89SAPS   O14 8559   0.087   4.622  10.790 -0.0202  0.2256  0.4356
   89SAPS   O12 8560   0.274   4.745  10.667 -0.1738 -0.4770 -0.6795
   89SAPS   O11 8561   0.117   4.584  10.541  0.5378  0.3875  0.0000
   89SAPS    C1 8562   0.201   4.582  10.420 -0.4885  0.4079 -0.0682
   89SAPS    HA 8563   0.310   4.595  10.438 -0.3761 -1.4289  0.7970
   89SAPS    HB 8564   0.197   4.478  10.381  3.7769 -0.6698  1.7561
   89SAPS    C2 8565   0.150   4.679  10.304 -0.3405 -0.0835 -0.0856
   89SAPS    HS 8566   0.222   4.658  10.222 -2.1067 -0.4458 -1.6130
   89SAPS   O21 8567   0.158   4.819  10.349 -0.3972 -0.7537 -0.1495
   89SAPS   C21 8568   0.285   4.868  10.364  1.2586  1.1795 -0.3950
   89SAPS   O22 8569   0.384   4.800  10.341 -1.1660  0.3823 -0.6443
   89SAPS   C22 8570   0.295   5.013  10.416 -0.2929 -0.4634  0.2988
   89SAPS   H2R 8571   0.201   5.065  10.387 -0.4958 -0.5581  0.7710
   89SAPS   H2S 8572   0.278   5.006  10.526 -0.7766 -0.0065  0.2565
   89SAPS    C3 8573   0.013   4.633  10.247 -0.0734 -0.3316  0.1455
   89SAPS    HX 8574  -0.038   4.710  10.185  1.1727  1.7397  1.5457
   89SAPS    HY 8575  -0.052   4.620  10.337  1.1935  0.5100  1.2331
   89SAPS   O31 8576   0.024   4.507  10.188  0.6388 -0.4565 -0.3339
   89SAPS   C31 8577   0.034   4.498  10.058  0.2523  0.1502 -1.0319
   89SAPS   O32 8578   0.058   4.590   9.981 -0.4030 -0.4188 -0.1790
   89SAPS   C32 8579   0.004   4.352  10.017  0.5307 -0.6681 -0.5536
   89SAPS   H2X 8580  -0.097   4.327  10.058  0.0858  2.5637  0.6292
   89SAPS   H2Y 8581   0.078   4.286  10.066  2.1642 -0.4601 -2.6395
   89SAPS   C23 8582   0.431   5.081  10.382 -0.4096 -0.8020  0.3631
   89SAPS   H3R 8583   0.519   5.014  10.387  0.2000 -0.0220  0.0951
   89SAPS   H3S 8584   0.446   5.153  10.465 -1.0146 -0.9644  0.6245
   89SAPS   C24 8585   0.421   5.157  10.250  0.4222  0.4594  0.2084
   89SAPS   H4R 8586   0.484   5.248  10.248 -0.3540  0.9981 -0.4382
   89SAPS   H4S 8587   0.318   5.188  10.223  0.0709  0.2220  1.2377
   89SAPS   C25 8588   0.478   5.068  10.139  0.3178  0.3099  0.5317
   89SAPS   H5R 8589   0.576   5.025  10.164 -0.3795 -0.5563  1.9191
   89SAPS   C26 8590   0.437   5.037  10.023  0.3627 -0.3525 -0.1224
   89SAPS   H6R 8591   0.481   4.961   9.958 -0.2924 -0.1648 -0.8003
   89SAPS   C27 8592   0.300   5.083   9.971  0.1799  0.4262 -0.3973
   89SAPS   H7R 8593   0.244   5.123  10.057  1.7025 -2.6942  2.2531
   89SAPS   H7S 8594   0.240   4.993   9.943  0.5228 -0.6248  2.0522
   89SAPS   C28 8595   0.319   5.161   9.846 -0.3590 -0.1729  0.5838
   89SAPS   H8R 8596   0.351   5.266   9.858  1.7484 -0.7199  0.0922
   89SAPS   C29 8597   0.313   5.108   9.719  0.4133 -0.9383  0.2388
   89SAPS   H9R 8598   0.332   5.177   9.636 -1.6737  0.9308  1.2061
   89SAPS  C210 8599   0.277   4.970   9.679  0.2889 -0.6858  0.2150
   89SAPS  H10R 8600   0.166   4.976   9.681  0.3123  0.1164  2.7043
   89SAPS  H10S 8601   0.321   4.903   9.756 -0.0165 -1.5962 -0.3848
   89SAPS  C211 8602   0.323   4.930   9.540  0.4144 -0.3418  0.2461
   89SAPS  H11R 8603   0.422   4.964   9.506  0.4624 -2.7486 -2.4284
   89SAPS  C212 8604   0.245   4.873   9.446 -0.9913 -0.0159 -0.3960
   89SAPS  H12R 8605   0.290   4.871   9.346  0.3972  1.6951  0.1514
   89SAPS  C213 8606   0.101   4.828   9.456 -0.3069 -0.7610  0.0025
   89SAPS  H13R 8607   0.049   4.905   9.396 -1.6794 -0.8397  1.0511
   89SAPS  H13S 8608   0.068   4.826   9.562  2.4025 -0.5540  0.9264
   89SAPS  C214 8609   0.080   4.689   9.407 -0.2511 -0.4692  0.4000
   89SAPS  H14R 8610   0.107   4.612   9.481  0.6853 -0.5365  0.0075
   89SAPS  C215 8611   0.033   4.641   9.289  0.1488  0.1015 -0.0450
   89SAPS  H15R 8612   0.028   4.532   9.280 -0.8268  0.1788 -0.5838
   89SAPS  C216 8613  -0.018   4.724   9.167 -0.3145 -0.1230  0.4205
   89SAPS  H16R 8614  -0.045   4.826   9.205 -0.9072  0.0827 -0.5246
   89SAPS  H16S 8615  -0.116   4.686   9.131 -0.4802  0.3034  0.4125
   89SAPS  C217 8616   0.069   4.752   9.044 -0.5376 -0.1596 -0.4408
   89SAPS  H17R 8617   0.167   4.783   9.085  0.2629 -0.8323 -1.7557
   89SAPS  H17S 8618   0.032   4.834   8.979  0.5426  0.2697 -0.5354
   89SAPS  C218 8619   0.074   4.620   8.965  0.2379  0.5114  0.9233
   89SAPS  H18R 8620  -0.028   4.584   8.940  1.0501  0.9608 -4.0470
   89SAPS  H18S 8621   0.128   4.536   9.015 -0.7445 -0.0477  1.0779
   89SAPS  C219 8622   0.145   4.637   8.825  0.0892  0.5598 -0.8047
   89SAPS  H19R 8623   0.070   4.667   8.749 -1.1946 -1.1880 -0.2764
   89SAPS  H19S 8624   0.196   4.543   8.795  1.9442  0.6388  1.7699
   89SAPS  C220 8625   0.257   4.749   8.827 -0.4541 -0.5573  0.1172
   89SAPS  H20R 8626   0.220   4.853   8.823  0.5812 -0.2096 -1.1610
   89SAPS  H20S 8627   0.333   4.730   8.748 -0.7111 -4.2330  0.5368
   89SAPS  H20T 8628   0.308   4.730   8.925 -0.3092  0.5307  0.2628
   89SAPS   C33 8629   0.001   4.346   9.853 -0.5602  0.3001 -0.0868
   89SAPS   H3X 8630  -0.081   4.414   9.822 -0.8806  0.2894  0.7103
   89SAPS   H3Y 8631  -0.031   4.242   9.830 -1.7084  1.0524 -2.1632
   89SAPS   C34 8632   0.136   4.368   9.788 -0.4204 -0.3439 -0.2225
   89SAPS   H4X 8633   0.208   4.287   9.811  0.6026 -0.3367 -3.0442
   89SAPS   H4Y 8634   0.183   4.467   9.804  0.1124 -0.8691  1.8250
   89SAPS   C35 8635   0.117   4.351   9.633 -0.4434  0.4790 -0.0376
   89SAPS   H5X 8636   0.046   4.434   9.612 -2.1250 -0.6020  1.1107
   89SAPS   H5Y 8637   0.067   4.253   9.618 -0.2360  0.6904 -2.5286
   89SAPS   C36 8638   0.249   4.359   9.550  0.7479 -0.1029 -0.4760
   89SAPS   H6X 8639   0.330   4.295   9.590  1.6598  0.5724 -1.1787
   89SAPS   H6Y 8640   0.281   4.463   9.572  0.9589  0.3890 -2.8467
   89SAPS   C37 8641   0.224   4.320   9.404 -0.6890  0.8296 -0.3110
   89SAPS   H7X 8642   0.132   4.371   9.368 -0.0628  1.5722 -0.8819
   89SAPS   H7Y 8643   0.208   4.210   9.407 -2.4309  1.0800  0.6765
   89SAPS   C38 8644   0.344   4.327   9.298  0.8441 -0.6026 -0.3435
   89SAPS   H8X 8645   0.436   4.277   9.335 -0.3609 -2.3662  0.4192
   89SAPS   H8Y 8646   0.369   4.435   9.291 -0.2736 -0.2394  0.8789
   89SAPS   C39 8647   0.306   4.292   9.155  0.1955  0.2175  0.8387
   89SAPS   H9X 8648   0.212   4.339   9.119 -0.0026 -0.2770  0.7027
   89SAPS   H9Y 8649   0.305   4.182   9.136  2.3738  0.3243 -0.1157
   89SAPS  C310 8650   0.402   4.362   9.056 -0.5097 -0.2748 -0.7863
   89SAPS  H10X 8651   0.504   4.339   9.093 -0.1324  1.0717 -0.9312
   89SAPS  H10Y 8652   0.398   4.473   9.069  0.6868 -0.3488  0.3634
   89SAPS  C311 8653   0.386   4.328   8.906  0.3016  0.4751  0.7282
   89SAPS  H11X 8654   0.285   4.369   8.887  0.9436  0.3616 -3.8641
   89SAPS  H11Y 8655   0.396   4.217   8.911  2.1048  0.6626  3.1524
   89SAPS  C312 8656   0.503   4.374   8.812  0.5718  0.2619  0.1835
   89SAPS  H12X 8657   0.595   4.324   8.847 -0.7096 -0.8042  2.2084
   89SAPS  H12Y 8658   0.525   4.481   8.834  0.3034  0.3146  0.1974
   89SAPS  C313 8659   0.496   4.357   8.660 -0.3229 -0.0312 -0.7698
   89SAPS  H13X 8660   0.470   4.251   8.640 -2.0852 -0.1978  1.8581
   89SAPS  H13Y 8661   0.595   4.386   8.619  0.5667 -2.0709 -0.1914
   89SAPS  C314 8662   0.394   4.449   8.591  0.2338 -0.0151 -0.9788
   89SAPS  H14X 8663   0.405   4.557   8.616 -3.3593 -0.0535  1.6834
   89SAPS  H14Y 8664   0.290   4.425   8.624  0.7477 -0.6717  0.2247
   89SAPS  C315 8665   0.405   4.449   8.434  0.6488 -0.0062  0.2258
   89SAPS  H15X 8666   0.365   4.362   8.378  0.1278  0.9758 -0.9864
   89SAPS  H15Y 8667   0.511   4.442   8.402  0.4594 -3.2669  0.0037
   89SAPS  C316 8668   0.338   4.572   8.376 -0.3633  0.4087 -0.1397
   89SAPS  H16X 8669   0.348   4.579   8.266 -0.0473  3.1295 -0.0042
   89SAPS  H16Y 8670   0.383   4.661   8.425  1.3092 -0.5301  0.0979
   89SAPS  C317 8671   0.181   4.572   8.397  0.4053 -0.1715 -0.1579
   89SAPS  H17X 8672   0.159   4.583   8.505 -0.7672  0.8096 -0.4722
   89SAPS  H17Y 8673   0.149   4.467   8.384  0.1429 -0.4433  2.1881
   89SAPS  C318 8674   0.104   4.669   8.306  0.0296 -0.6970 -0.1689
   89SAPS  H18X 8675   0.068   4.620   8.213 -0.2303 -0.0459 -0.4161
   89SAPS  H18Y 8676   0.157   4.763   8.281 -1.3004  0.1141 -0.0049
   89SAPS  H18Z 8677   0.016   4.707   8.362  0.5198  2.6298 -1.4190
   90SAPS     N 8678   1.581   3.337  11.232 -0.1898  0.0450 -0.0745
   90SAPS   HN1 8679   1.571   3.254  11.294 -0.1529 -0.0985 -0.2632
   90SAPS   HN2 8680   1.648   3.320  11.154  0.5635 -0.6411  0.7020
   90SAPS   HN3 8681   1.604   3.422  11.288 -3.7565 -0.0465  1.8082
   90SAPS   C12 8682   1.443   3.364  11.179  0.0466  0.7314 -0.1457
   90SAPS  H12A 8683   1.415   3.290  11.106  0.9821 -0.2638  0.4750
   90SAPS   C13 8684   1.328   3.347  11.285  0.3721 -0.3914  0.4948
   90SAPS  O13A 8685   1.353   3.315  11.404 -0.3349 -0.0614 -0.2663
   90SAPS  O13B 8686   1.208   3.363  11.250  0.0146 -0.0315  0.2495
   90SAPS   C11 8687   1.447   3.495  11.099  0.1081 -0.8968 -0.9587
   90SAPS  H11A 8688   1.489   3.573  11.166 -0.4266  0.0511 -1.7019
   90SAPS  H11B 8689   1.343   3.518  11.069 -0.0999  0.0815  0.4421
   90SAPS     P 8690   1.520   3.535  10.843 -0.0690  0.3495 -0.0493
   90SAPS   O13 8691   1.600   3.657  10.822 -0.2957  0.1691  0.4439
   90SAPS   O14 8692   1.545   3.422  10.753  0.5104  0.6785 -0.3268
   90SAPS   O12 8693   1.534   3.475  10.997  0.0430 -0.0077 -0.0275
   90SAPS   O11 8694   1.369   3.576  10.834  0.2216  0.1630  0.4721
   90SAPS    C1 8695   1.266   3.492  10.772  0.1059 -0.2083 -0.2822
   90SAPS    HA 8696   1.299   3.386  10.773  1.7778  0.1620  3.6129
   90SAPS    HB 8697   1.177   3.505  10.837  0.4595  1.2463 -0.0456
   90SAPS    C2 8698   1.217   3.537  10.636  0.1740 -0.4051  0.2210
   90SAPS    HS 8699   1.135   3.466  10.609 -1.6141  1.2086  1.1988
   90SAPS   O21 8700   1.334   3.518  10.542 -0.7139  0.5686 -0.1702
   90SAPS   C21 8701   1.368   3.394  10.500  0.8415 -0.3896  0.2814
   90SAPS   O22 8702   1.297   3.292  10.519  0.2856 -0.4296 -0.1595
   90SAPS   C22 8703   1.503   3.387  10.436  0.3288 -0.8812  0.0360
   90SAPS   H2R 8704   1.532   3.488  10.400 -3.5513 -0.3529 -2.1168
   90SAPS   H2S 8705   1.569   3.356  10.520  0.7641  0.9170  0.4059
   90SAPS    C3 8706   1.178   3.685  10.634 -0.0385 -0.3993 -0.0276
   90SAPS    HX 8707   1.254   3.738  10.695 -1.0842  0.8649  0.2270
   90SAPS    HY 8708   1.087   3.692  10.698 -0.0507 -0.6485 -0.0150
   90SAPS   O31 8709   1.152   3.742  10.503  0.3181  0.3326 -0.4002
   90SAPS   C31 8710   1.038   3.698  10.450 -0.8415  0.3167 -0.0830
   90SAPS   O32 8711   0.964   3.619  10.514  0.6327 -0.8861 -0.4795
   90SAPS   C32 8712   0.998   3.770  10.325 -0.7037 -0.4039  0.1880
   90SAPS   H2X 8713   1.060   3.860  10.303 -0.5592 -0.6557 -0.4727
   90SAPS   H2Y 8714   0.897   3.809  10.348 -0.5124  0.2454 -0.0337
   90SAPS   C23 8715   1.511   3.285  10.318  0.5402 -0.2347  0.1660
   90SAPS   H3R 8716   1.466   3.186  10.340  0.6462 -0.4002 -0.3676
   90SAPS   H3S 8717   1.616   3.276  10.283  0.4543  0.4219 -0.2721
   90SAPS   C24 8718   1.445   3.352  10.190 -0.7182 -0.1736 -0.3944
   90SAPS   H4R 8719   1.345   3.394  10.215 -0.5741 -0.6456  1.1177
   90SAPS   H4S 8720   1.427   3.275  10.113 -0.8536  0.1549 -0.6926
   90SAPS   C25 8721   1.527   3.463  10.143 -0.4375  0.1657 -0.1985
   90SAPS   H5R 8722   1.632   3.471  10.173 -0.6434 -0.6520  0.8075
   90SAPS   C26 8723   1.482   3.556  10.053  0.1531 -0.4944  0.3671
   90SAPS   H6R 8724   1.554   3.634  10.025 -1.2021  0.6772  0.0643
   90SAPS   C27 8725   1.349   3.552   9.982  0.3124  0.0167  0.6581
   90SAPS   H7R 8726   1.273   3.538  10.061  1.0658  0.1122  1.4231
   90SAPS   H7S 8727   1.347   3.466   9.911 -0.0696  1.0257 -0.5988
   90SAPS   C28 8728   1.322   3.677   9.905  0.8474 -0.1765 -0.8193
   90SAPS   H8R 8729   1.259   3.751   9.956  1.7979 -0.0095  0.1609
   90SAPS   C29 8730   1.376   3.722   9.790 -0.1918  0.8346  0.5427
   90SAPS   H9R 8731   1.331   3.814   9.751 -2.6111 -1.6007 -3.0861
   90SAPS  C210 8732   1.476   3.648   9.694  0.8494 -0.8501 -0.4843
   90SAPS  H10R 8733   1.431   3.557   9.649 -0.4124 -1.5930  2.0988
   90SAPS  H10S 8734   1.555   3.606   9.761 -0.1850 -2.8202 -0.4348
   90SAPS  C211 8735   1.531   3.733   9.580 -0.5511 -0.2054 -0.4843
   90SAPS  H11R 8736   1.619   3.798   9.596 -1.3409  0.3902  1.7495
   90SAPS  C212 8737   1.480   3.741   9.455 -0.0301 -0.2015 -0.2923
   90SAPS  H12R 8738   1.530   3.814   9.389 -1.7121  1.3489  0.0918
   90SAPS  C213 8739   1.363   3.669   9.396 -0.1494  0.3189  0.1436
   90SAPS  H13R 8740   1.337   3.589   9.468 -0.9504 -0.3995 -0.9120
   90SAPS  H13S 8741   1.402   3.609   9.311  0.0078  0.4770  0.1025
   90SAPS  C214 8742   1.239   3.751   9.372 -0.2663  0.3291 -0.2062
   90SAPS  H14R 8743   1.216   3.826   9.448 -0.2688  0.6974 -0.5647
   90SAPS  C215 8744   1.168   3.746   9.267 -0.0111  0.2202  0.0424
   90SAPS  H15R 8745   1.073   3.802   9.275  0.1801  0.3886  1.3830
   90SAPS  C216 8746   1.171   3.668   9.137  0.2657 -0.2744  0.2521
   90SAPS  H16R 8747   1.111   3.576   9.153  0.8599 -0.2338  3.3086
   90SAPS  H16S 8748   1.269   3.629   9.101 -0.1377  0.7697 -2.1918
   90SAPS  C217 8749   1.110   3.757   9.030 -0.3997 -0.7977 -0.6185
   90SAPS  H17R 8750   1.170   3.850   9.020 -0.5529 -0.7739 -1.4367
   90SAPS  H17S 8751   1.004   3.786   9.049 -0.4554 -2.1684  1.4430
   90SAPS  C218 8752   1.116   3.682   8.901  0.5199  0.0001 -0.1828
   90SAPS  H18R 8753   1.067   3.584   8.918 -1.0623  0.7966  0.0589
   90SAPS  H18S 8754   1.223   3.666   8.875  0.3456 -0.6539 -0.5195
   90SAPS  C219 8755   1.043   3.738   8.778 -0.0451  0.6755  0.9832
   90SAPS  H19R 8756   0.933   3.734   8.795  0.0120  1.7450  1.6585
   90SAPS  H19S 8757   1.051   3.672   8.688 -2.4955 -0.7906  1.7368
   90SAPS  C220 8758   1.080   3.877   8.752  0.4534  0.6545 -0.0243
   90SAPS  H20R 8759   1.050   3.895   8.647 -2.0049  0.7578  0.6361
   90SAPS  H20S 8760   1.191   3.888   8.755  0.8641 -1.9926 -1.8323
   90SAPS  H20T 8761   1.039   3.949   8.826 -0.5903  2.5572 -2.3410
   90SAPS   C33 8762   0.972   3.682  10.204  0.3471  1.6638  0.0423
   90SAPS   H3X 8763   0.871   3.638  10.220  0.2237  1.5650 -0.9589
   90SAPS   H3Y 8764   1.042   3.597  10.192 -1.9765 -0.5525  1.2903
   90SAPS   C34 8765   0.960   3.761  10.067  0.3758  0.5394 -0.7718
   90SAPS   H4X 8766   1.060   3.772  10.020 -0.6236 -1.7881 -3.8207
   90SAPS   H4Y 8767   0.908   3.858  10.076  0.2993  0.3647  1.3459
   90SAPS   C35 8768   0.875   3.674   9.963 -0.0416  0.3512  0.7098
   90SAPS   H5X 8769   0.766   3.677   9.986 -0.7543 -1.6875 -1.9177
   90SAPS   H5Y 8770   0.892   3.565   9.976  2.2105  0.3809 -1.2648
   90SAPS   C36 8771   0.899   3.712   9.814  0.4042  0.3183  0.0737
   90SAPS   H6X 8772   0.978   3.638   9.789 -0.7800 -0.8805 -0.2072
   90SAPS   H6Y 8773   0.932   3.818   9.811 -1.9707  1.1052 -0.0857
   90SAPS   C37 8774   0.774   3.677   9.728 -0.1092  0.3172 -0.8172
   90SAPS   H7X 8775   0.696   3.755   9.745 -0.5935  0.0554 -1.7734
   90SAPS   H7Y 8776   0.737   3.578   9.758  0.3213  0.1908 -0.6889
   90SAPS   C38 8777   0.825   3.661   9.581  0.0132 -0.2006 -1.3208
   90SAPS   H8X 8778   0.914   3.728   9.582 -1.1154  1.3383 -0.4242
   90SAPS   H8Y 8779   0.755   3.713   9.514  1.0766  1.8343 -0.9239
   90SAPS   C39 8780   0.873   3.521   9.556  0.7342 -0.2485 -0.1695
   90SAPS   H9X 8781   0.776   3.466   9.561 -0.2898  1.5317  0.9465
   90SAPS   H9Y 8782   0.942   3.476   9.631 -0.2703 -1.7040 -0.0687
   90SAPS  C310 8783   0.936   3.492   9.419 -0.1293 -0.7786 -0.1943
   90SAPS  H10X 8784   1.041   3.459   9.425  0.7902  1.9200  0.0901
   90SAPS  H10Y 8785   0.926   3.588   9.363  1.1916 -1.1531 -1.1257
   90SAPS  C311 8786   0.866   3.383   9.343  0.3152  0.6802  0.2731
   90SAPS  H11X 8787   0.766   3.429   9.328 -0.1971  0.2978  2.2309
   90SAPS  H11Y 8788   0.856   3.294   9.409  0.7455 -0.1271 -0.7257
   90SAPS  C312 8789   0.927   3.353   9.205  0.1041  0.3643 -0.2865
   90SAPS  H12X 8790   1.036   3.340   9.225 -0.2687 -0.0494  1.6327
   90SAPS  H12Y 8791   0.914   3.442   9.140  0.4491 -1.8736 -3.6703
   90SAPS  C313 8792   0.871   3.224   9.136  0.3481 -0.8102  1.0120
   90SAPS  H13X 8793   0.761   3.233   9.121  0.5893  0.7533 -0.1894
   90SAPS  H13Y 8794   0.875   3.138   9.205  0.5446  0.0314  2.0764
   90SAPS  C314 8795   0.931   3.190   9.003 -0.0249  0.8335 -0.0367
   90SAPS  H14X 8796   1.037   3.164   9.026 -0.3013  1.2389  1.8793
   90SAPS  H14Y 8797   0.933   3.275   8.931  0.8568  0.7489 -0.1255
   90SAPS  C315 8798   0.867   3.063   8.937 -0.0297 -0.0974  0.4349
   90SAPS  H15X 8799   0.763   3.093   8.911  0.0353  0.2482  0.5748
   90SAPS  H15Y 8800   0.856   2.976   9.006 -5.3841  0.1942  0.3835
   90SAPS  C316 8801   0.949   3.022   8.804 -0.2136 -0.6007 -0.4538
   90SAPS  H16X 8802   0.904   2.932   8.758 -0.9705 -0.8930  0.7936
   90SAPS  H16Y 8803   1.056   3.003   8.827  0.2691  1.5554 -0.6648
   90SAPS  C317 8804   0.925   3.122   8.692  0.0301  0.0176 -0.1102
   90SAPS  H17X 8805   0.977   3.215   8.723  0.9598 -0.4193 -0.3333
   90SAPS  H17Y 8806   0.817   3.148   8.686  0.3433  1.5022  0.1152
   90SAPS  C318 8807   0.976   3.082   8.554 -0.3529  0.4203 -0.6360
   90SAPS  H18X 8808   1.087   3.075   8.559 -0.2888  1.6029  0.0640
   90SAPS  H18Y 8809   0.959   3.158   8.474 -1.3043 -1.2477 -2.0941
   90SAPS  H18Z 8810   0.931   2.986   8.521  4.0212 -1.1002 -3.1032
   91SAPS     N 8811   0.237   1.569   6.260 -0.0147  0.4660 -0.1109
   91SAPS   HN1 8812   0.215   1.580   6.361 -0.4052  0.4644 -0.1955
   91SAPS   HN2 8813   0.335   1.536   6.266 -0.8590 -1.9382  3.0459
   91SAPS   HN3 8814   0.228   1.656   6.203 -0.3560 -1.6545 -3.5998
   91SAPS   C12 8815   0.142   1.479   6.200 -0.7180 -0.7346  0.7048
   91SAPS  H12A 8816   0.184   1.470   6.102  0.7385 -0.2404  1.2509
   91SAPS   C13 8817   0.141   1.343   6.269 -0.4242 -0.1514  0.0751
   91SAPS  O13A 8818   0.201   1.311   6.377  0.1883  0.2294 -0.5594
   91SAPS  O13B 8819   0.058   1.272   6.220  0.1498 -0.3071  0.5200
   91SAPS   C11 8820  -0.002   1.534   6.197  0.4867 -0.0420 -0.1766
   91SAPS  H11A 8821  -0.042   1.519   6.299  1.3535  0.9147  0.3264
   91SAPS  H11B 8822  -0.061   1.474   6.124  1.6822 -0.8315 -0.5184
   91SAPS     P 8823  -0.133   1.755   6.155 -0.1203 -0.0412  0.7364
   91SAPS   O13 8824  -0.116   1.898   6.115  0.5360  0.0575  0.0944
   91SAPS   O14 8825  -0.232   1.672   6.083  0.1992  0.2096  1.0582
   91SAPS   O12 8826  -0.003   1.672   6.164 -0.0824  0.0604 -0.5942
   91SAPS   O11 8827  -0.183   1.753   6.297 -0.3242  0.4692 -0.5158
   91SAPS    C1 8828  -0.166   1.855   6.388  0.0193  0.4215 -0.5936
   91SAPS    HA 8829  -0.196   1.954   6.349 -1.6648  0.4058  0.6052
   91SAPS    HB 8830  -0.243   1.845   6.467 -0.6478  3.8782 -0.6830
   91SAPS    C2 8831  -0.033   1.842   6.466  0.3055 -0.2943 -0.8322
   91SAPS    HS 8832   0.044   1.810   6.393  1.6569  1.6076 -0.3275
   91SAPS   O21 8833  -0.054   1.748   6.574 -0.2502  0.3041  0.0489
   91SAPS   C21 8834   0.026   1.639   6.573 -0.3736  0.0469 -0.0311
   91SAPS   O22 8835   0.126   1.629   6.500  0.5277  0.6940 -0.1581
   91SAPS   C22 8836  -0.005   1.552   6.694  0.4257 -0.3114  0.2640
   91SAPS   H2R 8837   0.018   1.447   6.667 -0.7479 -0.8316  1.2107
   91SAPS   H2S 8838   0.058   1.573   6.783  0.7256 -2.5430  0.6228
   91SAPS    C3 8839   0.014   1.977   6.535  0.1090  0.4332  0.2730
   91SAPS    HX 8840   0.020   2.055   6.456  1.4637 -1.4998 -1.6692
   91SAPS    HY 8841   0.120   1.962   6.566 -0.1660  0.6149  1.3164
   91SAPS   O31 8842  -0.057   2.003   6.657 -0.4450 -0.5220 -0.2936
   91SAPS   C31 8843  -0.154   2.095   6.637  0.0945  0.2061  0.0401
   91SAPS   O32 8844  -0.162   2.176   6.547 -0.1075 -0.2864 -0.7594
   91SAPS   C32 8845  -0.245   2.102   6.764 -0.0854  0.3357 -0.0444
   91SAPS   H2X 8846  -0.334   2.161   6.733 -0.2785  1.5384  2.5361
   91SAPS   H2Y 8847  -0.186   2.160   6.838  0.9392  0.0819 -0.6445
   91SAPS   C23 8848  -0.150   1.566   6.737  0.1418  0.2642  0.3778
   91SAPS   H3R 8849  -0.230   1.535   6.667 -0.6886  1.2758  0.8465
   91SAPS   H3S 8850  -0.179   1.671   6.760  2.1778  0.9587 -0.0524
   91SAPS   C24 8851  -0.170   1.498   6.870 -0.3418  0.0823  0.0255
   91SAPS   H4R 8852  -0.115   1.546   6.953  0.1852 -0.8461  0.2275
   91SAPS   H4S 8853  -0.119   1.399   6.875  3.0684  1.7980  3.1839
   91SAPS   C25 8854  -0.316   1.488   6.901 -0.0419 -0.9172 -0.3913
   91SAPS   H5R 8855  -0.380   1.486   6.812 -2.0877  1.6265  0.8643
   91SAPS   C26 8856  -0.380   1.490   7.018  0.5398  0.0551 -0.9090
   91SAPS   H6R 8857  -0.489   1.484   7.014  0.5523  0.1182 -1.3717
   91SAPS   C27 8858  -0.312   1.482   7.155  0.5439 -0.0746  0.1886
   91SAPS   H7R 8859  -0.336   1.575   7.212  2.2226 -0.6676  1.9789
   91SAPS   H7S 8860  -0.201   1.487   7.149  0.5642 -1.2442 -0.9003
   91SAPS   C28 8861  -0.361   1.362   7.230  0.0259 -0.0430 -0.2506
   91SAPS   H8R 8862  -0.359   1.266   7.175  0.1733 -2.0433  2.9889
   91SAPS   C29 8863  -0.428   1.363   7.346 -0.7683 -0.0286  0.4635
   91SAPS   H9R 8864  -0.451   1.263   7.385 -0.4189  0.4083  1.8300
   91SAPS  C210 8865  -0.465   1.471   7.435 -0.1681 -0.5529  0.1237
   91SAPS  H10R 8866  -0.544   1.434   7.504 -0.4218  1.4595  0.9983
   91SAPS  H10S 8867  -0.516   1.555   7.381  0.2380 -1.1628 -1.2708
   91SAPS  C211 8868  -0.338   1.505   7.515  0.6814 -0.0545  0.2223
   91SAPS  H11R 8869  -0.241   1.509   7.463  0.9273  0.7675  0.7297
   91SAPS  C212 8870  -0.329   1.542   7.643  0.3949 -0.1263  0.3519
   91SAPS  H12R 8871  -0.234   1.526   7.696  0.2552 -1.2586  0.2883
   91SAPS  C213 8872  -0.445   1.571   7.740  0.5493 -0.3241  0.2502
   91SAPS  H13R 8873  -0.530   1.609   7.681  0.9541 -0.4640 -0.4303
   91SAPS  H13S 8874  -0.412   1.659   7.801 -0.1099 -0.9432  1.5312
   91SAPS  C214 8875  -0.498   1.461   7.829  0.0526  0.9408  0.2059
   91SAPS  H14R 8876  -0.570   1.400   7.773  2.0963 -1.3160 -0.1093
   91SAPS  C215 8877  -0.475   1.422   7.955  0.2920 -0.3903 -0.4053
   91SAPS  H15R 8878  -0.520   1.329   7.991  1.0288 -0.1739  1.1543
   91SAPS  C216 8879  -0.394   1.511   8.049  0.7718  0.1889  0.6573
   91SAPS  H16R 8880  -0.374   1.612   8.008 -1.4616 -0.2991 -1.9110
   91SAPS  H16S 8881  -0.296   1.461   8.065 -0.1047 -1.7819  0.1556
   91SAPS  C217 8882  -0.458   1.528   8.187  0.0025  0.4181  0.9296
   91SAPS  H17R 8883  -0.494   1.431   8.228  0.6211 -1.1618 -2.0189
   91SAPS  H17S 8884  -0.547   1.593   8.173 -0.6042 -0.4453  0.7458
   91SAPS  C218 8885  -0.358   1.586   8.287 -0.2985  0.2435 -0.5983
   91SAPS  H18R 8886  -0.316   1.684   8.259  0.6667  0.3806  1.2010
   91SAPS  H18S 8887  -0.267   1.522   8.287 -0.2347  0.2991  0.9331
   91SAPS  C219 8888  -0.416   1.585   8.435 -0.5114  0.3469  0.0993
   91SAPS  H19R 8889  -0.524   1.600   8.418 -0.1980  0.6188 -1.8695
   91SAPS  H19S 8890  -0.385   1.677   8.489 -2.9923  1.3179 -0.0224
   91SAPS  C220 8891  -0.391   1.454   8.510  0.1098 -0.2756  0.9972
   91SAPS  H20R 8892  -0.438   1.459   8.610 -0.7767 -0.0217  0.5847
   91SAPS  H20S 8893  -0.280   1.452   8.520  0.1845  0.6930  0.5319
   91SAPS  H20T 8894  -0.429   1.370   8.448 -0.5632  0.6974  0.0622
   91SAPS   C33 8895  -0.286   1.973   6.837  0.3954 -0.1591  0.2510
   91SAPS   H3X 8896  -0.186   1.927   6.850  1.7458  1.8224 -2.2803
   91SAPS   H3Y 8897  -0.349   1.921   6.762 -0.3365 -1.7713  1.8900
   91SAPS   C34 8898  -0.357   1.988   6.968  0.3749 -0.0378  0.2489
   91SAPS   H4X 8899  -0.445   2.046   6.932 -0.4895 -0.5717  1.4353
   91SAPS   H4Y 8900  -0.293   2.054   7.030  0.3663  0.6152 -0.4168
   91SAPS   C35 8901  -0.387   1.861   7.043 -0.1098  0.5365  0.0735
   91SAPS   H5X 8902  -0.303   1.832   7.109  0.4209  0.8008 -0.4820
   91SAPS   H5Y 8903  -0.413   1.780   6.971 -0.4094  0.6516  0.0492
   91SAPS   C36 8904  -0.503   1.890   7.138 -0.2205 -0.3693  0.0266
   91SAPS   H6X 8905  -0.530   1.802   7.200 -1.0869 -0.1760 -0.0749
   91SAPS   H6Y 8906  -0.597   1.931   7.096  0.1029 -1.3072 -1.7442
   91SAPS   C37 8907  -0.437   1.988   7.239  0.4849  0.2246  0.0182
   91SAPS   H7X 8908  -0.424   2.089   7.195 -0.8974 -0.1755 -1.4021
   91SAPS   H7Y 8909  -0.333   1.955   7.264 -0.2174 -1.2025  1.2170
   91SAPS   C38 8910  -0.511   1.994   7.367 -0.1679 -0.4433 -0.3928
   91SAPS   H8X 8911  -0.508   1.896   7.421 -1.7091  1.3757  3.3498
   91SAPS   H8Y 8912  -0.618   2.021   7.353 -1.1042 -2.7199  1.6230
   91SAPS   C39 8913  -0.454   2.115   7.456  0.2982 -0.4437 -0.5334
   91SAPS   H9X 8914  -0.427   2.188   7.376 -3.1170  0.6097 -0.9043
   91SAPS   H9Y 8915  -0.360   2.081   7.504  2.1047  3.0644 -1.3011
   91SAPS  C310 8916  -0.549   2.183   7.554 -0.5553  0.1013  0.7100
   91SAPS  H10X 8917  -0.627   2.238   7.497  1.4113  0.6186 -1.6569
   91SAPS  H10Y 8918  -0.492   2.264   7.604 -1.3431 -0.3840  2.4696
   91SAPS  C311 8919  -0.615   2.094   7.662 -0.5283 -0.0660 -0.1072
   91SAPS  H11X 8920  -0.535   2.035   7.710 -0.9699 -0.2554  0.4096
   91SAPS  H11Y 8921  -0.691   2.034   7.607 -1.4190  1.1492 -0.2550
   91SAPS  C312 8922  -0.681   2.185   7.776  0.2417  0.2619 -0.1692
   91SAPS  H12X 8923  -0.776   2.143   7.815 -0.5840  0.1482 -2.1805
   91SAPS  H12Y 8924  -0.704   2.283   7.730 -1.5235 -0.2137 -0.3727
   91SAPS  C313 8925  -0.597   2.205   7.897  0.5474 -0.0549  0.4138
   91SAPS  H13X 8926  -0.508   2.269   7.875 -0.1621  1.0930  0.7719
   91SAPS  H13Y 8927  -0.550   2.109   7.925  0.7276 -0.3853 -0.9488
   91SAPS  C314 8928  -0.671   2.274   8.016 -0.1989 -0.0755 -0.6438
   91SAPS  H14X 8929  -0.754   2.209   8.048  0.3494  0.4311  2.0148
   91SAPS  H14Y 8930  -0.707   2.374   7.984  0.8523  0.7270  0.5869
   91SAPS  C315 8931  -0.574   2.285   8.137  0.3289  0.1342  0.9063
   91SAPS  H15X 8932  -0.485   2.341   8.101 -0.7491  0.4390 -1.4873
   91SAPS  H15Y 8933  -0.529   2.188   8.165  0.6411 -0.6023 -1.8719
   91SAPS  C316 8934  -0.625   2.361   8.256  0.6026 -0.3476 -0.3237
   91SAPS  H16X 8935  -0.725   2.319   8.281  1.4273 -2.4583 -0.3333
   91SAPS  H16Y 8936  -0.635   2.470   8.238  1.4405 -0.3328 -0.7375
   91SAPS  C317 8937  -0.548   2.322   8.384 -0.5735  0.3311  1.0325
   91SAPS  H17X 8938  -0.446   2.351   8.351 -2.1649  2.2315 -2.8967
   91SAPS  H17Y 8939  -0.568   2.216   8.407 -0.3242  0.4312  1.7232
   91SAPS  C318 8940  -0.590   2.396   8.510 -0.2675 -0.5938 -0.3257
   91SAPS  H18X 8941  -0.617   2.502   8.493 -1.6847 -1.1844 -2.0563
   91SAPS  H18Y 8942  -0.502   2.390   8.578  0.6820  0.9547 -1.3691
   91SAPS  H18Z 8943  -0.680   2.341   8.544  0.6069 -0.6492  2.0993
   92SAPS     N 8944   0.057   0.177   6.376  0.2081  0.3859 -0.7625
   92SAPS   HN1 8945   0.136   0.129   6.329  1.6095  1.2817  0.5709
   92SAPS   HN2 8946   0.084   0.273   6.406  0.5060 -0.0185  0.3207
   92SAPS   HN3 8947   0.040   0.114   6.457 -1.4335 -0.1347 -1.4768
   92SAPS   C12 8948  -0.074   0.167   6.306 -0.7770 -0.2618 -0.5843
   92SAPS  H12A 8949  -0.063   0.242   6.229  0.1067  1.9161  1.5463
   92SAPS   C13 8950  -0.105   0.024   6.240 -0.0275  0.3547 -0.1731
   92SAPS  O13A 8951  -0.030  -0.075   6.250 -0.6550  0.7704  0.5371
   92SAPS  O13B 8952  -0.208   0.012   6.172  0.4215  0.0628 -0.5920
   92SAPS   C11 8953  -0.185   0.217   6.401 -0.6478  0.3377  0.2072
   92SAPS  H11A 8954  -0.282   0.208   6.346 -0.5013 -0.9358  0.1208
   92SAPS  H11B 8955  -0.165   0.325   6.418 -0.8718  0.5264 -0.6676
   92SAPS     P 8956  -0.299   0.167   6.626  0.0413 -0.2884 -0.1912
   92SAPS   O13 8957  -0.233   0.211   6.750 -0.0373 -0.5801 -0.2107
   92SAPS   O14 8958  -0.411   0.250   6.572 -0.5268  0.0728  0.4476
   92SAPS   O12 8959  -0.178   0.146   6.519  0.5035  0.2219  0.0365
   92SAPS   O11 8960  -0.356   0.021   6.622 -0.5134 -0.4191 -0.5813
   92SAPS    C1 8961  -0.282  -0.099   6.640  0.4380  0.6587  0.0237
   92SAPS    HA 8962  -0.353  -0.184   6.639 -0.7644  1.6286 -0.2156
   92SAPS    HB 8963  -0.211  -0.112   6.556 -0.4595 -1.9384 -0.4012
   92SAPS    C2 8964  -0.218  -0.144   6.775  0.3976 -0.4619  0.1224
   92SAPS    HS 8965  -0.226  -0.254   6.787  1.4167 -0.4534  0.9741
   92SAPS   O21 8966  -0.289  -0.082   6.883  0.2709 -0.0670  0.0152
   92SAPS   C21 8967  -0.407  -0.125   6.908  0.3964 -0.3958  0.4159
   92SAPS   O22 8968  -0.472  -0.207   6.847  0.2405 -0.1202  0.1548
   92SAPS   C22 8969  -0.453  -0.034   7.020 -0.1891 -0.0018 -1.1301
   92SAPS   H2R 8970  -0.362  -0.016   7.081 -1.0398  3.0648 -0.5681
   92SAPS   H2S 8971  -0.476   0.063   6.970  0.5515  0.0154 -1.4467
   92SAPS    C3 8972  -0.067  -0.112   6.782 -0.3507  0.0767 -0.0091
   92SAPS    HX 8973  -0.063  -0.007   6.817 -2.8163  0.0594  0.5266
   92SAPS    HY 8974  -0.018  -0.120   6.683  1.9280 -1.4646  1.1661
   92SAPS   O31 8975  -0.005  -0.197   6.879  0.1559  0.0080 -0.0760
   92SAPS   C31 8976   0.087  -0.276   6.835  0.0597  0.5175 -0.3927
   92SAPS   O32 8977   0.114  -0.305   6.717  0.4492 -0.7188 -0.3716
   92SAPS   C32 8978   0.143  -0.358   6.953 -0.0493 -0.2003 -0.3090
   92SAPS   H2X 8979   0.066  -0.426   6.996  1.4305 -2.0957 -0.4785
   92SAPS   H2Y 8980   0.173  -0.274   7.018 -0.5570  0.9246 -1.4818
   92SAPS   C23 8981  -0.576  -0.088   7.096 -0.1164  0.1152 -0.1359
   92SAPS   H3R 8982  -0.652  -0.139   7.034 -0.4857  0.0635  0.3528
   92SAPS   H3S 8983  -0.622  -0.003   7.151  1.6438  0.5768  0.7192
   92SAPS   C24 8984  -0.543  -0.182   7.205  0.8859  0.2105  0.2184
   92SAPS   H4R 8985  -0.637  -0.210   7.256  1.3882 -0.2403  0.9075
   92SAPS   H4S 8986  -0.467  -0.142   7.277  1.0898  2.2165 -1.0192
   92SAPS   C25 8987  -0.485  -0.309   7.153 -0.6614  0.2793  0.1194
   92SAPS   H5R 8988  -0.550  -0.350   7.073 -0.7962 -1.5863  1.1348
   92SAPS   C26 8989  -0.366  -0.365   7.178 -0.5914  0.1825 -0.3641
   92SAPS   H6R 8990  -0.351  -0.459   7.123 -3.5905  0.0572 -1.1710
   92SAPS   C27 8991  -0.252  -0.324   7.270  0.2414 -0.2024 -0.2270
   92SAPS   H7R 8992  -0.209  -0.416   7.315  1.6145 -0.3189 -1.6622
   92SAPS   H7S 8993  -0.286  -0.258   7.352 -0.4693 -1.8879  0.9029
   92SAPS   C28 8994  -0.138  -0.264   7.201  0.4906  0.0922  0.3371
   92SAPS   H8R 8995  -0.153  -0.223   7.100  1.2330 -1.6922 -0.5418
   92SAPS   C29 8996  -0.017  -0.251   7.255 -0.1962  0.5793  0.1322
   92SAPS   H9R 8997   0.058  -0.203   7.190  1.3800 -0.3682  1.1706
   92SAPS  C210 8998   0.022  -0.295   7.399 -0.3118  0.1639  0.5022
   92SAPS  H10R 8999  -0.034  -0.385   7.434  0.3159 -0.1541  0.7127
   92SAPS  H10S 9000  -0.016  -0.215   7.466 -1.5231  0.4390 -0.4905
   92SAPS  C211 9001   0.172  -0.322   7.414 -0.5033  0.8048 -0.2034
   92SAPS  H11R 9002   0.220  -0.341   7.316 -1.1770 -1.1024 -0.2118
   92SAPS  C212 9003   0.246  -0.318   7.532 -0.0162 -0.5962 -0.9662
   92SAPS  H12R 9004   0.353  -0.343   7.530 -0.2724 -1.7879 -2.9422
   92SAPS  C213 9005   0.191  -0.282   7.670  0.5169  0.1294 -0.0387
   92SAPS  H13R 9006   0.109  -0.206   7.672  0.9269  0.5739 -0.0049
   92SAPS  H13S 9007   0.272  -0.234   7.728  0.6051 -0.1537  0.0710
   92SAPS  C214 9008   0.151  -0.417   7.732 -0.0909 -0.1822  0.3470
   92SAPS  H14R 9009   0.075  -0.468   7.671 -1.8487  2.5610  0.0678
   92SAPS  C215 9010   0.199  -0.486   7.849  0.3949 -0.4991  1.0768
   92SAPS  H15R 9011   0.151  -0.582   7.877  0.1588 -0.2423  1.5744
   92SAPS  C216 9012   0.302  -0.431   7.943  0.8741  0.2374 -0.4959
   92SAPS  H16R 9013   0.323  -0.323   7.932 -2.3999  1.0374 -0.0519
   92SAPS  H16S 9014   0.391  -0.492   7.917 -0.1872 -1.1923 -0.9000
   92SAPS  C217 9015   0.270  -0.449   8.095  0.2650 -0.2659  0.5891
   92SAPS  H17R 9016   0.247  -0.557   8.108  0.0616 -0.5427 -1.6926
   92SAPS  H17S 9017   0.184  -0.382   8.111 -0.6212 -1.3639  0.5800
   92SAPS  C218 9018   0.381  -0.393   8.188 -0.0011  0.1176  0.8306
   92SAPS  H18R 9019   0.403  -0.295   8.140 -0.8549 -0.3912 -0.6824
   92SAPS  H18S 9020   0.474  -0.450   8.167 -0.3888  0.1648 -1.2159
   92SAPS  C219 9021   0.339  -0.368   8.330 -0.0915 -0.1994  0.1324
   92SAPS  H19R 9022   0.300  -0.459   8.380  1.1262 -1.2474 -0.7588
   92SAPS  H19S 9023   0.256  -0.295   8.325 -0.3371 -0.4170  0.8439
   92SAPS  C220 9024   0.458  -0.314   8.409  0.5364  0.4723 -0.5541
   92SAPS  H20R 9025   0.490  -0.216   8.367 -1.6076  0.4631 -2.4419
   92SAPS  H20S 9026   0.532  -0.397   8.415 -0.3511 -0.2463  1.1411
   92SAPS  H20T 9027   0.433  -0.297   8.516  0.7539  0.5216 -0.5104
   92SAPS   C33 9028   0.257  -0.448   6.914  0.9123  0.1642  0.2192
   92SAPS   H3X 9029   0.349  -0.397   6.877  0.8109  1.4064  1.5876
   92SAPS   H3Y 9030   0.220  -0.516   6.834  1.4428  0.1481 -0.0189
   92SAPS   C34 9031   0.306  -0.527   7.037 -0.4676  0.2048 -0.9299
   92SAPS   H4X 9032   0.336  -0.622   6.988 -0.3654 -0.1071 -0.2716
   92SAPS   H4Y 9033   0.223  -0.548   7.108  1.7270  1.3642  2.2294
   92SAPS   C35 9034   0.430  -0.478   7.114 -0.2288 -0.1333 -0.5818
   92SAPS   H5X 9035   0.405  -0.380   7.161 -0.5759 -0.4239 -0.1573
   92SAPS   H5Y 9036   0.515  -0.471   7.042  1.1654 -1.6727  0.8215
   92SAPS   C36 9037   0.472  -0.578   7.222  0.4040 -0.2442 -0.2854
   92SAPS   H6X 9038   0.469  -0.682   7.182 -2.7023  0.6846 -2.8843
   92SAPS   H6Y 9039   0.392  -0.574   7.299 -0.2180  1.0062 -0.9624
   92SAPS   C37 9040   0.606  -0.535   7.285 -0.1811  0.4822 -0.2241
   92SAPS   H7X 9041   0.594  -0.436   7.335  0.9156 -0.9326  3.1052
   92SAPS   H7Y 9042   0.690  -0.523   7.213 -1.2315  3.8346 -1.0984
   92SAPS   C38 9043   0.656  -0.645   7.378  0.2704  0.4064 -0.1445
   92SAPS   H8X 9044   0.763  -0.640   7.406 -0.0831 -1.4675  1.7407
   92SAPS   H8Y 9045   0.641  -0.744   7.329 -0.6225 -1.2773  3.2283
   92SAPS   C39 9046   0.587  -0.632   7.521 -0.5767 -0.0990  0.5656
   92SAPS   H9X 9047   0.491  -0.687   7.510 -0.5666  0.3797 -3.1964
   92SAPS   H9Y 9048   0.570  -0.523   7.537 -0.0545  0.3898 -1.8932
   92SAPS  C310 9049   0.669  -0.694   7.644  0.0251 -0.2982  0.5723
   92SAPS  H10X 9050   0.771  -0.651   7.634 -0.4798  0.6048 -0.9699
   92SAPS  H10Y 9051   0.668  -0.804   7.631 -1.0370 -0.2177 -0.2303
   92SAPS  C311 9052   0.616  -0.652   7.784  0.1223 -0.5823  0.6020
   92SAPS  H11X 9053   0.516  -0.698   7.799  0.3309 -0.8230  1.3109
   92SAPS  H11Y 9054   0.593  -0.543   7.783  0.8172 -0.4322  0.2418
   92SAPS  C312 9055   0.719  -0.697   7.890  0.1027  0.0020  0.3245
   92SAPS  H12X 9056   0.815  -0.644   7.875  0.4526 -0.4617  0.8651
   92SAPS  H12Y 9057   0.729  -0.807   7.878 -2.3388 -0.1253 -1.2128
   92SAPS  C313 9058   0.683  -0.672   8.039 -0.3523 -0.0090 -0.8936
   92SAPS  H13X 9059   0.573  -0.683   8.047 -0.5715  2.7266  0.8460
   92SAPS  H13Y 9060   0.723  -0.575   8.074  1.5394 -0.6185 -1.2153
   92SAPS  C314 9061   0.742  -0.772   8.151  0.1720 -0.2513  0.0684
   92SAPS  H14X 9062   0.852  -0.757   8.145 -0.0770  1.1804 -2.7631
   92SAPS  H14Y 9063   0.718  -0.874   8.114 -0.1301 -0.0508 -0.3026
   92SAPS  C315 9064   0.685  -0.737   8.291  0.4287  0.7288  0.0632
   92SAPS  H15X 9065   0.584  -0.781   8.310  1.4828 -1.2777  1.3941
   92SAPS  H15Y 9066   0.678  -0.626   8.299  0.6262  0.6223  2.1433
   92SAPS  C316 9067   0.776  -0.775   8.402 -0.1220 -0.3325 -0.0571
   92SAPS  H16X 9068   0.765  -0.700   8.483 -0.7579  1.6024 -1.8315
   92SAPS  H16Y 9069   0.881  -0.790   8.368  0.1517  1.9491 -0.4154
   92SAPS  C317 9070   0.740  -0.918   8.454 -0.1297  0.1957 -0.0950
   92SAPS  H17X 9071   0.770  -0.983   8.369  4.6452 -0.1018  1.5452
   92SAPS  H17Y 9072   0.631  -0.921   8.478  0.0819 -1.8843  0.7608
   92SAPS  C318 9073   0.811  -0.959   8.578  0.0880 -0.1736 -0.4174
   92SAPS  H18X 9074   0.765  -1.052   8.619 -2.5450  1.7939  1.3838
   92SAPS  H18Y 9075   0.809  -0.887   8.663 -0.8403 -0.2324 -0.3834
   92SAPS  H18Z 9076   0.915  -0.970   8.541  0.1542 -1.0212 -0.0105
   93SAPS     N 9077   0.941   6.703   6.427 -0.7300 -0.8632  0.1376
   93SAPS   HN1 9078   0.862   6.635   6.423 -1.9805  0.5789 -2.1039
   93SAPS   HN2 9079   1.028   6.658   6.390 -0.2040  0.3543 -0.1321
   93SAPS   HN3 9080   0.963   6.730   6.525  2.7540 -0.0974 -0.7310
   93SAPS   C12 9081   0.904   6.814   6.345 -0.0982 -0.3748  0.8294
   93SAPS  H12A 9082   0.989   6.880   6.337 -0.5609  0.1298 -0.0601
   93SAPS   C13 9083   0.874   6.780   6.199  0.2394 -0.8361 -0.0964
   93SAPS  O13A 9084   0.869   6.657   6.166 -0.3760 -0.1884  0.4314
   93SAPS  O13B 9085   0.810   6.865   6.132 -0.1081  0.3009  0.4720
   93SAPS   C11 9086   0.801   6.905   6.424  0.5665  0.5890  0.4895
   93SAPS  H11A 9087   0.708   6.848   6.442 -0.1332  2.2746  2.7439
   93SAPS  H11B 9088   0.764   6.978   6.349 -1.3107  0.2859  1.0842
   93SAPS     P 9089   0.889   7.114   6.549  0.1938  0.0878  0.3525
   93SAPS   O13 9090   1.015   7.127   6.471 -0.0217  0.1582  0.6643
   93SAPS   O14 9091   0.775   7.198   6.506  0.5356  0.0510  0.8376
   93SAPS   O12 9092   0.846   6.960   6.545 -0.1036 -0.2277  0.4317
   93SAPS   O11 9093   0.925   7.147   6.702  0.6622 -0.8617  0.4516
   93SAPS    C1 9094   0.959   7.047   6.789  0.0966  0.1984 -0.7289
   93SAPS    HA 9095   0.994   6.950   6.748  1.7442 -0.2253  1.4795
   93SAPS    HB 9096   1.051   7.084   6.840  0.6271 -2.5718  0.4809
   93SAPS    C2 9097   0.854   7.033   6.901  0.7749 -0.6276 -0.3996
   93SAPS    HS 9098   0.880   6.946   6.965 -1.2031 -1.2102 -0.3306
   93SAPS   O21 9099   0.729   6.994   6.841  0.3863 -0.0497  0.1646
   93SAPS   C21 9100   0.705   6.867   6.808 -0.3848 -1.0699  0.1049
   93SAPS   O22 9101   0.782   6.773   6.821 -0.4807 -0.0180 -0.2941
   93SAPS   C22 9102   0.576   6.852   6.744  0.4377  0.4262  0.2012
   93SAPS   H2R 9103   0.499   6.901   6.808 -1.7095 -1.1709 -1.0202
   93SAPS   H2S 9104   0.572   6.896   6.642 -0.2777 -0.0988 -0.0074
   93SAPS    C3 9105   0.822   7.158   6.978 -0.3325 -0.6644 -0.0736
   93SAPS    HX 9106   0.735   7.212   6.938 -0.3596 -0.4489  0.2727
   93SAPS    HY 9107   0.904   7.230   6.959 -0.0240 -0.1505  2.8118
   93SAPS   O31 9108   0.788   7.139   7.118  0.0389 -0.2578 -0.1477
   93SAPS   C31 9109   0.873   7.098   7.201  0.3927  0.1948 -0.2178
   93SAPS   O32 9110   0.991   7.077   7.177 -0.0570  0.2777 -0.3919
   93SAPS   C32 9111   0.806   7.074   7.341  1.1020 -0.8419 -0.6839
   93SAPS   H2X 9112   0.720   7.005   7.325  0.4970  0.1627 -1.9523
   93SAPS   H2Y 9113   0.773   7.174   7.378 -0.1495 -2.0743  1.8041
   93SAPS   C23 9114   0.532   6.702   6.727 -0.3556 -0.2989 -0.1421
   93SAPS   H3R 9115   0.621   6.642   6.699 -1.1981 -1.0252 -1.3156
   93SAPS   H3S 9116   0.475   6.708   6.632  1.0890  0.3943 -1.0054
   93SAPS   C24 9117   0.455   6.640   6.844  1.1920 -0.0372  0.0186
   93SAPS   H4R 9118   0.525   6.657   6.929  1.7721 -0.6788 -0.3160
   93SAPS   H4S 9119   0.462   6.530   6.828 -4.1358 -0.6471  0.2378
   93SAPS   C25 9120   0.315   6.704   6.853 -0.3060  0.1955 -0.4319
   93SAPS   H5R 9121   0.255   6.683   6.763 -0.9082 -3.0579  0.5777
   93SAPS   C26 9122   0.265   6.773   6.957  0.0458  0.1479 -0.1982
   93SAPS   H6R 9123   0.162   6.809   6.951  0.7393  2.3657  0.4286
   93SAPS   C27 9124   0.333   6.809   7.086 -0.2450  0.2322 -0.3995
   93SAPS   H7R 9125   0.270   6.881   7.143 -1.4367  0.0316 -1.4336
   93SAPS   H7S 9126   0.423   6.865   7.053 -0.4133  0.4257 -0.5334
   93SAPS   C28 9127   0.375   6.689   7.174 -0.0418 -0.5908  0.0026
   93SAPS   H8R 9128   0.374   6.593   7.121  1.5029 -0.6136 -0.0537
   93SAPS   C29 9129   0.422   6.697   7.303  0.1429  0.3772  0.3364
   93SAPS   H9R 9130   0.460   6.605   7.349  2.3307  1.2937  0.4704
   93SAPS  C210 9131   0.437   6.827   7.384  0.1435  0.7423  0.4637
   93SAPS  H10R 9132   0.408   6.920   7.330  1.1949  1.7686  1.6071
   93SAPS  H10S 9133   0.545   6.834   7.411  0.1693  0.5553  0.4106
   93SAPS  C211 9134   0.358   6.808   7.506  0.5484  0.2723 -0.0897
   93SAPS  H11R 9135   0.267   6.748   7.496 -2.0961  3.9839 -0.4714
   93SAPS  C212 9136   0.384   6.852   7.629  0.0871 -0.8403  0.1881
   93SAPS  H12R 9137   0.312   6.830   7.710 -0.6303 -0.0174 -0.2020
   93SAPS  C213 9138   0.495   6.944   7.674 -0.4807  0.1295 -0.8327
   93SAPS  H13R 9139   0.598   6.907   7.657 -1.2667 -1.5668 -2.2129
   93SAPS  H13S 9140   0.490   6.961   7.784 -0.6146  2.0006 -1.0908
   93SAPS  C214 9141   0.488   7.087   7.604  0.2484 -0.2377 -0.0579
   93SAPS  H14R 9142   0.527   7.092   7.502 -0.8842 -0.1999 -0.5063
   93SAPS  C215 9143   0.448   7.205   7.655  0.0343 -0.3565 -0.2255
   93SAPS  H15R 9144   0.440   7.289   7.584  1.9312  1.5060  1.6171
   93SAPS  C216 9145   0.403   7.229   7.797 -0.5637  0.1313  0.5813
   93SAPS  H16R 9146   0.383   7.133   7.849 -0.1338 -0.9645 -1.1939
   93SAPS  H16S 9147   0.314   7.295   7.803 -0.4310  1.2545 -4.7529
   93SAPS  C217 9148   0.512   7.295   7.879 -0.0729 -0.0944 -0.2169
   93SAPS  H17R 9149   0.548   7.392   7.836 -1.5721  0.8765  0.6322
   93SAPS  H17S 9150   0.604   7.232   7.878 -0.0254 -0.1335  1.9466
   93SAPS  C218 9151   0.472   7.318   8.030 -0.5687 -0.3936 -0.2339
   93SAPS  H18R 9152   0.470   7.227   8.093 -0.0092  0.7045  1.4712
   93SAPS  H18S 9153   0.368   7.357   8.024 -1.1401 -1.8896 -0.5022
   93SAPS  C219 9154   0.572   7.411   8.097 -0.4766 -0.0600 -0.5524
   93SAPS  H19R 9155   0.555   7.510   8.049 -1.0574  0.0461 -0.1411
   93SAPS  H19S 9156   0.678   7.378   8.088 -0.4072 -0.7766  1.9210
   93SAPS  C220 9157   0.545   7.426   8.247  0.1014 -0.4981 -0.5202
   93SAPS  H20R 9158   0.585   7.514   8.302  0.8575 -1.2293  0.1458
   93SAPS  H20S 9159   0.594   7.344   8.305  0.3837 -1.3831 -1.9586
   93SAPS  H20T 9160   0.437   7.416   8.268  0.2756  0.7557  1.1719
   93SAPS   C33 9161   0.905   7.000   7.430 -0.0011 -0.5171  0.3445
   93SAPS   H3X 9162   1.000   7.057   7.427 -1.1895  1.5236 -0.2792
   93SAPS   H3Y 9163   0.915   6.899   7.385 -2.0268  0.4711 -2.6050
   93SAPS   C34 9164   0.869   6.981   7.575  0.1657  0.1684 -1.2125
   93SAPS   H4X 9165   0.794   6.901   7.592  1.6385 -1.0029  0.0912
   93SAPS   H4Y 9166   0.809   7.070   7.602 -0.3368 -0.4820 -0.1231
   93SAPS   C35 9167   0.988   6.960   7.676 -0.2719  0.2548  0.0442
   93SAPS   H5X 9168   1.046   7.054   7.666  1.3229 -0.5125  1.5146
   93SAPS   H5Y 9169   1.037   6.874   7.626  0.6243  1.2914 -0.9003
   93SAPS   C36 9170   0.938   6.928   7.821 -0.0036  0.0002  0.4880
   93SAPS   H6X 9171   1.026   6.898   7.883 -1.5935 -2.1999  1.8300
   93SAPS   H6Y 9172   0.872   6.840   7.830 -2.0208  1.2890 -0.8690
   93SAPS   C37 9173   0.870   7.052   7.893 -0.5775  0.9535 -0.1238
   93SAPS   H7X 9174   0.780   7.081   7.834 -1.6593 -0.7067  0.6317
   93SAPS   H7Y 9175   0.937   7.137   7.918 -0.3538  1.2595 -1.6808
   93SAPS   C38 9176   0.818   7.007   8.037 -0.9915 -0.4413  0.6118
   93SAPS   H8X 9177   0.744   6.925   8.033 -1.9878  0.4161  1.0504
   93SAPS   H8Y 9178   0.763   7.097   8.074  1.6474  0.8761  1.5844
   93SAPS   C39 9179   0.927   6.974   8.139  0.5862 -0.0034 -0.3226
   93SAPS   H9X 9180   0.994   7.062   8.134  1.1159 -0.1501  2.6369
   93SAPS   H9Y 9181   0.975   6.874   8.125 -1.3364 -1.3749  2.1034
   93SAPS  C310 9182   0.870   6.964   8.281  0.9502 -0.8224  0.1123
   93SAPS  H10X 9183   0.782   6.896   8.289 -0.1275  0.6877  1.6928
   93SAPS  H10Y 9184   0.822   7.062   8.302  1.2323 -0.0621 -2.4556
   93SAPS  C311 9185   0.969   6.933   8.399  0.2390 -1.2302  0.9802
   93SAPS  H11X 9186   1.063   6.991   8.391  0.9233 -2.3156  1.0162
   93SAPS  H11Y 9187   1.004   6.828   8.393  1.6211 -0.6970 -2.8442
   93SAPS  C312 9188   0.896   6.978   8.530  0.2279 -0.3718  0.5266
   93SAPS  H12X 9189   0.852   7.079   8.518  3.6396  1.4377  1.9063
   93SAPS  H12Y 9190   0.973   6.985   8.610 -2.5525 -2.0495  3.6135
   93SAPS  C313 9191   0.784   6.884   8.570 -0.2197 -0.8314 -0.0037
   93SAPS  H13X 9192   0.826   6.782   8.559  1.2018 -0.6567  2.9892
   93SAPS  H13Y 9193   0.705   6.905   8.494  0.7136  1.3743 -0.4447
   93SAPS  C314 9194   0.737   6.903   8.710  0.4498 -0.0339  0.3098
   93SAPS  H14X 9195   0.708   7.009   8.726 -0.5304 -0.4961  1.9052
   93SAPS  H14Y 9196   0.812   6.889   8.792  0.9248 -1.1120 -0.2817
   93SAPS  C315 9197   0.600   6.834   8.747  0.6568  0.3090 -0.3293
   93SAPS  H15X 9198   0.526   6.864   8.669 -0.3250  1.0227  0.8433
   93SAPS  H15Y 9199   0.559   6.865   8.845 -0.4157  0.6115 -0.8510
   93SAPS  C316 9200   0.611   6.684   8.724  0.6307  0.3553  0.0802
   93SAPS  H16X 9201   0.645   6.665   8.620 -0.5090  0.7326 -0.3856
   93SAPS  H16Y 9202   0.507   6.648   8.738  0.1946  1.1423 -0.9411
   93SAPS  C317 9203   0.704   6.611   8.825  0.3193 -0.3367  0.0702
   93SAPS  H17X 9204   0.719   6.691   8.901  0.9452  1.2315 -1.6345
   93SAPS  H17Y 9205   0.801   6.594   8.774 -1.3377 -0.5099 -3.2872
   93SAPS  C318 9206   0.644   6.481   8.876  0.2946 -0.0542  0.1028
   93SAPS  H18X 9207   0.724   6.413   8.912  0.1531 -0.7577 -0.8914
   93SAPS  H18Y 9208   0.617   6.435   8.779  1.3681 -0.0135 -0.2274
   93SAPS  H18Z 9209   0.547   6.477   8.930 -1.0250  2.3780 -1.8668
   94SAPS     N 9210   0.522   3.348   5.537  0.3107  0.6234 -0.3239
   94SAPS   HN1 9211   0.556   3.252   5.513 -1.4516 -0.3043  0.6484
   94SAPS   HN2 9212   0.466   3.356   5.624 -0.4296 -0.0226 -0.7210
   94SAPS   HN3 9213   0.458   3.362   5.456  0.5751  0.6968 -0.5224
   94SAPS   C12 9214   0.635   3.446   5.538 -0.3603  0.7675  0.0907
   94SAPS  H12A 9215   0.684   3.442   5.441  2.9407  1.6002  1.5891
   94SAPS   C13 9216   0.585   3.592   5.557 -0.3101  0.2999 -0.4908
   94SAPS  O13A 9217   0.468   3.623   5.565  0.0541  0.3999 -0.2333
   94SAPS  O13B 9218   0.675   3.678   5.584  0.6287  0.1389  0.0079
   94SAPS   C11 9219   0.744   3.404   5.649 -0.0260  0.1335  1.1546
   94SAPS  H11A 9220   0.822   3.482   5.639  1.5390 -1.1280  2.9059
   94SAPS  H11B 9221   0.794   3.311   5.615  1.5878  2.0157 -2.0439
   94SAPS     P 9222   0.672   3.259   5.848 -0.0029 -0.1043 -0.0497
   94SAPS   O13 9223   0.555   3.194   5.784 -0.0129  0.3046 -0.0472
   94SAPS   O14 9224   0.808   3.197   5.843 -0.5339 -0.2444 -0.2270
   94SAPS   O12 9225   0.683   3.403   5.781 -0.1051  0.1527  0.1115
   94SAPS   O11 9226   0.632   3.293   6.005  0.0881 -0.2073  0.0551
   94SAPS    C1 9227   0.570   3.413   6.049  0.5403  1.1171 -0.1733
   94SAPS    HA 9228   0.580   3.505   5.989  0.7992  1.5582  0.5320
   94SAPS    HB 9229   0.462   3.387   6.039  0.7066 -0.1659  1.0073
   94SAPS    C2 9230   0.589   3.443   6.196  0.1146 -0.2235 -0.7051
   94SAPS    HS 9231   0.698   3.465   6.202  0.0349  0.1195 -0.4457
   94SAPS   O21 9232   0.535   3.336   6.278 -0.1999 -0.0842 -0.3680
   94SAPS   C21 9233   0.616   3.309   6.382  0.2956 -0.4158  1.4989
   94SAPS   O22 9234   0.717   3.367   6.405  0.2813 -0.6038 -0.5104
   94SAPS   C22 9235   0.552   3.191   6.459  0.0647  0.6184 -0.1668
   94SAPS   H2R 9236   0.454   3.223   6.500 -1.0184 -3.9283  1.3932
   94SAPS   H2S 9237   0.536   3.111   6.383 -0.0934 -0.6035  1.1008
   94SAPS    C3 9238   0.506   3.578   6.233 -0.9048  0.0977  0.7366
   94SAPS    HX 9239   0.402   3.568   6.196 -0.7068 -3.4817  0.7885
   94SAPS    HY 9240   0.555   3.662   6.177  0.1078 -1.0410 -0.1459
   94SAPS   O31 9241   0.505   3.602   6.372 -0.3625 -0.2766 -0.0816
   94SAPS   C31 9242   0.398   3.553   6.437  0.4854  0.3862  0.0395
   94SAPS   O32 9243   0.306   3.484   6.394  0.1783 -0.4576 -0.3704
   94SAPS   C32 9244   0.405   3.605   6.573  0.8925 -0.3073 -0.2753
   94SAPS   H2X 9245   0.339   3.542   6.637 -0.0890  1.3857  0.4392
   94SAPS   H2Y 9246   0.348   3.701   6.569 -1.6013 -1.7107 -0.9873
   94SAPS   C23 9247   0.633   3.146   6.583 -0.2111 -0.5506 -0.1593
   94SAPS   H3R 9248   0.731   3.095   6.568 -0.2622 -0.3953 -1.0183
   94SAPS   H3S 9249   0.582   3.054   6.617  0.4233 -1.0942 -0.6704
   94SAPS   C24 9250   0.620   3.240   6.708 -0.7245 -0.4296  1.3670
   94SAPS   H4R 9251   0.515   3.227   6.741 -1.3237  1.5818  0.3981
   94SAPS   H4S 9252   0.624   3.345   6.670  0.6569  0.6319  4.1242
   94SAPS   C25 9253   0.716   3.198   6.814 -0.2287  0.4526 -0.3789
   94SAPS   H5R 9254   0.806   3.157   6.765 -2.0475 -2.5347 -1.5345
   94SAPS   C26 9255   0.708   3.202   6.949 -0.3810  0.3724 -0.0084
   94SAPS   H6R 9256   0.795   3.172   7.008 -0.5485  2.0178  1.1321
   94SAPS   C27 9257   0.599   3.270   7.028  0.2946  0.0192 -0.0335
   94SAPS   H7R 9258   0.520   3.200   7.064 -0.3198  0.9944  0.5677
   94SAPS   H7S 9259   0.551   3.351   6.970  2.5375  2.7769  1.7317
   94SAPS   C28 9260   0.650   3.353   7.144 -0.2359 -0.2992 -0.0283
   94SAPS   H8R 9261   0.686   3.453   7.118 -0.9248 -0.7107 -2.8491
   94SAPS   C29 9262   0.654   3.318   7.274  0.5048 -0.5217  0.1490
   94SAPS   H9R 9263   0.695   3.396   7.339  0.2051 -0.3750  0.1632
   94SAPS  C210 9264   0.602   3.184   7.328  0.1314  0.9887  1.0785
   94SAPS  H10R 9265   0.573   3.108   7.252  0.6573 -0.7517  2.5658
   94SAPS  H10S 9266   0.506   3.197   7.382 -0.7935  2.5247 -0.7652
   94SAPS  C211 9267   0.708   3.120   7.404 -0.5473  0.1940 -0.4456
   94SAPS  H11R 9268   0.793   3.079   7.346 -0.2791  1.8931 -1.2949
   94SAPS  C212 9269   0.725   3.125   7.542  0.0587 -0.0069 -0.2517
   94SAPS  H12R 9270   0.812   3.075   7.586 -0.6298 -2.0179 -1.0514
   94SAPS  C213 9271   0.634   3.185   7.646 -0.3169  0.2455  0.4413
   94SAPS  H13R 9272   0.563   3.106   7.680 -1.5711  1.6076  1.0892
   94SAPS  H13S 9273   0.562   3.255   7.598 -2.4585  0.7695  4.0588
   94SAPS  C214 9274   0.707   3.258   7.756 -0.7379 -0.0890  0.1457
   94SAPS  H14R 9275   0.753   3.354   7.728 -0.8172  0.4934  1.9041
   94SAPS  C215 9276   0.708   3.239   7.891  0.0586  0.0904  0.7142
   94SAPS  H15R 9277   0.784   3.298   7.944  1.3345  1.1017 -2.0532
   94SAPS  C216 9278   0.629   3.129   7.959 -0.4458  0.4828 -0.1875
   94SAPS  H16R 9279   0.699   3.043   7.954 -1.3552 -0.4507  2.1175
   94SAPS  H16S 9280   0.535   3.108   7.904  0.6810  0.1770 -2.1340
   94SAPS  C217 9281   0.589   3.167   8.104  0.0957 -0.2477  0.3472
   94SAPS  H17R 9282   0.485   3.205   8.103  0.5231  0.9972 -1.8267
   94SAPS  H17S 9283   0.654   3.246   8.147 -1.0905  0.8053  0.2559
   94SAPS  C218 9284   0.608   3.042   8.192 -0.1243  0.3576  0.5893
   94SAPS  H18R 9285   0.529   2.974   8.155  0.7153 -0.1974 -0.2233
   94SAPS  H18S 9286   0.574   3.073   8.293  0.2244  2.3226  0.1408
   94SAPS  C219 9287   0.747   2.974   8.196 -0.6196  0.5940  0.5395
   94SAPS  H19R 9288   0.808   3.058   8.236 -0.1456  0.8018 -0.5937
   94SAPS  H19S 9289   0.787   2.940   8.099 -1.1850 -0.3181  0.6172
   94SAPS  C220 9290   0.766   2.850   8.290  0.5029 -0.6025 -0.5480
   94SAPS  H20R 9291   0.729   2.884   8.389 -0.2145  0.4233 -1.1512
   94SAPS  H20S 9292   0.873   2.821   8.300  0.1758 -1.6523  0.1440
   94SAPS  H20T 9293   0.696   2.770   8.256 -1.9548  0.8062  0.8941
   94SAPS   C33 9294   0.540   3.634   6.639  1.3154  0.5010 -0.1097
   94SAPS   H3X 9295   0.574   3.735   6.607  1.0935  1.2644  1.9450
   94SAPS   H3Y 9296   0.614   3.557   6.609 -0.7752 -1.3866 -0.6603
   94SAPS   C34 9297   0.533   3.626   6.790 -0.3229 -0.6951  0.0619
   94SAPS   H4X 9298   0.516   3.523   6.828 -1.6897  0.0627  1.6758
   94SAPS   H4Y 9299   0.460   3.699   6.831  0.5523 -0.4225  1.1856
   94SAPS   C35 9300   0.679   3.678   6.833  0.2685  0.6323  0.0044
   94SAPS   H5X 9301   0.702   3.773   6.780  0.1007 -0.3240 -1.8474
   94SAPS   H5Y 9302   0.751   3.596   6.811 -1.8530 -1.5185  0.7071
   94SAPS   C36 9303   0.690   3.700   6.988 -0.4870  0.5344 -0.5724
   94SAPS   H6X 9304   0.796   3.705   7.021 -0.9971  1.5619  1.0056
   94SAPS   H6Y 9305   0.641   3.610   7.031  2.4550 -1.1981 -0.5688
   94SAPS   C37 9306   0.620   3.827   7.033 -0.2726 -0.0272  0.3091
   94SAPS   H7X 9307   0.517   3.806   6.997 -0.7310 -0.4425  1.8104
   94SAPS   H7Y 9308   0.661   3.910   6.972  0.8991 -1.6846 -1.3062
   94SAPS   C38 9309   0.619   3.852   7.187  0.3598  0.3125  0.8797
   94SAPS   H8X 9310   0.568   3.949   7.206 -1.6704 -0.0809 -2.0318
   94SAPS   H8Y 9311   0.728   3.859   7.211  0.6188  2.6155 -0.6320
   94SAPS   C39 9312   0.531   3.751   7.259 -0.2752  0.6568  0.1811
   94SAPS   H9X 9313   0.553   3.645   7.235 -1.3980  0.5553 -0.4729
   94SAPS   H9Y 9314   0.427   3.759   7.222 -0.2545 -0.9768 -0.3030
   94SAPS  C310 9315   0.533   3.767   7.411  0.1026  0.3701  0.7589
   94SAPS  H10X 9316   0.446   3.706   7.443  1.2455 -2.6410 -1.3909
   94SAPS  H10Y 9317   0.525   3.873   7.444 -0.2633  0.8340 -0.7538
   94SAPS  C311 9318   0.656   3.704   7.472  1.2169 -0.0498  0.1737
   94SAPS  H11X 9319   0.744   3.764   7.441  1.7999 -1.2174 -0.4904
   94SAPS  H11Y 9320   0.671   3.602   7.431  0.8456 -0.4501  1.0144
   94SAPS  C312 9321   0.658   3.705   7.629 -0.2667 -0.5872  0.5794
   94SAPS  H12X 9322   0.620   3.806   7.655 -0.6296 -0.7545  0.7055
   94SAPS  H12Y 9323   0.761   3.685   7.665  0.6054  0.7462 -1.0177
   94SAPS  C313 9324   0.564   3.600   7.685  0.2990 -0.1025 -0.0254
   94SAPS  H13X 9325   0.582   3.497   7.649  1.6377  0.1626 -0.1373
   94SAPS  H13Y 9326   0.460   3.619   7.651  0.5515 -0.1653 -0.8536
   94SAPS  C314 9327   0.573   3.583   7.832 -0.1357 -0.5749 -0.9438
   94SAPS  H14X 9328   0.567   3.686   7.875  2.7115 -0.3076 -0.9631
   94SAPS  H14Y 9329   0.676   3.549   7.857  0.4774  1.5117 -0.4182
   94SAPS  C315 9330   0.458   3.495   7.898 -0.3751 -0.7383  0.0098
   94SAPS  H15X 9331   0.482   3.388   7.887 -0.5265 -0.7193 -0.5486
   94SAPS  H15Y 9332   0.364   3.520   7.843  0.6308 -0.3630 -1.6074
   94SAPS  C316 9333   0.429   3.515   8.051  0.0595 -0.1619  0.5304
   94SAPS  H16X 9334   0.438   3.624   8.071  0.6579 -0.2152  0.5527
   94SAPS  H16Y 9335   0.508   3.468   8.112  0.5463 -1.6086 -1.1555
   94SAPS  C317 9336   0.290   3.472   8.095  0.1477 -0.1166 -0.5546
   94SAPS  H17X 9337   0.295   3.364   8.069 -1.1981 -0.7190  1.4752
   94SAPS  H17Y 9338   0.218   3.523   8.028  1.6334  0.4147 -1.8111
   94SAPS  C318 9339   0.270   3.514   8.234 -0.2026  0.7546 -0.4531
   94SAPS  H18X 9340   0.257   3.624   8.240 -2.2076  0.4968  1.0467
   94SAPS  H18Y 9341   0.354   3.488   8.302  0.2533  2.7395 -0.1912
   94SAPS  H18Z 9342   0.188   3.465   8.291  0.6610 -2.4150 -1.7621
   95SAPS     N 9343   2.866   0.437   5.928  0.2367 -0.1312 -0.0998
   95SAPS   HN1 9344   2.801   0.512   5.961 -1.9127 -1.5099 -0.9439
   95SAPS   HN2 9345   2.854   0.420   5.826  1.2646  1.2098 -0.4696
   95SAPS   HN3 9346   2.828   0.354   5.978 -1.9194  0.7351 -0.1684
   95SAPS   C12 9347   3.010   0.467   5.964 -0.0051  0.6220  0.1488
   95SAPS  H12A 9348   3.062   0.380   5.926 -1.0914 -1.3014  2.7251
   95SAPS   C13 9349   3.059   0.593   5.890 -0.3895  0.2205 -0.1702
   95SAPS  O13A 9350   2.989   0.631   5.794 -0.3011 -0.2540 -0.1652
   95SAPS  O13B 9351   3.184   0.619   5.908  0.4264 -0.3123 -0.6272
   95SAPS   C11 9352   3.024   0.475   6.116 -0.3314 -0.1204 -0.0249
   95SAPS  H11A 9353   2.944   0.539   6.158 -0.0238  0.3094 -0.0888
   95SAPS  H11B 9354   3.119   0.526   6.145 -0.4077  0.5232 -0.8724
   95SAPS     P 9355   3.153   0.281   6.226 -0.1905 -0.1883 -0.2544
   95SAPS   O13 9356   3.131   0.142   6.277  0.0573 -0.1242 -0.5242
   95SAPS   O14 9357   3.261   0.312   6.129 -0.7300 -0.5799 -0.5987
   95SAPS   O12 9358   3.023   0.339   6.165  0.0527  0.1069 -0.2160
   95SAPS   O11 9359   3.152   0.381   6.353  0.0628 -0.1682  0.7294
   95SAPS    C1 9360   3.043   0.385   6.447 -0.2025  0.8015  0.0701
   95SAPS    HA 9361   2.950   0.404   6.390  0.6054 -0.9244 -1.9516
   95SAPS    HB 9362   3.039   0.283   6.490  1.3399  0.2995 -0.9046
   95SAPS    C2 9363   3.059   0.496   6.558  0.2600 -0.1594 -0.4354
   95SAPS    HS 9364   3.097   0.595   6.524 -0.2483  0.0080 -0.5274
   95SAPS   O21 9365   3.149   0.450   6.658 -0.1049 -0.0581 -0.1357
   95SAPS   C21 9366   3.175   0.540   6.751  0.0827  0.3569 -0.2710
   95SAPS   O22 9367   3.151   0.657   6.754  0.0483 -0.3056 -0.6852
   95SAPS   C22 9368   3.257   0.466   6.864 -0.2613  0.2722 -0.3621
   95SAPS   H2R 9369   3.187   0.403   6.923  0.8799  0.3544  1.1442
   95SAPS   H2S 9370   3.332   0.412   6.804  0.2974  0.9486 -0.2893
   95SAPS    C3 9371   2.915   0.519   6.625  0.2082  0.0346 -0.7010
   95SAPS    HX 9372   2.849   0.562   6.546  2.2981  2.5141 -1.2404
   95SAPS    HY 9373   2.929   0.584   6.714  2.2272 -0.9910 -0.2081
   95SAPS   O31 9374   2.853   0.390   6.667  0.4526  0.1462 -0.0360
   95SAPS   C31 9375   2.875   0.356   6.797  0.7353 -0.6801  0.5650
   95SAPS   O32 9376   2.926   0.429   6.881 -0.2977 -0.2975  0.6448
   95SAPS   C32 9377   2.823   0.215   6.818  0.5698  0.7143  0.0277
   95SAPS   H2X 9378   2.909   0.145   6.819 -0.6705 -0.8535  0.9438
   95SAPS   H2Y 9379   2.759   0.187   6.731 -2.8220  2.7025  1.6508
   95SAPS   C23 9380   3.328   0.564   6.958 -0.2198 -0.2032  0.5717
   95SAPS   H3R 9381   3.381   0.648   6.909 -0.5190 -1.1032 -1.3916
   95SAPS   H3S 9382   3.410   0.503   7.001  1.0965 -0.9057 -2.6654
   95SAPS   C24 9383   3.250   0.623   7.075 -0.7493 -0.0728  0.0330
   95SAPS   H4R 9384   3.176   0.693   7.031 -0.3805 -0.2513 -0.9016
   95SAPS   H4S 9385   3.318   0.686   7.136 -0.0221 -1.3818  0.6394
   95SAPS   C25 9386   3.196   0.523   7.178  0.2508 -0.7053  0.4868
   95SAPS   H5R 9387   3.123   0.454   7.133 -0.2712  0.0920  0.0817
   95SAPS   C26 9388   3.230   0.507   7.308 -0.1085 -0.0575  0.2002
   95SAPS   H6R 9389   3.173   0.437   7.371  0.2392  0.3925  1.0346
   95SAPS   C27 9390   3.329   0.592   7.385  0.1354  0.4551 -0.2871
   95SAPS   H7R 9391   3.282   0.644   7.471 -1.1917 -0.9355 -0.1182
   95SAPS   H7S 9392   3.366   0.674   7.320 -1.1770 -0.8311 -2.8063
   95SAPS   C28 9393   3.437   0.494   7.424 -0.4291 -0.0161  0.2179
   95SAPS   H8R 9394   3.507   0.461   7.345  1.0438  2.3488  0.4534
   95SAPS   C29 9395   3.462   0.461   7.550 -0.1695 -0.1149 -0.3234
   95SAPS   H9R 9396   3.526   0.373   7.566 -0.7579 -0.6886 -1.0654
   95SAPS  C210 9397   3.398   0.525   7.672  0.5977 -0.1236 -0.3787
   95SAPS  H10R 9398   3.401   0.635   7.677 -0.4461 -0.1057  0.1705
   95SAPS  H10S 9399   3.449   0.500   7.768 -0.0861  0.0933  0.0441
   95SAPS  C211 9400   3.256   0.477   7.691  0.0097  0.8112 -0.1739
   95SAPS  H11R 9401   3.183   0.512   7.616 -1.3463 -1.0250  0.2110
   95SAPS  C212 9402   3.213   0.390   7.786  0.1371 -0.0719 -0.0820
   95SAPS  H12R 9403   3.106   0.363   7.787  0.5277 -1.7340  0.8292
   95SAPS  C213 9404   3.296   0.324   7.884 -0.3992  0.4140  0.1297
   95SAPS  H13R 9405   3.228   0.292   7.966  0.2413 -2.2608 -0.2742
   95SAPS  H13S 9406   3.373   0.393   7.923 -0.3580  0.6188 -0.3103
   95SAPS  C214 9407   3.367   0.199   7.834  0.4319 -0.1454  0.4812
   95SAPS  H14R 9408   3.353   0.177   7.727  3.3366 -1.9298  0.3690
   95SAPS  C215 9409   3.447   0.118   7.901  0.5779  0.1117  0.1628
   95SAPS  H15R 9410   3.484   0.021   7.865  1.0686  0.8305 -1.3680
   95SAPS  C216 9411   3.487   0.127   8.045 -0.0724 -0.7994  0.3616
   95SAPS  H16R 9412   3.432   0.201   8.107 -1.3568 -1.8916  0.5677
   95SAPS  H16S 9413   3.593   0.157   8.038 -0.0821 -0.9532 -0.6305
   95SAPS  C217 9414   3.482  -0.012   8.116 -0.7181  0.5634  0.2089
   95SAPS  H17R 9415   3.531  -0.002   8.216 -1.7229 -1.7717  1.0007
   95SAPS  H17S 9416   3.534  -0.091   8.058 -0.9214  1.4193 -1.1656
   95SAPS  C218 9417   3.343  -0.065   8.146 -0.0097 -0.8736  0.2490
   95SAPS  H18R 9418   3.298  -0.088   8.047  1.8435 -0.2673 -0.7859
   95SAPS  H18S 9419   3.273  -0.001   8.204  1.6769 -0.5061  1.9870
   95SAPS  C219 9420   3.355  -0.208   8.216 -0.5728 -0.6928 -0.6000
   95SAPS  H19R 9421   3.411  -0.201   8.312  1.4440 -0.5889 -1.7285
   95SAPS  H19S 9422   3.418  -0.278   8.157 -0.9591 -1.2775 -0.3339
   95SAPS  C220 9423   3.226  -0.275   8.255  0.0630  0.1025 -0.8090
   95SAPS  H20R 9424   3.232  -0.372   8.307  0.0706  0.5161 -0.0178
   95SAPS  H20S 9425   3.167  -0.291   8.162  2.1748  1.3135 -2.4496
   95SAPS  H20T 9426   3.173  -0.209   8.328  0.8993 -2.8279  2.7391
   95SAPS   C33 9427   2.769   0.181   6.959 -0.0270  0.1589 -0.6262
   95SAPS   H3X 9428   2.829   0.213   7.047 -1.6339  3.9679 -0.7402
   95SAPS   H3Y 9429   2.781   0.071   6.958 -1.8517 -0.0741 -2.0085
   95SAPS   C34 9430   2.625   0.223   6.970 -0.2646 -0.3771  0.4247
   95SAPS   H4X 9431   2.576   0.217   6.871  0.1394 -0.5669  0.2332
   95SAPS   H4Y 9432   2.626   0.329   7.004  0.7467 -0.5932  1.1167
   95SAPS   C35 9433   2.549   0.152   7.080 -0.2878  0.0591  0.8226
   95SAPS   H5X 9434   2.540   0.041   7.074 -0.7612  0.0495  1.5122
   95SAPS   H5Y 9435   2.441   0.178   7.079 -1.3163 -3.4596  2.3846
   95SAPS   C36 9436   2.600   0.182   7.223 -0.4862  0.4011  0.4408
   95SAPS   H6X 9437   2.604   0.291   7.241  0.5575  0.3818  0.3923
   95SAPS   H6Y 9438   2.703   0.141   7.233 -1.9191 -4.3578 -1.2561
   95SAPS   C37 9439   2.519   0.105   7.326 -0.6478  0.4325 -0.2858
   95SAPS   H7X 9440   2.500  -0.003   7.307  0.7933 -0.0905  1.0021
   95SAPS   H7Y 9441   2.423   0.160   7.337 -0.6296  0.2594  0.8353
   95SAPS   C38 9442   2.584   0.107   7.471  0.5632 -0.3076 -0.0102
   95SAPS   H8X 9443   2.596   0.217   7.482 -2.1661  0.2405 -1.5353
   95SAPS   H8Y 9444   2.685   0.062   7.477  1.0406  0.7165 -0.2829
   95SAPS   C39 9445   2.499   0.053   7.582  0.4583  0.3674 -0.1694
   95SAPS   H9X 9446   2.490  -0.057   7.575 -2.9911  0.5837 -0.9014
   95SAPS   H9Y 9447   2.400   0.096   7.553  1.1033  1.8220 -0.3329
   95SAPS  C310 9448   2.537   0.102   7.716  0.1588  0.1705  0.6856
   95SAPS  H10X 9449   2.535   0.210   7.741  1.4748  0.1556  0.8942
   95SAPS  H10Y 9450   2.635   0.059   7.747  0.1119 -1.3314 -1.0795
   95SAPS  C311 9451   2.425   0.055   7.820 -0.4682 -0.2927 -0.2321
   95SAPS  H11X 9452   2.419  -0.055   7.826  0.0710 -0.3229 -0.1960
   95SAPS  H11Y 9453   2.331   0.095   7.778 -1.1263 -1.0429  0.5065
   95SAPS  C312 9454   2.449   0.111   7.963  0.5584 -0.5740  0.5419
   95SAPS  H12X 9455   2.488   0.214   7.956 -0.1989 -0.3684 -0.8469
   95SAPS  H12Y 9456   2.524   0.048   8.016 -0.5723 -2.8202 -0.3691
   95SAPS  C313 9457   2.324   0.116   8.046  0.0718 -0.0597  0.3253
   95SAPS  H13X 9458   2.316   0.016   8.093 -1.6400 -1.2094 -2.1838
   95SAPS  H13Y 9459   2.239   0.136   7.977  1.4830 -2.4752 -2.3476
   95SAPS  C314 9460   2.339   0.222   8.157  0.2533 -0.4881  0.2542
   95SAPS  H14X 9461   2.243   0.236   8.212  0.5851  0.6658  0.5661
   95SAPS  H14Y 9462   2.377   0.315   8.110  0.4077 -0.4246  0.5019
   95SAPS  C315 9463   2.422   0.164   8.272  0.4015 -0.0050 -0.4001
   95SAPS  H15X 9464   2.514   0.120   8.228  0.7806 -0.5610  0.9087
   95SAPS  H15Y 9465   2.381   0.077   8.328  3.9468 -0.8298  1.1771
   95SAPS  C316 9466   2.443   0.275   8.373 -0.2339 -0.9840  0.3261
   95SAPS  H16X 9467   2.355   0.280   8.440  1.0045  0.6567  1.9382
   95SAPS  H16Y 9468   2.462   0.370   8.318  1.7813 -2.1452 -1.0940
   95SAPS  C317 9469   2.570   0.254   8.452 -0.0845 -0.1331 -0.4009
   95SAPS  H17X 9470   2.656   0.256   8.382  0.8813 -1.7914  0.6720
   95SAPS  H17Y 9471   2.569   0.157   8.506  2.0490  0.2930  0.4711
   95SAPS  C318 9472   2.581   0.367   8.557  0.5220  0.1957 -0.2928
   95SAPS  H18X 9473   2.675   0.356   8.616 -1.0775 -3.1672  1.9654
   95SAPS  H18Y 9474   2.500   0.362   8.633  0.1031 -1.4283 -0.8186
   95SAPS  H18Z 9475   2.566   0.465   8.507 -0.6123  0.1762 -0.0122
   96SAPS     N 9476   3.964   1.285   6.529 -0.1335 -0.2185 -0.1148
   96SAPS   HN1 9477   3.933   1.190   6.501  0.5047 -0.5259  0.1853
   96SAPS   HN2 9478   4.059   1.271   6.569  0.8758 -1.9266 -2.8546
   96SAPS   HN3 9479   3.887   1.313   6.593  2.7581  2.7855  2.4550
   96SAPS   C12 9480   3.970   1.387   6.412  0.4150  0.4995 -0.1265
   96SAPS  H12A 9481   3.974   1.486   6.454 -0.9670  0.4713  0.1304
   96SAPS   C13 9482   4.082   1.365   6.311  0.3391  0.0879  0.5476
   96SAPS  O13A 9483   4.159   1.265   6.321  0.3708 -0.2654 -0.1491
   96SAPS  O13B 9484   4.097   1.446   6.212  0.9153 -0.5810 -0.2424
   96SAPS   C11 9485   3.828   1.368   6.330 -0.3765  0.3809  0.2601
   96SAPS  H11A 9486   3.817   1.258   6.313 -2.5809  0.3590  1.5469
   96SAPS  H11B 9487   3.836   1.426   6.236 -0.8117  1.1203  0.6726
   96SAPS     P 9488   3.652   1.549   6.355  0.3820 -0.3444 -0.1727
   96SAPS   O13 9489   3.748   1.655   6.361 -0.7425 -0.3441  0.0019
   96SAPS   O14 9490   3.570   1.530   6.234  0.6670 -0.1243 -0.1344
   96SAPS   O12 9491   3.715   1.416   6.407 -0.2928  0.3105  0.1122
   96SAPS   O11 9492   3.550   1.581   6.473 -0.2006  0.4816  0.8776
   96SAPS    C1 9493   3.565   1.498   6.583  0.2220  0.0704  0.0625
   96SAPS    HA 9494   3.534   1.394   6.561 -2.5870  0.1005  3.1602
   96SAPS    HB 9495   3.666   1.515   6.627 -0.1420  0.8558  0.6192
   96SAPS    C2 9496   3.464   1.550   6.693 -0.5526  0.5180 -0.2480
   96SAPS    HS 9497   3.361   1.554   6.651 -0.2855  0.4378 -0.9200
   96SAPS   O21 9498   3.500   1.683   6.728  0.2054 -0.0238  0.4655
   96SAPS   C21 9499   3.414   1.765   6.786 -0.2532 -0.3397 -0.1320
   96SAPS   O22 9500   3.297   1.743   6.825  0.0330 -0.1797 -0.8336
   96SAPS   C22 9501   3.471   1.908   6.791  0.3451 -0.5918  0.1929
   96SAPS   H2R 9502   3.581   1.895   6.797  0.7004  2.4374  2.0576
   96SAPS   H2S 9503   3.435   1.957   6.698 -0.8647  1.2638  1.5713
   96SAPS    C3 9504   3.473   1.435   6.802 -0.1632  0.0059 -0.7006
   96SAPS    HX 9505   3.578   1.398   6.803 -0.0668  0.2821 -0.1909
   96SAPS    HY 9506   3.417   1.346   6.767  1.5565 -1.3623 -0.0965
   96SAPS   O31 9507   3.437   1.484   6.934  0.1645 -0.2327  0.0466
   96SAPS   C31 9508   3.319   1.455   6.974  0.2262  0.2454 -1.0994
   96SAPS   O32 9509   3.231   1.403   6.911 -0.3396 -0.3320 -0.3286
   96SAPS   C32 9510   3.318   1.505   7.125  0.3071 -0.2603  0.5576
   96SAPS   H2X 9511   3.378   1.598   7.138  0.6489 -0.2445 -0.9645
   96SAPS   H2Y 9512   3.359   1.422   7.186 -2.6646 -1.2469  1.4024
   96SAPS   C23 9513   3.423   1.990   6.916 -0.4388 -0.0014  0.3279
   96SAPS   H3R 9514   3.319   1.971   6.950  0.2883 -2.6752  1.3181
   96SAPS   H3S 9515   3.430   2.097   6.885  1.4198 -0.2530 -0.2221
   96SAPS   C24 9516   3.515   1.988   7.044  0.0461  0.1785  1.1546
   96SAPS   H4R 9517   3.523   2.091   7.083  0.2870  0.3929  0.5478
   96SAPS   H4S 9518   3.617   1.956   7.011  0.7155  1.3505  2.0327
   96SAPS   C25 9519   3.482   1.889   7.144  0.0438  0.4211  0.1278
   96SAPS   H5R 9520   3.514   1.790   7.110  2.7840  0.5872  1.8884
   96SAPS   C26 9521   3.423   1.908   7.263 -0.3880  0.2071  0.6131
   96SAPS   H6R 9522   3.395   1.822   7.325  0.8458 -1.4509 -1.0082
   96SAPS   C27 9523   3.376   2.038   7.322 -0.2748 -0.0039 -0.6484
   96SAPS   H7R 9524   3.297   2.027   7.399  0.8417  0.7848  0.6579
   96SAPS   H7S 9525   3.343   2.109   7.243  1.4235  0.8189 -0.6478
   96SAPS   C28 9526   3.496   2.102   7.385 -0.3233 -0.9186 -1.2373
   96SAPS   H8R 9527   3.570   2.144   7.316  0.7674  0.3224  0.5989
   96SAPS   C29 9528   3.526   2.096   7.517  0.0079  0.3659 -0.3555
   96SAPS   H9R 9529   3.625   2.135   7.544  0.8956 -1.6733 -0.5275
   96SAPS  C210 9530   3.446   2.027   7.626 -0.5758 -0.5365  0.3771
   96SAPS  H10R 9531   3.413   1.933   7.578 -1.6011  0.0615 -0.0983
   96SAPS  H10S 9532   3.351   2.076   7.655 -1.8193 -1.7725 -1.4568
   96SAPS  C211 9533   3.531   1.991   7.748  0.6684 -0.5952 -0.0119
   96SAPS  H11R 9534   3.531   1.882   7.764 -0.3031 -0.4301  1.3236
   96SAPS  C212 9535   3.590   2.075   7.837 -0.3853 -0.1649  0.5008
   96SAPS  H12R 9536   3.650   2.020   7.912  0.0016  2.7348  2.5014
   96SAPS  C213 9537   3.599   2.228   7.848  0.1187 -0.0479  0.2772
   96SAPS  H13R 9538   3.537   2.252   7.937  2.7753  0.2596  2.1917
   96SAPS  H13S 9539   3.548   2.277   7.763  0.7321  0.6296  0.2816
   96SAPS  C214 9540   3.740   2.283   7.874 -0.0785  0.4751 -0.5988
   96SAPS  H14R 9541   3.765   2.357   7.797  2.6638  1.3071  0.9523
   96SAPS  C215 9542   3.821   2.262   7.979 -0.0568 -0.2931  0.7663
   96SAPS  H15R 9543   3.924   2.302   7.981  0.3727 -1.3747  1.1952
   96SAPS  C216 9544   3.790   2.176   8.091  0.2050 -1.1868  0.3909
   96SAPS  H16R 9545   3.814   2.069   8.074  0.7649 -0.7471 -1.8495
   96SAPS  H16S 9546   3.684   2.190   8.120 -0.1751  0.6889 -1.6303
   96SAPS  C217 9547   3.878   2.227   8.204 -0.2495  0.7385 -0.3680
   96SAPS  H17R 9548   3.863   2.332   8.236  0.1410  0.4130  0.9882
   96SAPS  H17S 9549   3.985   2.220   8.174  0.2259  0.9101  1.1877
   96SAPS  C218 9550   3.864   2.135   8.326  0.2063 -0.6894 -0.1127
   96SAPS  H18R 9551   3.865   2.028   8.297 -2.4596 -0.8561  0.1685
   96SAPS  H18S 9552   3.766   2.145   8.378  0.3222  0.6860 -0.1233
   96SAPS  C219 9553   3.973   2.161   8.437  0.5402 -0.4590 -0.4920
   96SAPS  H19R 9554   3.964   2.268   8.468  0.1817  0.0846 -2.3103
   96SAPS  H19S 9555   4.074   2.140   8.397 -0.0616 -1.1831 -1.6624
   96SAPS  C220 9556   3.932   2.072   8.550  0.2263  0.1769 -0.0533
   96SAPS  H20R 9557   3.917   1.965   8.525 -0.6302  0.5106 -1.0807
   96SAPS  H20S 9558   3.832   2.106   8.587  0.0645 -0.2019 -0.1353
   96SAPS  H20T 9559   4.000   2.086   8.637 -1.1698 -0.2973  1.1555
   96SAPS   C33 9560   3.174   1.534   7.168  0.1540 -0.0931 -0.7079
   96SAPS   H3X 9561   3.093   1.466   7.134 -0.1362 -0.0586 -0.0984
   96SAPS   H3Y 9562   3.144   1.627   7.116 -0.5262  0.1905  0.1569
   96SAPS   C34 9563   3.167   1.567   7.320  0.6976 -0.3062  0.2171
   96SAPS   H4X 9564   3.059   1.573   7.344  0.6220 -3.3725  1.0366
   96SAPS   H4Y 9565   3.201   1.671   7.336  0.0612 -0.1424  0.5531
   96SAPS   C35 9566   3.226   1.468   7.415 -0.0182 -0.7162 -0.0749
   96SAPS   H5X 9567   3.337   1.471   7.420 -0.0942  0.9517  2.7274
   96SAPS   H5Y 9568   3.196   1.367   7.379  0.5304 -0.6548 -0.7383
   96SAPS   C36 9569   3.181   1.480   7.565  0.0623 -0.0688  0.1163
   96SAPS   H6X 9570   3.071   1.491   7.555 -0.4120 -3.3006  0.4650
   96SAPS   H6Y 9571   3.236   1.565   7.609 -0.5268  1.2099 -1.5220
   96SAPS   C37 9572   3.208   1.354   7.654  0.1972 -0.5632  0.2655
   96SAPS   H7X 9573   3.315   1.326   7.669  0.5659  0.7578  0.2204
   96SAPS   H7Y 9574   3.177   1.267   7.591  1.0585  1.3045 -2.9404
   96SAPS   C38 9575   3.151   1.355   7.792  0.3137 -0.5165 -0.5181
   96SAPS   H8X 9576   3.136   1.248   7.819  0.3115 -0.6716 -1.1205
   96SAPS   H8Y 9577   3.051   1.403   7.793  0.6548  0.2549 -1.5782
   96SAPS   C39 9578   3.237   1.421   7.906  0.4731  0.0161  0.2164
   96SAPS   H9X 9579   3.229   1.531   7.887  0.1542 -0.3149 -1.8670
   96SAPS   H9Y 9580   3.345   1.396   7.905  0.7011  0.9371  0.4117
   96SAPS  C310 9581   3.175   1.409   8.045 -0.3404 -0.1926  0.6172
   96SAPS  H10X 9582   3.170   1.303   8.077  0.0430 -0.1252  0.9023
   96SAPS  H10Y 9583   3.071   1.448   8.044  0.5472  2.5127  2.7929
   96SAPS  C311 9584   3.270   1.479   8.143 -0.2753  0.6299 -0.4910
   96SAPS  H11X 9585   3.276   1.588   8.121  0.7753  0.8459  0.7684
   96SAPS  H11Y 9586   3.374   1.447   8.121  0.7309  2.3502  1.4031
   96SAPS  C312 9587   3.225   1.475   8.289  0.3590 -0.3550  0.4439
   96SAPS  H12X 9588   3.239   1.377   8.339 -2.3843 -0.6200  0.8509
   96SAPS  H12Y 9589   3.117   1.494   8.305 -0.1515 -1.6474 -1.1715
   96SAPS  C313 9590   3.304   1.574   8.380 -0.4794  0.3669  0.4484
   96SAPS  H13X 9591   3.286   1.677   8.343 -0.0256 -0.5688 -2.6285
   96SAPS  H13Y 9592   3.413   1.554   8.372 -0.4452  0.3019  1.0093
   96SAPS  C314 9593   3.272   1.567   8.529  0.1082  0.8440  0.2935
   96SAPS  H14X 9594   3.353   1.619   8.585  0.6607 -0.7234  0.9829
   96SAPS  H14Y 9595   3.279   1.458   8.545 -0.9289  0.4512 -1.5930
   96SAPS  C315 9596   3.137   1.623   8.579  0.1741 -0.6381 -0.0031
   96SAPS  H15X 9597   3.120   1.574   8.677  2.0787 -1.4502 -0.0317
   96SAPS  H15Y 9598   3.051   1.601   8.512  1.6159 -0.5445 -1.9946
   96SAPS  C316 9599   3.153   1.774   8.600 -0.3398 -0.5531 -0.3944
   96SAPS  H16X 9600   3.178   1.835   8.510  0.5531  0.4032  0.4755
   96SAPS  H16Y 9601   3.240   1.799   8.665 -0.3718  1.2824 -0.9984
   96SAPS  C317 9602   3.029   1.823   8.669  0.0021  1.1707 -0.7880
   96SAPS  H17X 9603   3.011   1.779   8.770  0.2562  1.8060 -0.4625
   96SAPS  H17Y 9604   2.943   1.799   8.602  1.1964 -2.5394 -1.1857
   96SAPS  C318 9605   3.023   1.974   8.694  0.0893 -0.3287  0.6406
   96SAPS  H18X 9606   3.109   1.995   8.762 -0.7285  2.2274  0.9862
   96SAPS  H18Y 9607   2.935   2.014   8.749 -2.2560 -0.7785 -2.5170
   96SAPS  H18Z 9608   3.033   2.040   8.605  0.8140 -0.5298  0.5642
   97SAPS     N 9609   4.776   0.392   6.563 -0.3614  0.1484  0.1134
   97SAPS   HN1 9610   4.691   0.386   6.623  0.7685  1.1497  1.9183
   97SAPS   HN2 9611   4.827   0.307   6.596 -2.7446 -0.4634  2.6173
   97SAPS   HN3 9612   4.831   0.476   6.592  1.0601 -0.4645 -0.6691
   97SAPS   C12 9613   4.721   0.402   6.420 -0.8452  0.4548 -0.1634
   97SAPS  H12A 9614   4.669   0.496   6.417 -1.4506  0.3693  3.5070
   97SAPS   C13 9615   4.832   0.401   6.315  0.0052 -0.1065 -0.4321
   97SAPS  O13A 9616   4.957   0.411   6.357 -0.0164  0.4712  0.1970
   97SAPS  O13B 9617   4.798   0.439   6.203  0.2805 -0.1530  0.4536
   97SAPS   C11 9618   4.619   0.280   6.403 -0.5397 -0.0178  0.0073
   97SAPS  H11A 9619   4.668   0.190   6.447 -0.2499  0.7701  1.3225
   97SAPS  H11B 9620   4.606   0.265   6.294 -1.1923  0.4974  0.0112
   97SAPS     P 9621   4.368   0.244   6.431  0.3331 -0.0545 -0.0094
   97SAPS   O13 9622   4.267   0.310   6.512 -0.0308 -0.0311  0.1082
   97SAPS   O14 9623   4.355   0.249   6.283  0.2697 -0.3249  0.0285
   97SAPS   O12 9624   4.500   0.311   6.472 -0.4841  0.3258  0.3439
   97SAPS   O11 9625   4.399   0.098   6.472  0.3907  0.8338 -0.1110
   97SAPS    C1 9626   4.453   0.068   6.601  0.9894 -0.2661  0.3480
   97SAPS    HA 9627   4.555   0.028   6.585  0.7872  0.0019 -1.9703
   97SAPS    HB 9628   4.475   0.158   6.663 -0.4805  1.3392 -1.3583
   97SAPS    C2 9629   4.356  -0.026   6.682  0.1720 -0.1381 -0.2779
   97SAPS    HS 9630   4.313  -0.103   6.614  0.1041  0.1099 -0.5185
   97SAPS   O21 9631   4.252   0.053   6.736 -0.4684  0.1870  0.5035
   97SAPS   C21 9632   4.135  -0.006   6.772 -0.5455 -0.5680 -0.5481
   97SAPS   O22 9633   4.119  -0.128   6.782  0.5189 -0.4704 -0.0223
   97SAPS   C22 9634   4.048   0.110   6.819 -0.2841 -0.0060  0.2684
   97SAPS   H2R 9635   4.087   0.201   6.768  0.4787  0.9483  2.4261
   97SAPS   H2S 9636   3.945   0.094   6.780 -0.8381 -3.1227  2.6896
   97SAPS    C3 9637   4.440  -0.112   6.785 -0.1557 -0.1473  0.6809
   97SAPS    HX 9638   4.522  -0.172   6.738  1.6378  1.4955  1.5562
   97SAPS    HY 9639   4.372  -0.188   6.828 -0.4960 -0.3040 -0.1107
   97SAPS   O31 9640   4.490  -0.018   6.887  0.7596  0.4296  0.9615
   97SAPS   C31 9641   4.604   0.028   6.879 -0.4880 -0.2477 -0.6040
   97SAPS   O32 9642   4.697  -0.012   6.806  0.2529  0.5795 -0.1307
   97SAPS   C32 9643   4.623   0.145   6.986  0.3123 -0.0983  0.7275
   97SAPS   H2X 9644   4.564   0.232   6.950  1.5756  1.4286  2.1391
   97SAPS   H2Y 9645   4.731   0.169   6.986  0.5402 -0.9923 -1.0513
   97SAPS   C23 9646   4.053   0.133   6.965 -0.2441  0.4638 -0.0544
   97SAPS   H3R 9647   4.020   0.043   7.021 -2.3701  2.1739  1.5829
   97SAPS   H3S 9648   3.983   0.213   6.994 -0.2792  0.2277  0.5369
   97SAPS   C24 9649   4.192   0.169   7.016  0.2414 -0.2846  0.7917
   97SAPS   H4R 9650   4.233   0.248   6.949  1.2921 -1.1350  0.4048
   97SAPS   H4S 9651   4.265   0.086   7.017 -0.4239 -0.8892  0.0733
   97SAPS   C25 9652   4.181   0.244   7.143  0.4825  0.2483  0.3848
   97SAPS   H5R 9653   4.163   0.351   7.125 -0.5239  0.1429  0.6830
   97SAPS   C26 9654   4.190   0.208   7.271 -0.1321 -0.0529  0.1822
   97SAPS   H6R 9655   4.176   0.284   7.349 -2.1854 -0.5090  0.3076
   97SAPS   C27 9656   4.219   0.075   7.327 -0.0509  1.0364 -0.2132
   97SAPS   H7R 9657   4.327   0.063   7.346 -0.4177 -0.2363  1.3470
   97SAPS   H7S 9658   4.206  -0.007   7.253 -0.5376  3.1505 -2.6038
   97SAPS   C28 9659   4.123   0.047   7.445 -0.2875 -0.8985  0.7121
   97SAPS   H8R 9660   4.033  -0.007   7.413  0.0999 -0.3159 -1.5608
   97SAPS   C29 9661   4.148   0.080   7.574 -0.3532 -0.1541  0.0125
   97SAPS   H9R 9662   4.072   0.060   7.651 -2.1230  1.8526 -1.1164
   97SAPS  C210 9663   4.276   0.141   7.636  0.4961 -0.2332  0.0599
   97SAPS  H10R 9664   4.369   0.139   7.575  1.7607 -1.6457  1.9156
   97SAPS  H10S 9665   4.297   0.084   7.729 -0.3274  0.5506  0.7460
   97SAPS  C211 9666   4.253   0.281   7.680  0.4515  0.6779 -0.8921
   97SAPS  H11R 9667   4.249   0.354   7.598 -0.1782  1.3746 -0.2681
   97SAPS  C212 9668   4.233   0.330   7.809  0.0028  0.1928  0.7023
   97SAPS  H12R 9669   4.234   0.438   7.827  1.1049  0.3111  0.0224
   97SAPS  C213 9670   4.229   0.246   7.932 -0.1162 -0.0935  0.1175
   97SAPS  H13R 9671   4.212   0.141   7.901  1.2676  0.1492 -1.6256
   97SAPS  H13S 9672   4.139   0.277   7.989  1.4656 -0.1716  2.8056
   97SAPS  C214 9673   4.339   0.251   8.031  0.2844 -0.7177 -0.3380
   97SAPS  H14R 9674   4.439   0.289   8.005  0.1627 -0.7451 -0.8500
   97SAPS  C215 9675   4.343   0.208   8.155 -0.6103  0.3856  0.6051
   97SAPS  H15R 9676   4.442   0.214   8.204 -0.0369  0.9024 -0.5708
   97SAPS  C216 9677   4.232   0.139   8.224 -0.0651  0.8582 -0.1477
   97SAPS  H16R 9678   4.278   0.050   8.273 -2.7159 -1.4174 -1.5107
   97SAPS  H16S 9679   4.164   0.108   8.142 -0.4627  0.3812  0.3564
   97SAPS  C217 9680   4.144   0.216   8.321 -0.3358 -0.1831  0.3832
   97SAPS  H17R 9681   4.109   0.313   8.280 -0.1257 -0.0358  0.5480
   97SAPS  H17S 9682   4.208   0.252   8.405  0.3023 -0.2487 -0.0651
   97SAPS  C218 9683   4.029   0.131   8.369  0.6724  0.1480 -0.6054
   97SAPS  H18R 9684   4.065   0.028   8.392  1.5809  0.0627 -2.2179
   97SAPS  H18S 9685   3.951   0.117   8.291 -0.5153  1.9304  0.2065
   97SAPS  C219 9686   3.959   0.187   8.488 -0.2561  0.2822 -0.0978
   97SAPS  H19R 9687   3.917   0.285   8.457 -3.6289 -0.7244  0.8990
   97SAPS  H19S 9688   4.028   0.203   8.573  2.5184 -2.1873 -1.6874
   97SAPS  C220 9689   3.833   0.100   8.529 -1.2881 -0.3720  0.7352
   97SAPS  H20R 9690   3.860   0.001   8.571 -0.2104 -0.4522 -0.1041
   97SAPS  H20S 9691   3.782   0.071   8.435 -1.4961  0.5432  0.5607
   97SAPS  H20T 9692   3.763   0.161   8.589 -1.8453 -0.6173  0.3422
   97SAPS   C33 9693   4.589   0.096   7.132 -0.2184 -0.6486  0.4695
   97SAPS   H3X 9694   4.647   0.010   7.172  0.4994  0.0377  0.9211
   97SAPS   H3Y 9695   4.483   0.064   7.139 -0.3286 -0.2464  0.6716
   97SAPS   C34 9696   4.617   0.215   7.227 -0.1176 -0.0757 -0.0379
   97SAPS   H4X 9697   4.551   0.294   7.186  1.3938  1.2418 -0.0201
   97SAPS   H4Y 9698   4.721   0.250   7.209  0.0594  0.0497  1.1409
   97SAPS   C35 9699   4.607   0.173   7.377 -0.0566  1.1354 -0.6521
   97SAPS   H5X 9700   4.695   0.118   7.417 -2.9298 -0.3451  4.5023
   97SAPS   H5Y 9701   4.515   0.114   7.396 -0.0966  1.4989  0.3440
   97SAPS   C36 9702   4.616   0.295   7.473  0.0016 -0.1977 -0.0857
   97SAPS   H6X 9703   4.523   0.353   7.455  1.2089  1.7897 -0.2797
   97SAPS   H6Y 9704   4.699   0.362   7.442  0.2636  1.3486  3.4117
   97SAPS   C37 9705   4.644   0.258   7.619  0.0097 -0.2797  0.1056
   97SAPS   H7X 9706   4.745   0.213   7.631  0.5083  0.6123 -0.5734
   97SAPS   H7Y 9707   4.568   0.184   7.651 -0.4500  0.7561  1.5306
   97SAPS   C38 9708   4.647   0.378   7.710 -0.1157 -0.3899 -0.1002
   97SAPS   H8X 9709   4.543   0.415   7.715  0.1725  0.3456  0.6544
   97SAPS   H8Y 9710   4.712   0.452   7.658 -0.7249 -0.1349 -0.5155
   97SAPS   C39 9711   4.691   0.340   7.853  0.0109 -0.3482 -0.3836
   97SAPS   H9X 9712   4.799   0.313   7.848  0.2220  0.4933 -4.9364
   97SAPS   H9Y 9713   4.619   0.259   7.878  1.1810 -2.1930 -2.5367
   97SAPS  C310 9714   4.673   0.446   7.967  0.1721  0.1427  0.4461
   97SAPS  H10X 9715   4.562   0.455   7.978 -0.0001 -2.0132  0.9754
   97SAPS  H10Y 9716   4.709   0.541   7.922 -0.1850 -0.0789 -0.3346
   97SAPS  C311 9717   4.731   0.412   8.102  0.0487 -0.9141 -0.2091
   97SAPS  H11X 9718   4.813   0.337   8.097 -0.3284 -1.4589  1.4003
   97SAPS  H11Y 9719   4.651   0.369   8.166  0.0453 -1.5163 -0.6120
   97SAPS  C312 9720   4.796   0.546   8.169  0.3782  0.2727 -0.6826
   97SAPS  H12X 9721   4.709   0.611   8.190 -1.1831 -1.7184 -0.6781
   97SAPS  H12Y 9722   4.862   0.589   8.091 -0.3736  1.2079 -0.8238
   97SAPS  C313 9723   4.876   0.513   8.305 -0.2585  0.0707  0.2493
   97SAPS  H13X 9724   4.975   0.471   8.276 -0.4906 -1.0637  1.0316
   97SAPS  H13Y 9725   4.834   0.432   8.368  2.8858 -1.5207  0.5123
   97SAPS  C314 9726   4.903   0.633   8.394  0.7100  0.2132  0.0079
   97SAPS  H14X 9727   4.804   0.679   8.413  1.9734  3.4785 -0.5877
   97SAPS  H14Y 9728   4.973   0.705   8.347  0.4636  1.2667  1.2350
   97SAPS  C315 9729   4.951   0.584   8.526  0.4860  0.1984  0.6709
   97SAPS  H15X 9730   5.042   0.522   8.518  0.4384  0.3561 -1.5389
   97SAPS  H15Y 9731   4.881   0.511   8.575  0.4190 -0.2206 -0.0425
   97SAPS  C316 9732   4.957   0.697   8.629 -0.0928  0.2833 -0.1393
   97SAPS  H16X 9733   4.862   0.754   8.633 -0.4616 -0.1952 -1.3663
   97SAPS  H16Y 9734   5.030   0.773   8.594  0.0810  1.1470  1.9590
   97SAPS  C317 9735   4.986   0.648   8.767  0.2163  0.6053 -0.1410
   97SAPS  H17X 9736   5.061   0.709   8.822 -1.3722  3.0051 -0.4961
   97SAPS  H17Y 9737   5.049   0.559   8.746 -1.9139 -0.5745 -1.9438
   97SAPS  C318 9738   4.866   0.603   8.852 -0.1121 -0.3665  0.4583
   97SAPS  H18X 9739   4.792   0.685   8.863  0.4241  0.1664  0.1372
   97SAPS  H18Y 9740   4.883   0.569   8.957  1.3924  0.0260  0.3751
   97SAPS  H18Z 9741   4.820   0.514   8.805 -0.8190  0.4073 -0.3537
   98SAPS     N 9742   2.273   0.463   6.197 -0.1752  0.5084  0.8079
   98SAPS   HN1 9743   2.236   0.552   6.236 -0.0795  1.9459 -2.0592
   98SAPS   HN2 9744   2.317   0.398   6.264 -1.1546  0.7716  1.7323
   98SAPS   HN3 9745   2.334   0.491   6.118  0.6670  1.7235  1.8547
   98SAPS   C12 9746   2.171   0.374   6.137  0.2885  0.4531  0.3883
   98SAPS  H12A 9747   2.087   0.370   6.205 -1.0129  1.5827 -1.0986
   98SAPS   C13 9748   2.119   0.417   5.998 -0.7374 -0.7728  0.4224
   98SAPS  O13A 9749   2.160   0.526   5.936  0.5299  1.2446 -0.3116
   98SAPS  O13B 9750   2.023   0.345   5.948 -0.6058 -0.0156 -0.2164
   98SAPS   C11 9751   2.228   0.232   6.127  0.1743 -0.0058 -0.0671
   98SAPS  H11A 9752   2.299   0.236   6.041 -1.0686 -1.9823 -1.2659
   98SAPS  H11B 9753   2.140   0.168   6.101 -0.3946 -0.0378  1.8002
   98SAPS     P 9754   2.324   0.041   6.278 -0.0724 -0.2245  0.1978
   98SAPS   O13 9755   2.256  -0.050   6.177  0.3867 -0.2113 -0.5172
   98SAPS   O14 9756   2.468   0.023   6.295  0.0541 -0.0265  0.6082
   98SAPS   O12 9757   2.286   0.192   6.252  0.2337 -0.3248 -0.0931
   98SAPS   O11 9758   2.255   0.015   6.420 -0.1228 -0.7907  0.1737
   98SAPS    C1 9759   2.152   0.095   6.471 -0.9003  0.3833 -0.3560
   98SAPS    HA 9760   2.133   0.192   6.422 -2.0703  1.2944  1.7365
   98SAPS    HB 9761   2.058   0.036   6.461 -0.0427 -1.3888  1.2013
   98SAPS    C2 9762   2.177   0.111   6.625 -0.1600 -0.5780 -0.1252
   98SAPS    HS 9763   2.088   0.167   6.662  0.6103  1.1201 -0.7352
   98SAPS   O21 9764   2.298   0.182   6.659 -0.3814  0.6742  0.0022
   98SAPS   C21 9765   2.318   0.304   6.603  0.2825  0.2903 -0.7662
   98SAPS   O22 9766   2.237   0.358   6.530 -0.1843  0.0925  0.3963
   98SAPS   C22 9767   2.452   0.365   6.646 -0.3169 -0.4806 -0.6319
   98SAPS   H2R 9768   2.470   0.326   6.748  1.3577 -2.1853 -1.5104
   98SAPS   H2S 9769   2.534   0.341   6.574  0.0873  2.6230 -1.3468
   98SAPS    C3 9770   2.167  -0.025   6.695 -0.6685  0.1715 -0.3667
   98SAPS    HX 9771   2.264  -0.081   6.699  0.6814  2.4690  1.3580
   98SAPS    HY 9772   2.100  -0.093   6.638 -2.1345  1.8695 -0.7578
   98SAPS   O31 9773   2.120   0.000   6.835 -0.3323  0.0067 -0.2771
   98SAPS   C31 9774   2.105  -0.105   6.907 -0.2255 -0.4518 -0.0454
   98SAPS   O32 9775   2.123  -0.220   6.871 -0.0728 -0.3797 -0.2781
   98SAPS   C32 9776   2.053  -0.058   7.042  0.3289  0.3066  0.0907
   98SAPS   H2X 9777   1.947  -0.091   7.042  0.4589 -0.2133 -1.4850
   98SAPS   H2Y 9778   2.058   0.053   7.050 -1.3150  0.7567 -3.3398
   98SAPS   C23 9779   2.456   0.523   6.652 -0.6148  0.0952 -0.5717
   98SAPS   H3R 9780   2.421   0.573   6.559  2.3086  0.6025 -1.4818
   98SAPS   H3S 9781   2.561   0.555   6.664 -0.5021 -0.4554 -0.0509
   98SAPS   C24 9782   2.377   0.594   6.773 -0.0027 -0.4659  0.4400
   98SAPS   H4R 9783   2.268   0.577   6.760 -0.4180  2.0712  0.0670
   98SAPS   H4S 9784   2.400   0.702   6.767  1.7102 -0.8807 -1.7843
   98SAPS   C25 9785   2.434   0.531   6.896 -0.2356 -0.0066  0.3985
   98SAPS   H5R 9786   2.542   0.510   6.896 -0.3691 -1.1024  2.9463
   98SAPS   C26 9787   2.368   0.488   7.004 -0.3294 -0.4610 -0.1154
   98SAPS   H6R 9788   2.428   0.425   7.072  1.0792 -0.4077 -1.2708
   98SAPS   C27 9789   2.222   0.493   7.035  1.0188  0.6565  0.7218
   98SAPS   H7R 9790   2.162   0.518   6.945 -1.2921 -2.7895  1.0741
   98SAPS   H7S 9791   2.200   0.581   7.099  1.8188  0.7091  0.9266
   98SAPS   C28 9792   2.172   0.371   7.108 -0.0642  0.1847  0.0478
   98SAPS   H8R 9793   2.147   0.284   7.045  0.3540 -0.1222  0.2928
   98SAPS   C29 9794   2.152   0.357   7.244  0.0322 -0.4938 -0.3758
   98SAPS   H9R 9795   2.120   0.258   7.278  0.8530 -0.4049  0.7170
   98SAPS  C210 9796   2.171   0.461   7.349 -0.2821  0.0321  0.7102
   98SAPS  H10R 9797   2.072   0.504   7.375  0.2461  2.6857 -1.2982
   98SAPS  H10S 9798   2.241   0.540   7.318 -2.6295  1.8896 -0.1320
   98SAPS  C211 9799   2.243   0.380   7.456  0.2123  0.9123 -0.0931
   98SAPS  H11R 9800   2.319   0.310   7.417 -0.4187 -0.5364  1.1509
   98SAPS  C212 9801   2.206   0.375   7.584  0.4200 -0.2129  0.8929
   98SAPS  H12R 9802   2.261   0.298   7.641 -1.1253 -0.7975  1.6373
   98SAPS  C213 9803   2.099   0.451   7.658 -0.1459 -0.1474  0.6760
   98SAPS  H13R 9804   2.030   0.493   7.582  1.7010  0.7716 -0.5699
   98SAPS  H13S 9805   2.144   0.536   7.714 -0.5609 -1.3397  2.9293
   98SAPS  C214 9806   2.018   0.370   7.752 -0.0031  0.5383 -0.3860
   98SAPS  H14R 9807   1.962   0.288   7.704 -0.3766 -0.6072  1.9008
   98SAPS  C215 9808   1.995   0.387   7.887 -1.0296 -0.1534  0.0052
   98SAPS  H15R 9809   1.929   0.308   7.926 -1.8738  0.3178 -0.4291
   98SAPS  C216 9810   2.058   0.496   7.983 -0.1028  0.0673  0.4097
   98SAPS  H16R 9811   2.101   0.576   7.919 -0.0278 -1.1282 -1.0931
   98SAPS  H16S 9812   2.146   0.459   8.040 -0.4676 -0.5798  0.5590
   98SAPS  C217 9813   1.967   0.565   8.079 -0.3888 -0.5745 -0.2636
   98SAPS  H17R 9814   1.884   0.623   8.034 -0.1520  0.9962  1.2276
   98SAPS  H17S 9815   2.034   0.642   8.123  0.2160 -1.5251  0.5338
   98SAPS  C218 9816   1.932   0.482   8.197 -0.7454 -0.2637 -0.0040
   98SAPS  H18R 9817   2.025   0.428   8.224 -0.7562 -0.0418  0.4833
   98SAPS  H18S 9818   1.855   0.407   8.167  0.8824 -1.5461 -1.1541
   98SAPS  C219 9819   1.885   0.568   8.310  0.3322 -0.3947  0.3160
   98SAPS  H19R 9820   1.820   0.653   8.278  1.4682  1.0355  1.6778
   98SAPS  H19S 9821   1.970   0.618   8.360 -1.3038  1.9831  0.9021
   98SAPS  C220 9822   1.813   0.480   8.414  0.4456  0.3687  0.4028
   98SAPS  H20R 9823   1.844   0.375   8.431 -0.2031 -0.0213 -0.7192
   98SAPS  H20S 9824   1.714   0.460   8.368 -0.1990  0.2169  1.7992
   98SAPS  H20T 9825   1.781   0.530   8.508  1.4319 -0.8968  1.4364
   98SAPS   C33 9826   2.119  -0.126   7.163  0.0361  0.7112 -0.4907
   98SAPS   H3X 9827   2.228  -0.109   7.153  0.1632  0.3694  0.2669
   98SAPS   H3Y 9828   2.097  -0.234   7.156  0.4134  0.6407 -0.6103
   98SAPS   C34 9829   2.079  -0.064   7.295  0.0958  0.2603  0.2706
   98SAPS   H4X 9830   1.969  -0.052   7.293 -0.1866 -1.7512  1.3692
   98SAPS   H4Y 9831   2.125   0.037   7.297 -1.9423  1.2346  0.5290
   98SAPS   C35 9832   2.125  -0.142   7.420 -0.1652  0.1976 -0.8260
   98SAPS   H5X 9833   2.235  -0.156   7.426  0.3675  3.9350  2.1736
   98SAPS   H5Y 9834   2.073  -0.240   7.414 -3.0414  1.6015 -0.5824
   98SAPS   C36 9835   2.088  -0.072   7.557  0.2858  0.4102  0.1747
   98SAPS   H6X 9836   1.992  -0.018   7.539  0.2538  0.6968  1.0986
   98SAPS   H6Y 9837   2.162   0.006   7.585 -2.9401  4.2849 -1.0885
   98SAPS   C37 9838   2.057  -0.170   7.671  0.5541  0.3465 -0.0032
   98SAPS   H7X 9839   1.960  -0.223   7.660  0.1015  0.5054  2.5569
   98SAPS   H7Y 9840   2.038  -0.117   7.767 -0.9784  0.8222 -0.5509
   98SAPS   C38 9841   2.168  -0.263   7.690 -0.0335  0.7755 -0.0010
   98SAPS   H8X 9842   2.266  -0.210   7.683  0.5973 -0.5100 -1.7947
   98SAPS   H8Y 9843   2.166  -0.342   7.612  1.4690 -0.2316  0.9069
   98SAPS   C39 9844   2.152  -0.331   7.828  0.4069 -0.0228 -0.2656
   98SAPS   H9X 9845   2.198  -0.432   7.831 -4.0368 -2.2519  1.0169
   98SAPS   H9Y 9846   2.043  -0.346   7.840  0.0748  0.3253 -2.4619
   98SAPS  C310 9847   2.207  -0.243   7.940 -0.0468 -0.3445 -0.2466
   98SAPS  H10X 9848   2.170  -0.139   7.929 -0.2008 -0.3568  0.1607
   98SAPS  H10Y 9849   2.317  -0.249   7.927  0.1604 -0.8315  1.5135
   98SAPS  C311 9850   2.164  -0.283   8.080 -0.2627 -0.2308 -0.5872
   98SAPS  H11X 9851   2.215  -0.376   8.114 -0.2352  0.0162  0.0713
   98SAPS  H11Y 9852   2.054  -0.297   8.083 -0.4441  1.1699  1.3407
   98SAPS  C312 9853   2.208  -0.192   8.190  0.5906 -0.0735 -0.6399
   98SAPS  H12X 9854   2.164  -0.092   8.170  0.3746  0.1505  0.8041
   98SAPS  H12Y 9855   2.318  -0.178   8.190  0.5196  0.6308  0.6526
   98SAPS  C313 9856   2.147  -0.234   8.326  0.0832 -0.2073 -0.6219
   98SAPS  H13X 9857   2.158  -0.344   8.340 -0.9059 -0.3449 -0.8140
   98SAPS  H13Y 9858   2.037  -0.221   8.329  0.1216  1.2464 -3.0615
   98SAPS  C314 9859   2.205  -0.176   8.455 -0.0109  0.1041  0.0179
   98SAPS  H14X 9860   2.315  -0.173   8.445  0.7829  0.0343  5.4095
   98SAPS  H14Y 9861   2.170  -0.239   8.540 -1.4443 -0.8199 -1.2171
   98SAPS  C315 9862   2.163  -0.029   8.475 -0.4080 -0.3120 -0.3083
   98SAPS  H15X 9863   2.052  -0.033   8.466 -0.6235  0.1572  1.7903
   98SAPS  H15Y 9864   2.199   0.036   8.392 -0.8960  0.7564  0.2927
   98SAPS  C316 9865   2.204   0.035   8.605 -0.2522  1.3510 -0.4004
   98SAPS  H16X 9866   2.314   0.054   8.607 -0.5837  3.5227  2.7920
   98SAPS  H16Y 9867   2.173  -0.035   8.685  0.4214 -1.2913 -2.2740
   98SAPS  C317 9868   2.143   0.170   8.621  0.0159 -0.4849 -0.1101
   98SAPS  H17X 9869   2.033   0.169   8.639  0.1098  1.0020  0.6176
   98SAPS  H17Y 9870   2.170   0.229   8.531 -0.4543  0.4627  0.3585
   98SAPS  C318 9871   2.211   0.245   8.743  0.1950 -0.5543 -0.2319
   98SAPS  H18X 9872   2.173   0.348   8.757 -0.4925 -0.8214 -0.0497
   98SAPS  H18Y 9873   2.322   0.251   8.744  0.1495  0.3221  0.6434
   98SAPS  H18Z 9874   2.176   0.188   8.832  1.4224 -2.3241 -0.8351
   99SAPS     N 9875   1.238   3.912   5.921 -0.5346 -0.2106 -0.4527
   99SAPS   HN1 9876   1.327   3.951   5.884  0.1724 -1.9606 -0.6969
   99SAPS   HN2 9877   1.247   3.845   5.999  0.4640  2.5013  1.9359
   99SAPS   HN3 9878   1.180   3.876   5.842  1.0692 -0.4928 -1.5693
   99SAPS   C12 9879   1.160   4.027   5.981 -0.6483  0.5760  0.4569
   99SAPS  H12A 9880   1.180   4.119   5.928 -0.6665 -0.0514 -0.6847
   99SAPS   C13 9881   1.013   4.011   5.977  1.1640 -0.0647 -1.1751
   99SAPS  O13A 9882   0.972   3.908   5.921  0.0011  0.1098 -0.2647
   99SAPS  O13B 9883   0.931   4.096   6.025  0.3276  0.1533 -0.0781
   99SAPS   C11 9884   1.195   4.053   6.129 -0.3471  0.0284 -1.6221
   99SAPS  H11A 9885   1.148   3.976   6.194  1.9681 -2.2954 -2.5163
   99SAPS  H11B 9886   1.152   4.150   6.162  1.3569  0.1938  0.3061
   99SAPS     P 9887   1.416   4.128   6.259  0.6320 -0.0450 -0.4884
   99SAPS   O13 9888   1.543   4.048   6.282  0.8753  0.3860 -0.1830
   99SAPS   O14 9889   1.429   4.267   6.205  0.1682  0.4883  0.7564
   99SAPS   O12 9890   1.334   4.051   6.153  0.4672  0.3163 -0.0646
   99SAPS   O11 9891   1.323   4.124   6.397  0.1978 -0.4499 -0.0677
   99SAPS    C1 9892   1.264   4.003   6.428  0.3488  0.3566  0.0212
   99SAPS    HA 9893   1.155   4.024   6.422  0.2219 -0.1941  0.3360
   99SAPS    HB 9894   1.284   3.923   6.354 -0.4289  2.0033 -2.0803
   99SAPS    C2 9895   1.297   3.949   6.573  0.4658  0.0877  0.0488
   99SAPS    HS 9896   1.265   3.845   6.594  2.4636 -0.1587  2.1702
   99SAPS   O21 9897   1.244   4.040   6.668 -0.0041 -0.1768 -0.1242
   99SAPS   C21 9898   1.118   4.032   6.704 -0.4347 -0.0695 -0.1163
   99SAPS   O22 9899   1.028   3.963   6.655  0.2766 -0.0816  0.1921
   99SAPS   C22 9900   1.092   4.139   6.811 -0.1242  0.2154  0.3307
   99SAPS   H2R 9901   1.187   4.154   6.868  1.0185  0.6461 -1.6010
   99SAPS   H2S 9902   1.083   4.237   6.760  1.2261 -1.0682 -2.6049
   99SAPS    C3 9903   1.450   3.950   6.587 -0.5607 -0.1812  0.5729
   99SAPS    HX 9904   1.492   4.049   6.561 -2.4124  0.5658  0.2876
   99SAPS    HY 9905   1.488   3.876   6.513  0.9484  0.8792  0.2497
   99SAPS   O31 9906   1.492   3.900   6.718  0.3902  0.3310  0.3707
   99SAPS   C31 9907   1.614   3.859   6.743  0.0475  0.7828 -0.4494
   99SAPS   O32 9908   1.706   3.854   6.662 -0.0718  0.3934 -0.2148
   99SAPS   C32 9909   1.632   3.804   6.887 -0.2570  0.2155  0.8196
   99SAPS   H2X 9910   1.591   3.701   6.889 -2.0651  0.8890  3.6553
   99SAPS   H2Y 9911   1.560   3.854   6.955 -0.9038 -1.5804  1.4982
   99SAPS   C23 9912   0.964   4.115   6.892  0.3688 -0.3263 -1.0007
   99SAPS   H3R 9913   0.952   4.011   6.929 -2.5641  0.7534  1.4146
   99SAPS   H3S 9914   0.871   4.130   6.832  0.5193 -0.5648 -1.2978
   99SAPS   C24 9915   0.978   4.190   7.026 -0.6720 -0.5896 -0.6267
   99SAPS   H4R 9916   0.990   4.299   7.012 -2.3356 -0.1417  1.0751
   99SAPS   H4S 9917   1.076   4.151   7.063 -1.0446 -0.4668  0.5176
   99SAPS   C25 9918   0.862   4.170   7.122  0.4859 -0.1011  0.2134
   99SAPS   H5R 9919   0.772   4.175   7.058 -0.3238 -2.1303  1.0919
   99SAPS   C26 9920   0.862   4.139   7.250  0.4327 -0.1572 -1.1360
   99SAPS   H6R 9921   0.763   4.136   7.300  1.1870  0.8236  0.5077
   99SAPS   C27 9922   0.992   4.127   7.335  0.5781 -0.7203 -0.6552
   99SAPS   H7R 9923   0.984   4.195   7.422 -3.0458  1.4218 -2.4298
   99SAPS   H7S 9924   1.079   4.172   7.283  0.2030  2.2718  1.0782
   99SAPS   C28 9925   1.012   3.976   7.367  0.2100 -0.1482  0.3037
   99SAPS   H8R 9926   1.037   3.911   7.281 -3.0824  0.6365 -1.4148
   99SAPS   C29 9927   0.984   3.914   7.484 -0.1056 -0.6974 -0.3001
   99SAPS   H9R 9928   1.013   3.810   7.504 -0.7803 -0.4783  2.1194
   99SAPS  C210 9929   0.928   3.983   7.607 -0.0799 -0.5986 -0.5621
   99SAPS  H10R 9930   0.826   3.945   7.629 -0.2207  0.4182  0.6647
   99SAPS  H10S 9931   0.914   4.090   7.578 -0.3576  0.1812  2.1750
   99SAPS  C211 9932   1.022   3.982   7.722  0.0468 -0.6165 -0.1653
   99SAPS  H11R 9933   1.118   4.034   7.711 -0.0280 -0.3600  0.3302
   99SAPS  C212 9934   0.996   3.956   7.853 -0.1426  0.7429  0.2027
   99SAPS  H12R 9935   1.081   3.956   7.923  0.2427 -0.6867 -0.2371
   99SAPS  C213 9936   0.869   3.904   7.918 -0.1189 -0.1100 -0.6737
   99SAPS  H13R 9937   0.859   3.793   7.915  0.3518 -0.2366  1.3464
   99SAPS  H13S 9938   0.782   3.939   7.858 -1.9588 -0.5914  1.5567
   99SAPS  C214 9939   0.854   3.928   8.062  0.8982  0.4450  0.5149
   99SAPS  H14R 9940   0.758   3.969   8.096  0.3681 -0.7364  0.4930
   99SAPS  C215 9941   0.954   3.888   8.152 -0.4032 -0.5865 -0.6115
   99SAPS  H15R 9942   0.930   3.908   8.258  0.2783  0.2390 -0.6043
   99SAPS  C216 9943   1.087   3.822   8.127  0.2512 -0.6806  0.1318
   99SAPS  H16R 9944   1.167   3.897   8.108 -0.8006  0.1827 -1.0551
   99SAPS  H16S 9945   1.071   3.756   8.039 -1.7015 -1.0829  0.7297
   99SAPS  C217 9946   1.133   3.740   8.249 -0.2837 -0.6911  0.8796
   99SAPS  H17R 9947   1.147   3.808   8.336 -1.8985  2.9338 -1.4717
   99SAPS  H17S 9948   1.235   3.699   8.230  0.3942  0.5286  1.7691
   99SAPS  C218 9949   1.052   3.627   8.301  0.5183  0.5624 -0.1699
   99SAPS  H18R 9950   1.029   3.568   8.210 -1.8375  1.4951 -0.2762
   99SAPS  H18S 9951   0.951   3.668   8.325  0.6703 -0.0709  1.6835
   99SAPS  C219 9952   1.129   3.556   8.412  0.4005 -0.6208  0.2988
   99SAPS  H19R 9953   1.142   3.632   8.492  1.7693 -0.9153  0.3723
   99SAPS  H19S 9954   1.233   3.526   8.388  1.0367  0.5840  1.4071
   99SAPS  C220 9955   1.054   3.438   8.474 -0.1174 -0.1538  0.0689
   99SAPS  H20R 9956   1.116   3.385   8.549 -1.8549 -1.0214  0.9637
   99SAPS  H20S 9957   1.028   3.371   8.390 -0.2288 -1.1182  0.8570
   99SAPS  H20T 9958   0.962   3.464   8.530 -0.8345  0.0692 -1.1739
   99SAPS   C33 9959   1.771   3.814   6.947  0.7277 -0.0838  0.3508
   99SAPS   H3X 9960   1.810   3.912   6.912  1.0254  0.5259  2.2575
   99SAPS   H3Y 9961   1.823   3.727   6.901  0.5407 -0.2162  0.3848
   99SAPS   C34 9962   1.773   3.798   7.097 -0.1628  0.3308 -0.3385
   99SAPS   H4X 9963   1.723   3.888   7.139  0.5796  0.5777  0.0263
   99SAPS   H4Y 9964   1.882   3.811   7.113  0.2106 -0.1759 -2.2325
   99SAPS   C35 9965   1.695   3.674   7.151 -0.3214  0.5223  0.3852
   99SAPS   H5X 9966   1.738   3.577   7.118  1.1285  0.2266  2.9196
   99SAPS   H5Y 9967   1.588   3.671   7.121  0.5335 -3.1811 -3.2481
   99SAPS   C36 9968   1.702   3.673   7.307  0.1668 -0.6851 -0.4592
   99SAPS   H6X 9969   1.646   3.589   7.352 -1.6412  1.9829  2.6967
   99SAPS   H6Y 9970   1.645   3.763   7.338  0.9678  0.2946 -1.6924
   99SAPS   C37 9971   1.838   3.676   7.359 -0.5353 -0.1494  0.3038
   99SAPS   H7X 9972   1.884   3.769   7.320  3.6237 -1.9217  0.4849
   99SAPS   H7Y 9973   1.901   3.589   7.330 -0.0504 -0.6899  2.7539
   99SAPS   C38 9974   1.839   3.674   7.517  0.0479 -0.0211 -0.1251
   99SAPS   H8X 9975   1.765   3.602   7.559 -1.1354  0.3718 -1.4552
   99SAPS   H8Y 9976   1.797   3.771   7.550 -1.2228  0.3800 -2.6588
   99SAPS   C39 9977   1.975   3.639   7.575 -0.4961 -0.4026  0.4475
   99SAPS   H9X 9978   2.058   3.688   7.519 -1.3885 -1.0768 -1.5035
   99SAPS   H9Y 9979   2.000   3.532   7.564 -1.4804 -0.6707  0.7233
   99SAPS  C310 9980   1.975   3.663   7.721  0.1893 -0.2356  0.3147
   99SAPS  H10X 9981   1.911   3.592   7.777 -0.6954  0.0419 -0.3169
   99SAPS  H10Y 9982   1.945   3.768   7.746 -1.9525 -0.4491 -1.0573
   99SAPS  C311 9983   2.115   3.641   7.778 -0.4739 -0.3436  0.0204
   99SAPS  H11X 9984   2.173   3.734   7.763 -0.5080 -0.3450 -0.1247
   99SAPS  H11Y 9985   2.162   3.552   7.732  0.1549 -1.1880  2.1974
   99SAPS  C312 9986   2.107   3.613   7.931 -0.1650 -1.0918  0.0618
   99SAPS  H12X 9987   2.053   3.517   7.945  1.6670 -2.1683  0.1947
   99SAPS  H12Y 9988   2.062   3.697   7.988 -0.5082 -1.3139  0.1203
   99SAPS  C313 9989   2.250   3.605   7.979 -0.5290 -0.7933 -0.0799
   99SAPS  H13X 9990   2.297   3.705   7.984 -0.5045 -0.6517 -2.2136
   99SAPS  H13Y 9991   2.298   3.550   7.896 -2.3452  1.5391 -2.8759
   99SAPS  C314 9992   2.275   3.518   8.100 -0.3106  0.3610 -0.3987
   99SAPS  H14X 9993   2.260   3.412   8.071  3.0080 -0.2490 -0.2738
   99SAPS  H14Y 9994   2.195   3.549   8.170 -0.8474 -0.2142 -0.7517
   99SAPS  C315 9995   2.415   3.523   8.152 -0.0606 -0.2970  0.2192
   99SAPS  H15X 9996   2.418   3.631   8.177  0.4837  0.1379 -1.5721
   99SAPS  H15Y 9997   2.487   3.517   8.068 -0.3630  1.1305 -0.1670
   99SAPS  C316 9998   2.434   3.443   8.282 -0.4725 -0.8934 -0.5350
   99SAPS  H16X 9999   2.428   3.337   8.248 -0.5883 -1.4056  1.0127
   99SAPS  H16Y10000   2.356   3.457   8.360 -0.8507  2.7035 -1.3770
   99SAPS  C31710001   2.575   3.468   8.343 -0.0613  1.1075 -0.3992
   99SAPS  H17X10002   2.598   3.570   8.380 -2.0900  0.6779  2.3482
   99SAPS  H17Y10003   2.648   3.442   8.263  2.2983  1.5927  1.4719
   99SAPS  C31810004   2.615   3.370   8.457  0.2158 -0.3586  0.0542
   99SAPS  H18X10005   2.719   3.395   8.489 -0.1187 -0.4348  1.2458
   99SAPS  H18Y10006   2.623   3.265   8.422  2.0318 -1.7192  4.0674
   99SAPS  H18Z10007   2.546   3.374   8.544  0.5050  1.5434  0.2368
  100SAPS     N10008   4.515   5.820   5.984  0.2826 -0.2440 -0.0033
  100SAPS   HN110009   4.591   5.772   5.932  0.6957 -0.0864  0.4483
  100SAPS   HN210010   4.458   5.741   6.020  3.1139 -2.5132 -0.0872
  100SAPS   HN310011   4.461   5.892   5.933  0.8907  0.1376 -0.1268
  100SAPS   C1210012   4.572   5.890   6.100  0.3848 -0.2531  0.4876
  100SAPS  H12A10013   4.663   5.837   6.125  1.2703  0.6746 -0.6727
  100SAPS   C1310014   4.608   6.038   6.064  0.5546 -0.0137 -0.1651
  100SAPS  O13A10015   4.582   6.080   5.944 -0.2527  0.0620  0.2849
  100SAPS  O13B10016   4.678   6.109   6.142 -0.7767  0.1606  0.6386
  100SAPS   C1110017   4.479   5.878   6.220  0.6869 -0.5911  0.3578
  100SAPS  H11A10018   4.381   5.906   6.178  1.4148  0.7740 -0.5072
  100SAPS  H11B10019   4.516   5.941   6.304 -0.6894  0.9948 -0.1748
  100SAPS     P10020   4.419   5.685   6.383 -0.2502  0.3803  0.0520
  100SAPS   O1310021   4.345   5.557   6.364 -0.2775 -0.2498 -0.1707
  100SAPS   O1410022   4.527   5.685   6.483 -0.3909  0.4864 -0.0596
  100SAPS   O1210023   4.480   5.735   6.250  0.2606 -0.2005  0.1259
  100SAPS   O1110024   4.314   5.797   6.417  0.4127 -0.3964  0.2365
  100SAPS    C110025   4.181   5.770   6.469 -0.3687 -0.0708  0.1305
  100SAPS    HA10026   4.120   5.814   6.387  2.6217 -3.3821 -4.3450
  100SAPS    HB10027   4.159   5.661   6.476 -2.0452  0.3315  2.9215
  100SAPS    C210028   4.166   5.825   6.615 -0.5465  0.2025 -0.1443
  100SAPS    HS10029   4.175   5.935   6.603 -2.1381  0.3210 -0.5371
  100SAPS   O2110030   4.267   5.759   6.702  0.1576 -0.1353 -0.8433
  100SAPS   C2110031   4.323   5.838   6.789 -0.9477 -0.9076  0.3922
  100SAPS   O2210032   4.320   5.961   6.787  0.3717 -0.1812 -0.5493
  100SAPS   C2210033   4.391   5.755   6.897  0.1956  0.1970  0.1491
  100SAPS   H2R10034   4.311   5.709   6.959 -1.0500  1.2939 -0.6060
  100SAPS   H2S10035   4.456   5.685   6.840 -0.6303  0.2858 -0.9182
  100SAPS    C310036   4.016   5.814   6.656  0.2938  0.8367 -0.0858
  100SAPS    HX10037   4.000   5.705   6.642  2.7411  0.3267  0.5618
  100SAPS    HY10038   3.960   5.875   6.582  2.1795  1.7885 -0.7737
  100SAPS   O3110039   4.008   5.862   6.792 -1.0488 -0.1709 -0.3655
  100SAPS   C3110040   3.906   5.813   6.858 -0.1215 -0.5235 -0.1975
  100SAPS   O3210041   3.819   5.749   6.806 -0.1087  0.2068  0.1433
  100SAPS   C3210042   3.942   5.828   7.005  0.2085  0.1977  0.4179
  100SAPS   H2X10043   3.929   5.934   7.037  0.5884  0.1843  0.6209
  100SAPS   H2Y10044   4.051   5.809   7.008  0.1689 -0.3274 -0.6878
  100SAPS   C2310045   4.489   5.844   6.977  0.0476 -0.0422 -0.2699
  100SAPS   H3R10046   4.439   5.935   7.016 -1.5409 -0.2091 -1.7559
  100SAPS   H3S10047   4.573   5.874   6.911  1.1153 -2.0888  0.0559
  100SAPS   C2410048   4.565   5.763   7.087  0.5779 -1.0790 -0.1466
  100SAPS   H4R10049   4.619   5.681   7.036 -0.9217 -1.8060 -0.6288
  100SAPS   H4S10050   4.487   5.715   7.149  0.5352  0.7821  1.3343
  100SAPS   C2510051   4.647   5.843   7.190  0.3662 -0.5546  0.0354
  100SAPS   H5R10052   4.746   5.882   7.160  0.3817  0.3099  1.1585
  100SAPS   C2610053   4.618   5.869   7.323 -0.4912  0.2880  0.6387
  100SAPS   H6R10054   4.683   5.934   7.384  0.5976 -0.0970 -0.0933
  100SAPS   C2710055   4.494   5.829   7.399 -0.1875 -0.0335 -0.3903
  100SAPS   H7R10056   4.520   5.759   7.481  0.2148  1.0282  0.4128
  100SAPS   H7S10057   4.417   5.780   7.336 -0.4286  0.3055 -0.3645
  100SAPS   C2810058   4.436   5.954   7.465  0.4056 -0.2882  0.2490
  100SAPS   H8R10059   4.350   5.991   7.407 -0.4246  2.0837  2.7956
  100SAPS   C2910060   4.469   6.006   7.588  0.5218  0.6540  0.7174
  100SAPS   H9R10061   4.404   6.087   7.623 -1.4496 -1.4364  2.2330
  100SAPS  C21010062   4.570   5.941   7.680  0.0480 -0.0955  0.0685
  100SAPS  H10R10063   4.651   5.901   7.614  0.0617 -3.3994  1.8585
  100SAPS  H10S10064   4.523   5.851   7.725 -0.3742 -0.4014 -0.9540
  100SAPS  C21110065   4.644   6.028   7.772 -0.0384 -0.3855 -0.2642
  100SAPS  H11R10066   4.678   6.124   7.729  0.3859 -0.7533 -0.7509
  100SAPS  C21210067   4.657   6.025   7.906 -1.0721 -0.0690 -0.2412
  100SAPS  H12R10068   4.729   6.090   7.958 -0.4881 -0.4171 -0.5994
  100SAPS  C21310069   4.603   5.925   8.007 -0.2549  0.0205  0.7197
  100SAPS  H13R10070   4.499   5.888   7.993 -0.7613  0.5263  2.7615
  100SAPS  H13S10071   4.589   5.988   8.097 -0.4056 -0.2944  0.9168
  100SAPS  C21410072   4.696   5.812   8.039  0.1626  0.5733  0.7944
  100SAPS  H14R10073   4.700   5.735   7.961 -0.9873  0.7668  0.5182
  100SAPS  C21510074   4.783   5.804   8.142  0.3216 -0.6187  0.4743
  100SAPS  H15R10075   4.841   5.711   8.145  1.6290  0.1411  4.0571
  100SAPS  C21610076   4.810   5.899   8.255 -0.4740  0.5141 -0.2770
  100SAPS  H16R10077   4.737   5.983   8.252  1.7650  2.5659  0.2091
  100SAPS  H16S10078   4.912   5.935   8.236 -0.8448  0.1158 -3.4582
  100SAPS  C21710079   4.788   5.835   8.389  0.5875 -0.0115 -0.1398
  100SAPS  H17R10080   4.858   5.750   8.399  0.2979 -0.2440 -0.0568
  100SAPS  H17S10081   4.682   5.802   8.380  0.9134 -0.4462 -3.3897
  100SAPS  C21810082   4.808   5.928   8.515  0.0997 -0.1383  0.7513
  100SAPS  H18R10083   4.744   6.017   8.498 -1.4643 -0.9091  2.3567
  100SAPS  H18S10084   4.916   5.951   8.523  0.7332 -1.5710 -2.1355
  100SAPS  C21910085   4.753   5.860   8.646 -0.1213 -0.1234  0.0594
  100SAPS  H19R10086   4.802   5.762   8.664  1.2522  0.5852  0.3352
  100SAPS  H19S10087   4.644   5.847   8.629 -0.1134 -0.3255  0.1567
  100SAPS  C22010088   4.771   5.942   8.778 -0.2804  0.5951  0.7944
  100SAPS  H20R10089   4.754   5.868   8.859  1.1342 -1.4417 -0.6565
  100SAPS  H20S10090   4.707   6.032   8.777  1.1805  1.6801  1.3222
  100SAPS  H20T10091   4.879   5.967   8.786 -0.1368 -0.4674  3.0978
  100SAPS   C3310092   3.855   5.724   7.088  0.7986 -0.2257 -0.2023
  100SAPS   H3X10093   3.865   5.630   7.030  1.9939  0.8781 -1.8944
  100SAPS   H3Y10094   3.752   5.764   7.100  0.7289 -0.2773 -0.6096
  100SAPS   C3410095   3.891   5.717   7.241 -0.1569  0.1947  0.4070
  100SAPS   H4X10096   4.000   5.698   7.240 -0.3383 -0.9430 -0.1385
  100SAPS   H4Y10097   3.836   5.630   7.283  1.0527 -0.9406 -0.2965
  100SAPS   C3510098   3.862   5.850   7.316  0.3785 -0.0019 -0.1560
  100SAPS   H5X10099   3.755   5.880   7.315  0.6905  1.1367 -1.1857
  100SAPS   H5Y10100   3.915   5.927   7.257  1.7403  0.0660  1.0878
  100SAPS   C3610101   3.917   5.851   7.457 -0.2018  0.2090  0.4339
  100SAPS   H6X10102   4.028   5.849   7.458 -0.2157 -1.3816  1.2059
  100SAPS   H6Y10103   3.894   5.763   7.521  0.6157  0.0737  0.5588
  100SAPS   C3710104   3.871   5.973   7.538  0.3689 -0.2391  0.0322
  100SAPS   H7X10105   3.760   5.976   7.531  0.3479  1.3735  0.7148
  100SAPS   H7Y10106   3.912   6.060   7.483  1.5522 -1.3354 -0.8647
  100SAPS   C3810107   3.915   5.971   7.686  0.5055  0.0403  0.0991
  100SAPS   H8X10108   4.026   5.961   7.693  0.4550  0.3493  1.6654
  100SAPS   H8Y10109   3.877   5.872   7.717 -1.4153  1.2130  1.6773
  100SAPS   C3910110   3.865   6.087   7.770  1.3743  0.0476  0.4223
  100SAPS   H9X10111   3.757   6.090   7.744  1.2613  1.2100  0.9272
  100SAPS   H9Y10112   3.916   6.183   7.748  0.5291  0.6224  0.8697
  100SAPS  C31010113   3.868   6.054   7.920 -0.2418 -0.2637  0.5189
  100SAPS  H10X10114   3.967   6.090   7.955 -0.0920 -0.9779  0.8567
  100SAPS  H10Y10115   3.856   5.944   7.931 -2.5535 -0.1177 -0.0095
  100SAPS  C31110116   3.754   6.115   7.996 -0.4811  0.1019 -0.2446
  100SAPS  H11X10117   3.674   6.040   8.010 -0.5057  0.3467  1.1336
  100SAPS  H11Y10118   3.715   6.197   7.931  1.4323  0.9287 -0.4096
  100SAPS  C31210119   3.799   6.175   8.139  0.4796  0.1211 -0.2446
  100SAPS  H12X10120   3.883   6.247   8.132 -0.6131  1.3699 -1.2610
  100SAPS  H12Y10121   3.819   6.087   8.203 -1.4271 -0.7872 -0.8072
  100SAPS  C31310122   3.684   6.256   8.202  0.4492 -0.2088 -0.2158
  100SAPS  H13X10123   3.608   6.174   8.207 -1.2397  1.3102  0.0706
  100SAPS  H13Y10124   3.636   6.326   8.131 -1.9759 -1.3687  0.1588
  100SAPS  C31410125   3.707   6.317   8.341 -0.1299  0.0077 -0.2191
  100SAPS  H14X10126   3.759   6.244   8.407 -0.4606  0.2399  0.3009
  100SAPS  H14Y10127   3.611   6.337   8.392  0.0148  0.9373 -0.2894
  100SAPS  C31510128   3.791   6.445   8.336 -0.4105 -0.1803 -0.1461
  100SAPS  H15X10129   3.729   6.524   8.289  1.1571  1.0514 -0.2612
  100SAPS  H15Y10130   3.879   6.414   8.275  0.3878 -0.2406  1.0083
  100SAPS  C31610131   3.846   6.488   8.466  0.0012 -0.5174 -0.4108
  100SAPS  H16X10132   3.774   6.467   8.548 -1.6400 -0.4377 -1.7753
  100SAPS  H16Y10133   3.848   6.598   8.461  0.3738 -0.5506 -1.0551
  100SAPS  C31710134   3.991   6.446   8.502  0.4932  0.1589  0.1764
  100SAPS  H17X10135   4.049   6.490   8.418 -0.9411  0.8003 -0.5169
  100SAPS  H17Y10136   4.002   6.336   8.511 -1.4770 -0.0535  0.4783
  100SAPS  C31810137   4.046   6.504   8.635 -0.3929  0.0960 -0.1029
  100SAPS  H18X10138   4.037   6.614   8.641  0.2172  0.0787  2.0324
  100SAPS  H18Y10139   4.154   6.479   8.636 -0.6935 -1.3039  0.3060
  100SAPS  H18Z10140   4.003   6.463   8.729  1.7417 -0.9616  0.4891
  101OSM      N10141   3.943   6.462  11.246  0.8147  0.1434 -0.3554
  101OSM    C1510142   3.985   6.370  11.358  0.0941  0.0518  0.1668
  101OSM   H15A10143   4.016   6.423  11.446  0.3594  1.5124 -0.7687
  101OSM   H15B10144   4.060   6.298  11.328  0.7654  0.1691  1.5298
  101OSM   H15C10145   3.905   6.302  11.386  0.2034  0.9308  2.8050
  101OSM    C1410146   3.827   6.535  11.305 -0.3952  0.1102 -0.9234
  101OSM   H14A10147   3.788   6.602  11.229  0.8813  1.4764 -0.4220
  101OSM   H14B10148   3.854   6.604  11.383 -2.2268 -0.2524  0.0849
  101OSM   H14C10149   3.746   6.478  11.347  0.0834  0.2651  0.2473
  101OSM    C1310150   4.058   6.560  11.220  0.6393  0.6697  0.4895
  101OSM   H13A10151   4.032   6.627  11.139 -1.0278  0.9521  1.2219
  101OSM   H13B10152   4.142   6.503  11.183 -2.2840 -2.9675 -1.1751
  101OSM   H13C10153   4.090   6.623  11.302  0.6398  0.0949  0.9329
  101OSM    C1210154   3.900   6.388  11.129  0.1480  0.1156  0.8721
  101OSM   H12A10155   3.817   6.323  11.155 -1.0336  1.6900  1.1965
  101OSM   H12B10156   3.988   6.333  11.098  1.1081  1.1052  1.7492
  101OSM    C1110157   3.836   6.471  11.008  0.3998 -0.1363  0.4140
  101OSM   H11A10158   3.826   6.407  10.918  0.0786  2.0106 -1.1617
  101OSM   H11B10159   3.914   6.542  10.974 -0.2120  0.5157  0.3180
  101OSM      P10160   3.579   6.435  11.042 -0.4179  0.2070  0.2302
  101OSM    O1310161   3.597   6.318  11.126  0.3724 -0.3669 -0.3259
  101OSM    O1410162   3.463   6.525  11.063 -0.4895  0.1807  0.6752
  101OSM    O1110163   3.571   6.372  10.898  0.0229  0.2567 -0.0969
  101OSM    O1210164   3.709   6.529  11.043  0.3604  0.3916 -0.5937
  101OSM    C1S10165   3.543   6.442  10.782 -0.6394  0.6273 -0.6103
  101OSM    H1S10166   3.559   6.551  10.792 -0.6176  0.3711  3.7693
  101OSM    H1T10167   3.438   6.419  10.751 -0.5869 -1.0480  0.3292
  101OSM     NF10168   3.617   6.458  10.539 -0.5062 -0.0863  0.9008
  101OSM    HNF10169   3.607   6.394  10.464  0.0297  1.1418 -0.2589
  101OSM    C2S10170   3.647   6.393  10.672  0.5189 -0.0357  0.5037
  101OSM    H2S10171   3.747   6.419  10.711  0.8489  1.0940 -1.0056
  101OSM    C3S10172   3.644   6.240  10.662 -0.0768  0.3804 -0.0862
  101OSM    H3S10173   3.537   6.211  10.655 -0.6662  1.6995  2.3613
  101OSM     O310174   3.691   6.178  10.780 -0.6420  0.1941  0.6064
  101OSM    HO310175   3.648   6.240  10.839 -3.7512  0.0654 -1.3244
  101OSM    C4S10176   3.716   6.187  10.538  0.0774  0.2626 -0.2026
  101OSM    H4S10177   3.823   6.213  10.540 -0.1478  1.2147 -0.0836
  101OSM    C5S10178   3.654   6.116  10.441 -0.0924 -0.2185  0.1847
  101OSM    H5S10179   3.544   6.107  10.438  0.0349 -1.8115 -0.7603
  101OSM    C6S10180   3.722   6.081  10.308 -0.0677  0.1485  0.0658
  101OSM    H6S10181   3.646   6.061  10.229  2.4972 -0.5377 -2.3840
  101OSM    H6T10182   3.775   5.986  10.329  0.6374  0.3181 -0.8660
  101OSM    C7S10183   3.828   6.187  10.268  0.2394 -0.1488 -0.5744
  101OSM    H7S10184   3.912   6.186  10.341 -0.2951 -0.2555  0.0519
  101OSM    H7T10185   3.789   6.291  10.277 -1.1863 -0.7332  0.3898
  101OSM    C8S10186   3.878   6.161  10.124  0.1350  0.4450 -0.3564
  101OSM    H8S10187   3.893   6.051  10.127 -1.7215  0.0284 -2.9935
  101OSM    H8T10188   3.974   6.210  10.098  0.3844 -0.4419 -1.1305
  101OSM    C9S10189   3.771   6.189  10.019 -0.0208 -0.2256 -0.7666
  101OSM    H9S10190   3.714   6.283  10.030 -3.5624 -2.2345 -0.2444
  101OSM    H9T10191   3.690   6.114  10.037 -0.1164  0.5838  2.7121
  101OSM   C10S10192   3.831   6.188   9.877  0.2718 -0.4931 -0.2242
  101OSM   H10S10193   3.860   6.086   9.845 -1.8074 -0.8844 -1.0431
  101OSM   H10T10194   3.914   6.262   9.883  2.1191 -2.2686 -2.2617
  101OSM   C11S10195   3.740   6.257   9.774 -0.7259 -0.2581 -0.0168
  101OSM   H11S10196   3.709   6.353   9.819  0.2400  0.2266 -0.3623
  101OSM   H11T10197   3.649   6.194   9.766 -0.7186 -0.7051  2.5711
  101OSM   C12S10198   3.816   6.280   9.641  0.1995  0.1850  1.1054
  101OSM   H12S10199   3.835   6.191   9.577 -0.8447 -0.7955  2.1190
  101OSM   H12T10200   3.916   6.309   9.679 -0.1797  0.6149  1.7852
  101OSM   C13S10201   3.739   6.381   9.560  0.7154  0.3182  0.1411
  101OSM   H13S10202   3.707   6.468   9.622 -0.6941 -1.0649  1.4259
  101OSM   H13T10203   3.642   6.345   9.519 -0.0733  0.9807  1.3600
  101OSM   C14S10204   3.823   6.443   9.447 -0.0772  0.5015 -0.5297
  101OSM   H14S10205   3.850   6.359   9.378  0.0647  0.2996 -0.2293
  101OSM   H14T10206   3.918   6.480   9.490 -0.9368 -2.5660  4.9209
  101OSM   C15S10207   3.752   6.553   9.369 -0.0360  0.8084 -0.0417
  101OSM   H15S10208   3.749   6.647   9.428  0.0257  0.0912  1.1555
  101OSM   H15T10209   3.649   6.511   9.370  0.7179 -1.3511  3.3749
  101OSM   C16S10210   3.799   6.586   9.227  0.6194 -0.1510 -0.0965
  101OSM   H16S10211   3.758   6.685   9.199 -0.1818 -1.0889 -2.4918
  101OSM   H16T10212   3.778   6.507   9.152  1.1208 -1.4205  1.0435
  101OSM   C17S10213   3.948   6.600   9.221  0.2982  0.4200  0.0160
  101OSM   H17S10214   3.989   6.499   9.244 -0.6591  0.0507  0.1571
  101OSM   H17T10215   3.967   6.672   9.303  1.4800  1.1554 -0.8714
  101OSM   C18S10216   4.002   6.668   9.089  0.0376 -0.1290  0.4448
  101OSM   H18S10217   4.112   6.680   9.093  0.3067 -1.6623 -1.0404
  101OSM   H18T10218   3.975   6.774   9.072  0.8735 -0.2429 -1.9661
  101OSM   H18U10219   3.982   6.596   9.006 -0.5357  0.0591  0.4142
  101OSM    C1F10220   3.632   6.592  10.528 -0.5007 -0.7501  0.1363
  101OSM     OF10221   3.658   6.660  10.627 -1.1927  0.0221 -0.0843
  101OSM    C2F10222   3.613   6.649  10.394  0.6996  0.5174  0.4902
  101OSM    H2F10223   3.504   6.667  10.387  0.7821  0.8034 -0.1530
  101OSM    H2G10224   3.625   6.570  10.318 -1.2003 -0.0605  0.7470
  101OSM    C3F10225   3.685   6.792  10.375 -0.3585 -0.0524 -0.5956
  101OSM    H3F10226   3.793   6.772  10.391 -0.2464  0.2513 -0.9516
  101OSM    H3G10227   3.656   6.870  10.449  2.4000  0.8069 -0.3125
  101OSM    C4F10228   3.674   6.849  10.236 -0.1569 -0.2834 -0.0744
  101OSM    H4F10229   3.718   6.951  10.236 -4.1703  1.6791  0.5627
  101OSM    H4G10230   3.567   6.874  10.220 -0.2409 -0.1656  0.6520
  101OSM    C5F10231   3.729   6.769  10.113 -0.2928  0.5017 -0.1656
  101OSM    H5F10232   3.674   6.672  10.119 -0.3262  0.5805  1.1547
  101OSM    H5G10233   3.837   6.742  10.113 -0.7110 -1.6049 -2.6879
  101OSM    C6F10234   3.701   6.849   9.990  0.4098  0.3648 -0.2728
  101OSM    H6F10235   3.756   6.945   9.988 -0.2417  0.7369 -1.2514
  101OSM    H6G10236   3.593   6.870  10.005  0.6726  0.2409  2.2352
  101OSM    C7F10237   3.727   6.773   9.853 -0.0273 -0.3840 -0.0816
  101OSM    H7F10238   3.689   6.671   9.876 -0.0621 -0.0866  1.2846
  101OSM    H7G10239   3.836   6.759   9.841 -0.0082 -0.2783 -0.0375
  101OSM    C8F10240   3.665   6.838   9.729 -0.0050  0.0781  0.6192
  101OSM    H8F10241   3.563   6.871   9.758 -0.5325  0.1040 -1.1558
  101OSM    H8G10242   3.667   6.763   9.647 -2.1428 -0.1886  0.7532
  101OSM    C9F10243   3.753   6.951   9.683 -0.8076 -0.3882 -0.1919
  101OSM    H9F10244   3.840   6.972   9.747 -1.9186  2.0912  0.6282
  101OSM   C10F10245   3.745   7.011   9.567 -0.1064  0.3229 -0.4635
  101OSM   H10F10246   3.822   7.084   9.538 -0.3378  0.0675 -1.7941
  101OSM   C11F10247   3.638   6.987   9.460  1.1378  0.3057  0.2793
  101OSM   H11F10248   3.579   7.077   9.431  2.7550  1.0648 -0.7843
  101OSM   H11G10249   3.560   6.915   9.493  2.1592 -1.7844 -1.5914
  101OSM   C12F10250   3.697   6.945   9.320 -0.1966  0.9650 -0.3581
  101OSM   H12F10251   3.618   6.910   9.251  0.4709  0.7605 -1.0340
  101OSM   H12G10252   3.763   6.856   9.330 -2.2387 -0.4440  1.6652
  101OSM   C13F10253   3.772   7.063   9.251  0.7096  0.8339  0.2845
  101OSM   H13F10254   3.838   7.014   9.176  2.7151 -0.5238  2.7926
  101OSM   H13G10255   3.848   7.102   9.322  2.0760  0.4768 -0.9274
  101OSM   C14F10256   3.679   7.161   9.183 -0.1413  0.4549  0.3402
  101OSM   H14F10257   3.619   7.205   9.265 -0.4225 -3.0680  2.2192
  101OSM   H14G10258   3.605   7.107   9.120  0.5614 -1.0759  0.7896
  101OSM   C15F10259   3.746   7.267   9.092  0.0993 -1.1829 -0.1442
  101OSM   H15F10260   3.660   7.330   9.065  2.0104  1.4142 -0.5869
  101OSM   H15G10261   3.787   7.214   9.003 -1.4146 -1.7453 -0.5282
  101OSM   C16F10262   3.849   7.356   9.164 -0.0742  0.4985  0.7056
  101OSM   H16F10263   3.931   7.284   9.186  0.0467  0.9427  1.7658
  101OSM   H16G10264   3.806   7.382   9.262  0.3105  1.7587  0.5518
  101OSM   C17F10265   3.887   7.483   9.090  0.0793  0.2198 -0.4579
  101OSM   H17F10266   3.794   7.542   9.079 -2.5602 -3.9078 -3.0067
  101OSM   H17G10267   3.925   7.448   8.992  0.1526 -1.2946  0.0906
  101OSM   C18F10268   3.993   7.561   9.167  0.0869  0.4214 -0.3863
  101OSM   H18F10269   4.017   7.662   9.127 -0.0334  1.2749  1.5668
  101OSM   H18G10270   4.086   7.502   9.183 -0.6548  0.1161  4.0208
  101OSM   H18H10271   3.954   7.569   9.270  0.9149  0.5232 -0.0725
  102OSM      N10272   3.282   6.082  11.155  0.6819  0.3068 -0.7133
  102OSM    C1510273   3.344   6.021  11.279 -0.0002 -0.0181 -0.2430
  102OSM   H15A10274   3.278   6.039  11.362  1.3939  0.1618  0.8558
  102OSM   H15B10275   3.439   6.066  11.304 -1.9109  3.3781  1.8205
  102OSM   H15C10276   3.352   5.914  11.272  2.2460  0.1396 -0.7357
  102OSM    C1410277   3.158   6.004  11.116  0.3880 -0.5303 -0.2977
  102OSM   H14A10278   3.194   5.914  11.068 -0.8797 -1.0261 -0.3619
  102OSM   H14B10279   3.106   6.054  11.035  1.7304 -0.0284 -0.8914
  102OSM   H14C10280   3.090   5.977  11.195 -0.7356 -0.3460 -1.1637
  102OSM    C1310281   3.226   6.218  11.189  0.0793 -0.6455 -0.2679
  102OSM   H13A10282   3.186   6.257  11.096 -2.4007 -0.1830  0.9190
  102OSM   H13B10283   3.302   6.290  11.217  0.2694 -0.7342 -0.5413
  102OSM   H13C10284   3.161   6.236  11.273  2.8838  2.0282  1.5312
  102OSM    C1210285   3.387   6.088  11.044  0.2707 -0.0799 -0.8578
  102OSM   H12A10286   3.438   5.994  11.030 -1.9915 -1.6223  0.6352
  102OSM   H12B10287   3.465   6.160  11.067 -1.3859  1.9588 -1.2618
  102OSM    C1110288   3.329   6.131  10.908 -0.6528 -0.1059  0.2124
  102OSM   H11A10289   3.413   6.159  10.841  0.4831  0.4876  1.8231
  102OSM   H11B10290   3.267   6.223  10.917 -1.1446 -0.3967 -0.1642
  102OSM      P10291   3.320   5.905  10.780 -0.4176  0.2475  0.0346
  102OSM    O1310292   3.459   5.897  10.817 -0.7122 -0.4601 -0.0944
  102OSM    O1410293   3.239   5.785  10.809 -0.4641 -0.1484  0.0029
  102OSM    O1110294   3.315   5.946  10.631 -0.0217 -0.1076  0.1433
  102OSM    O1210295   3.257   6.030  10.847 -0.0705 -0.3007  0.4207
  102OSM    C1S10296   3.203   6.009  10.569 -0.0943 -0.1218 -0.2099
  102OSM    H1S10297   3.216   6.117  10.594  0.8669 -0.1030 -0.7621
  102OSM    H1T10298   3.108   5.971  10.613 -0.9595  2.7116  0.6293
  102OSM     NF10299   3.090   6.065  10.358 -0.4723  0.4124  0.0044
  102OSM    HNF10300   3.027   6.005  10.311 -1.5627 -0.0985  1.9940
  102OSM    C2S10301   3.210   5.997  10.415 -0.0734  0.3991  0.3603
  102OSM    H2S10302   3.300   6.052  10.379  0.6475  0.4920  2.2048
  102OSM    C3S10303   3.209   5.841  10.377 -0.8408  0.5636  0.4661
  102OSM    H3S10304   3.120   5.789  10.419 -0.5915 -2.3385 -2.2773
  102OSM     O310305   3.321   5.765  10.422  0.3396 -0.0611 -0.5042
  102OSM    HO310306   3.363   5.820  10.489 -2.6282 -0.7848  2.2050
  102OSM    C4S10307   3.195   5.816  10.231  0.4212 -0.2666  0.7785
  102OSM    H4S10308   3.096   5.781  10.198 -0.4181  0.2133  2.7143
  102OSM    C5S10309   3.286   5.845  10.133  0.4480 -0.9454 -0.0891
  102OSM    H5S10310   3.383   5.876  10.175 -1.5423  1.6085  3.0456
  102OSM    C6S10311   3.281   5.843   9.981 -0.1215 -0.0008  0.3862
  102OSM    H6S10312   3.304   5.739   9.950  1.2125 -0.2624  2.0693
  102OSM    H6T10313   3.360   5.911   9.943 -2.0210  1.6378 -0.8198
  102OSM    C7S10314   3.144   5.880   9.922 -0.4811  0.2135 -0.3620
  102OSM    H7S10315   3.120   5.983   9.957 -2.0375 -0.3592  0.3812
  102OSM    H7T10316   3.057   5.814   9.944 -0.2599 -0.1868 -0.6915
  102OSM    C8S10317   3.156   5.903   9.772  0.0022  1.1312  0.2761
  102OSM    H8S10318   3.195   5.811   9.724 -1.6941  0.7678 -0.4895
  102OSM    H8T10319   3.225   5.988   9.754  0.5278  0.3867 -1.3864
  102OSM    C9S10320   3.018   5.941   9.714 -0.2413 -0.3099  0.0082
  102OSM    H9S10321   2.966   6.018   9.775 -0.3534  0.0585 -0.5407
  102OSM    H9T10322   2.949   5.854   9.718 -1.5215  0.6749 -0.0311
  102OSM   C10S10323   3.024   5.995   9.571 -0.3067  0.6023  0.1070
  102OSM   H10S10324   3.085   6.089   9.573  1.2678 -0.3250 -1.1892
  102OSM   H10T10325   2.921   6.022   9.542 -0.3861 -0.5918 -0.7678
  102OSM   C11S10326   3.080   5.898   9.465  0.0068 -0.5966 -0.0933
  102OSM   H11S10327   3.038   5.798   9.489  0.1153 -1.1951 -2.1750
  102OSM   H11T10328   3.191   5.891   9.468  0.1643  1.2983  0.0050
  102OSM   C12S10329   3.031   5.939   9.327 -0.0185 -0.7391 -0.1126
  102OSM   H12S10330   3.043   6.050   9.325  1.6084 -0.8640  1.1635
  102OSM   H12T10331   2.924   5.907   9.327  0.4521 -3.1732  4.7456
  102OSM   C13S10332   3.105   5.862   9.211 -0.1906 -0.6770 -0.3872
  102OSM   H13S10333   3.054   5.763   9.216  0.4576 -1.0227 -0.4206
  102OSM   H13T10334   3.215   5.856   9.227 -0.0761  1.2299 -0.2594
  102OSM   C14S10335   3.069   5.924   9.080  0.4081 -0.6742  0.2636
  102OSM   H14S10336   3.087   6.033   9.090  2.4257 -0.7748 -1.4647
  102OSM   H14T10337   2.964   5.902   9.051  0.4267 -0.4087 -0.0100
  102OSM   C15S10338   3.163   5.875   8.962 -0.4014  0.0774 -0.5818
  102OSM   H15S10339   3.123   5.905   8.863  0.1793  1.0258 -0.5376
  102OSM   H15T10340   3.184   5.767   8.978 -0.0764  0.3880  1.4065
  102OSM   C16S10341   3.307   5.932   8.960  0.7854 -0.1241  0.2018
  102OSM   H16S10342   3.366   5.877   9.036 -1.0370  0.6311  2.2833
  102OSM   H16T10343   3.309   6.042   8.979  0.7740  0.0365 -0.6684
  102OSM   C17S10344   3.367   5.912   8.817 -0.4701 -0.2489 -0.2190
  102OSM   H17S10345   3.460   5.973   8.808 -0.4098 -0.3624 -0.3726
  102OSM   H17T10346   3.304   5.941   8.731  1.6161 -0.3258 -1.8622
  102OSM   C18S10347   3.398   5.770   8.796 -0.3816 -0.3838 -0.3565
  102OSM   H18S10348   3.310   5.702   8.793 -0.0647 -0.9627  1.7794
  102OSM   H18T10349   3.472   5.741   8.873  1.3578  1.2995 -1.3111
  102OSM   H18U10350   3.450   5.746   8.701 -0.6401  1.6271 -1.0407
  102OSM    C1F10351   3.071   6.197  10.368  0.8047 -0.3150 -0.3063
  102OSM     OF10352   3.152   6.281  10.410 -0.2176  0.3761  0.6066
  102OSM    C2F10353   2.947   6.252  10.319  0.4543  0.4232 -0.4174
  102OSM    H2F10354   2.864   6.194  10.364 -0.8236  2.2198 -0.3312
  102OSM    H2G10355   2.945   6.232  10.210  1.1260 -0.1993 -0.3168
  102OSM    C3F10356   2.918   6.401  10.341 -0.2068 -0.1678 -0.0449
  102OSM    H3F10357   2.992   6.478  10.308  0.0641 -0.6339 -0.5299
  102OSM    H3G10358   2.901   6.411  10.450  1.3390  0.9056  0.1428
  102OSM    C4F10359   2.793   6.439  10.262  0.0886 -0.4546  0.5224
  102OSM    H4F10360   2.698   6.401  10.305 -1.2202  0.9262 -0.9952
  102OSM    H4G10361   2.798   6.395  10.160 -1.2754  0.3127  0.0979
  102OSM    C5F10362   2.767   6.593  10.240  1.0209  0.0598 -0.8713
  102OSM    H5F10363   2.815   6.650  10.322 -1.5147  1.6844 -0.4081
  102OSM    H5G10364   2.662   6.620  10.262  1.7252  1.8132  0.6449
  102OSM    C6F10365   2.807   6.647  10.102  0.1160 -0.1937 -0.1684
  102OSM    H6F10366   2.756   6.585  10.025  0.5462  0.3339 -0.8981
  102OSM    H6G10367   2.917   6.630  10.091  0.5665  0.5703  2.4425
  102OSM    C7F10368   2.746   6.785  10.079 -0.2018 -0.1750  0.1572
  102OSM    H7F10369   2.791   6.865  10.142 -1.7092  0.6465  0.2501
  102OSM    H7G10370   2.639   6.780  10.110 -0.6809 -1.7624 -1.5744
  102OSM    C8F10371   2.773   6.836   9.932 -0.0738  0.7201  0.6248
  102OSM    H8F10372   2.880   6.822   9.908 -0.5911  0.4695 -1.8936
  102OSM    H8G10373   2.741   6.942   9.926 -1.4888  0.2399 -2.1660
  102OSM    C9F10374   2.672   6.765   9.844 -0.0290 -0.3742  0.0298
  102OSM    H9F10375   2.570   6.763   9.885 -0.1516 -2.8461 -0.2908
  102OSM   C10F10376   2.710   6.701   9.735  0.0571 -0.8346  0.3591
  102OSM   H10F10377   2.642   6.639   9.675  2.1454 -0.1979 -2.9118
  102OSM   C11F10378   2.851   6.691   9.676 -0.1808 -0.0272 -0.8111
  102OSM   H11F10379   2.857   6.583   9.651  0.1578 -0.7216  1.9796
  102OSM   H11G10380   2.936   6.717   9.743  0.9546 -2.6116 -1.0996
  102OSM   C12F10381   2.868   6.788   9.564 -0.5569  0.0054 -0.1441
  102OSM   H12F10382   2.966   6.767   9.518 -0.3126  0.5693  0.1022
  102OSM   H12G10383   2.867   6.897   9.586  0.1678 -0.2332  1.1504
  102OSM   C13F10384   2.768   6.772   9.447  0.2801  0.1373  0.2101
  102OSM   H13F10385   2.675   6.828   9.472  0.0913 -0.1578  0.1646
  102OSM   H13G10386   2.730   6.668   9.439 -1.0151  0.5738  0.5721
  102OSM   C14F10387   2.823   6.829   9.313  0.6337 -0.6737 -0.4281
  102OSM   H14F10388   2.900   6.767   9.261  0.5033  0.0326 -1.4920
  102OSM   H14G10389   2.877   6.924   9.331  1.3656 -1.0153 -0.7539
  102OSM   C15F10390   2.720   6.842   9.207  0.7407 -0.5551 -0.9826
  102OSM   H15F10391   2.787   6.885   9.129 -1.0812  1.4846 -1.5201
  102OSM   H15G10392   2.638   6.910   9.240  0.2220 -0.2112 -2.8766
  102OSM   C16F10393   2.680   6.704   9.158 -0.3493  0.0159 -0.0194
  102OSM   H16F10394   2.616   6.646   9.228 -1.0578  1.9401  0.9988
  102OSM   H16G10395   2.778   6.651   9.157  1.2854  2.8005 -2.2257
  102OSM   C17F10396   2.614   6.708   9.015  0.4508 -0.5318  0.4110
  102OSM   H17F10397   2.607   6.602   8.980  1.7035 -0.6440  0.4558
  102OSM   H17G10398   2.675   6.753   8.933  2.1172 -1.5907  1.0102
  102OSM   C18F10399   2.469   6.765   9.009  0.1485 -1.0010 -0.4475
  102OSM   H18F10400   2.428   6.755   8.906 -2.7529 -3.1577  0.7736
  102OSM   H18G10401   2.481   6.870   9.044  0.1665 -1.1457 -0.0084
  102OSM   H18H10402   2.391   6.711   9.067 -1.9075  1.6178 -0.5503
  103OSM      N10403   5.420   2.035  11.296 -0.2888  0.5747  0.0106
  103OSM    C1510404   5.365   2.128  11.399  0.0733 -0.2658  0.2395
  103OSM   H15A10405   5.365   2.232  11.369 -0.1703 -0.1154  0.7443
  103OSM   H15B10406   5.412   2.114  11.496 -0.1869  0.5196  0.4878
  103OSM   H15C10407   5.260   2.107  11.413  0.5829 -1.5310  2.7073
  103OSM    C1410408   5.338   2.038  11.173  0.6449  0.5462 -0.4008
  103OSM   H14A10409   5.335   2.130  11.117 -0.9553 -0.4417 -2.0832
  103OSM   H14B10410   5.235   2.017  11.201  1.8757 -2.2191  2.7121
  103OSM   H14C10411   5.359   1.953  11.109 -0.4612  0.2373 -0.3863
  103OSM    C1310412   5.558   2.077  11.262 -0.4970 -0.2131  0.4714
  103OSM   H13A10413   5.624   2.062  11.346 -2.0725  0.8621  1.9902
  103OSM   H13B10414   5.566   2.181  11.232  1.6427 -0.4428  0.1629
  103OSM   H13C10415   5.597   2.011  11.186 -1.3770  0.6134 -0.7479
  103OSM    C1210416   5.435   1.888  11.344  0.2706 -0.8878  0.1859
  103OSM   H12A10417   5.340   1.858  11.385 -0.0799 -1.0865 -0.7458
  103OSM   H12B10418   5.499   1.885  11.431  2.0430  3.0053 -0.7559
  103OSM    C1110419   5.461   1.777  11.236  0.9141  0.1191  0.0947
  103OSM   H11A10420   5.360   1.761  11.193  0.9586 -0.9521  0.3575
  103OSM   H11B10421   5.486   1.680  11.284 -1.1520 -0.9812 -0.9168
  103OSM      P10422   5.566   1.792  10.993 -0.1141  0.3933 -0.0706
  103OSM    O1310423   5.696   1.845  10.941  0.0618  0.1552  0.0708
  103OSM    O1410424   5.529   1.652  10.972 -0.2524 -0.1217 -0.6921
  103OSM    O1110425   5.444   1.883  10.943  0.5383  0.0467  0.2006
  103OSM    O1210426   5.565   1.806  11.148  0.0575 -0.4146  0.4249
  103OSM    C1S10427   5.460   1.964  10.826  0.1126 -0.1677 -0.2721
  103OSM    H1S10428   5.559   2.015  10.829  0.1159 -0.2079  0.4565
  103OSM    H1T10429   5.382   2.043  10.820  0.9510  0.6842 -0.1507
  103OSM     NF10430   5.461   1.974  10.575 -0.0047  0.3293 -0.1931
  103OSM    HNF10431   5.380   2.027  10.553  0.4375  1.4474  0.7768
  103OSM    C2S10432   5.441   1.887  10.691  0.1924  0.2003  0.1958
  103OSM    H2S10433   5.522   1.811  10.697  0.0800  0.1186  0.6643
  103OSM    C3S10434   5.303   1.814  10.672 -0.5253 -0.4903  0.1106
  103OSM    H3S10435   5.216   1.883  10.663  0.0266 -0.1120 -3.6909
  103OSM     O310436   5.269   1.733  10.786  0.0550  0.2382 -0.7598
  103OSM    HO310437   5.341   1.738  10.849 -1.3516  0.6697  0.8772
  103OSM    C4S10438   5.303   1.725  10.551 -0.5369 -0.2245 -0.0455
  103OSM    H4S10439   5.352   1.627  10.562  1.0635  0.4642 -0.7985
  103OSM    C5S10440   5.254   1.762  10.431  0.1630 -0.2609  0.2034
  103OSM    H5S10441   5.233   1.868  10.409 -0.3713 -0.6215 -1.0535
  103OSM    C6S10442   5.255   1.669  10.310 -0.5322  0.3009  0.1727
  103OSM    H6S10443   5.327   1.698  10.231 -0.6789 -0.6787 -0.3462
  103OSM    H6T10444   5.153   1.666  10.266  0.0674 -1.3351 -1.2627
  103OSM    C7S10445   5.297   1.523  10.343 -0.1997  1.2091  0.1449
  103OSM    H7S10446   5.241   1.489  10.433 -1.8296  1.2525 -0.8200
  103OSM    H7T10447   5.406   1.513  10.361 -0.3829 -1.8177  0.2123
  103OSM    C8S10448   5.262   1.421  10.229 -0.1869  0.4471 -0.0899
  103OSM    H8S10449   5.340   1.342  10.231 -0.7884 -0.2217 -1.9364
  103OSM    H8T10450   5.260   1.479  10.135  0.7569 -2.5656 -2.1087
  103OSM    C9S10451   5.114   1.364  10.239 -0.9425 -0.2692 -0.3328
  103OSM    H9S10452   5.045   1.449  10.262  0.4892  1.1795 -1.1827
  103OSM    H9T10453   5.112   1.288  10.320  1.7742 -0.2002 -0.1303
  103OSM   C10S10454   5.060   1.301  10.108 -0.2710 -0.1704 -0.3818
  103OSM   H10S10455   5.049   1.370  10.022  1.2627  1.0241  0.3246
  103OSM   H10T10456   4.961   1.255  10.130 -1.2901  1.6430 -0.9983
  103OSM   C11S10457   5.154   1.194  10.052 -0.2403  0.0597  0.3555
  103OSM   H11S10458   5.155   1.101  10.113 -1.2297 -1.5402 -1.9351
  103OSM   H11T10459   5.257   1.234  10.038 -0.6028  1.0744  0.4924
  103OSM   C12S10460   5.103   1.163   9.915 -0.0767  0.0513  0.0815
  103OSM   H12S10461   5.186   1.195   9.848  0.1180 -1.1858 -0.3058
  103OSM   H12T10462   5.006   1.208   9.886 -0.1836 -1.0063 -1.3730
  103OSM   C13S10463   5.083   1.011   9.888  0.8972 -0.7651  0.3368
  103OSM   H13S10464   5.009   0.968   9.959 -1.6182  0.5018 -1.3735
  103OSM   H13T10465   5.179   0.961   9.915  1.5175  1.0279  1.6652
  103OSM   C14S10466   5.050   0.973   9.743  0.1524  0.6380 -0.2400
  103OSM   H14S10467   5.116   1.037   9.681 -1.9836  1.4915 -1.7822
  103OSM   H14T10468   4.946   0.997   9.712 -1.0713 -3.2395  0.3004
  103OSM   C15S10469   5.065   0.828   9.711 -0.2911  0.1120 -0.7338
  103OSM   H15S10470   4.986   0.775   9.769  1.3798 -0.6683  0.9338
  103OSM   H15T10471   5.161   0.785   9.747  0.0672  1.8732  0.5578
  103OSM   C16S10472   5.044   0.796   9.565 -1.1334 -0.3151  0.4228
  103OSM   H16S10473   5.069   0.688   9.561 -2.9911 -0.8764  2.2830
  103OSM   H16T10474   5.117   0.856   9.507 -0.6306 -0.5721  0.7827
  103OSM   C17S10475   4.900   0.809   9.512  0.1051 -0.0433 -0.3880
  103OSM   H17S10476   4.873   0.916   9.502  2.4591  0.7434  1.0862
  103OSM   H17T10477   4.830   0.785   9.595  1.0948  0.8851  0.7358
  103OSM   C18S10478   4.874   0.743   9.372  0.0283  0.2444 -0.4998
  103OSM   H18S10479   4.960   0.771   9.308  1.0116  1.5529  1.3038
  103OSM   H18T10480   4.781   0.780   9.323 -0.6051 -1.2042 -0.4513
  103OSM   H18U10481   4.876   0.632   9.384  0.0850  0.3076  0.1215
  103OSM    C1F10482   5.579   2.000  10.511 -0.2406 -0.1195 -0.0302
  103OSM     OF10483   5.689   1.957  10.552  0.2925 -0.4021  0.2982
  103OSM    C2F10484   5.569   2.094  10.392 -0.5070  0.3694 -0.2514
  103OSM    H2F10485   5.637   2.180  10.413 -0.7089  0.3373  0.5286
  103OSM    H2G10486   5.469   2.141  10.392 -1.3262 -1.3154 -0.8345
  103OSM    C3F10487   5.605   2.045  10.249 -0.7478  0.6661  0.0516
  103OSM    H3F10488   5.585   2.131  10.182  0.0538  1.9148  1.3724
  103OSM    H3G10489   5.533   1.964  10.225 -1.5975  1.8260 -1.4756
  103OSM    C4F10490   5.744   1.973  10.236 -0.5785  0.0889 -0.1697
  103OSM    H4F10491   5.733   1.881  10.297 -0.6603 -2.2275 -3.4299
  103OSM    H4G10492   5.832   2.034  10.265  0.2689 -1.1540 -0.0487
  103OSM    C5F10493   5.763   1.916  10.090 -0.1122  0.2014 -0.4113
  103OSM    H5F10494   5.747   2.004  10.025  1.6258 -0.1938 -1.4335
  103OSM    H5G10495   5.690   1.834  10.081  1.8825 -1.8659  1.0035
  103OSM    C6F10496   5.907   1.863  10.066  0.8685 -0.0782  0.3290
  103OSM    H6F10497   5.934   1.803  10.155 -0.0222  1.6510  1.8275
  103OSM    H6G10498   5.990   1.937  10.071  2.5027 -1.9276  3.0509
  103OSM    C7F10499   5.921   1.793   9.933 -0.0020 -0.5887 -0.2549
  103OSM    H7F10500   5.903   1.687   9.958 -1.6883 -0.5955 -1.3572
  103OSM    H7G10501   6.027   1.799   9.900  0.0179 -0.2306 -0.1411
  103OSM    C8F10502   5.818   1.812   9.819 -0.4512 -0.1002 -0.0374
  103OSM    H8F10503   5.785   1.919   9.819  0.0040  0.0941 -2.3563
  103OSM    H8G10504   5.728   1.756   9.852 -0.5112 -1.9156 -2.8897
  103OSM    C9F10505   5.864   1.768   9.686 -0.3590 -0.3271  0.5961
  103OSM    H9F10506   5.961   1.814   9.663 -1.1708  0.8549 -0.6123
  103OSM   C10F10507   5.801   1.686   9.598  0.4643  0.1529  0.2211
  103OSM   H10F10508   5.851   1.664   9.503  0.5607  2.2084 -0.2648
  103OSM   C11F10509   5.661   1.628   9.610 -0.4635 -0.5773 -0.0266
  103OSM   H11F10510   5.602   1.699   9.673 -3.4852 -2.4784 -0.5223
  103OSM   H11G10511   5.674   1.531   9.663  1.9464 -0.4591 -0.2917
  103OSM   C12F10512   5.583   1.624   9.478 -0.0976  0.7499  0.7678
  103OSM   H12F10513   5.607   1.719   9.425 -1.3079  0.6923  0.0926
  103OSM   H12G10514   5.474   1.615   9.502 -0.6459 -2.9849 -2.2542
  103OSM   C13F10515   5.595   1.506   9.384 -0.3825  0.2541 -0.3101
  103OSM   H13F10516   5.546   1.417   9.429  0.0278 -0.6306 -1.5810
  103OSM   H13G10517   5.532   1.519   9.294 -1.7438  1.0662  0.7083
  103OSM   C14F10518   5.733   1.471   9.324 -0.3645  0.0024 -0.0651
  103OSM   H14F10519   5.800   1.455   9.412  0.5826  1.4265 -0.4992
  103OSM   H14G10520   5.769   1.555   9.261 -2.4528  0.1924 -1.0726
  103OSM   C15F10521   5.723   1.340   9.236 -0.7358  0.0856 -0.8266
  103OSM   H15F10522   5.723   1.257   9.310  3.1757  3.1000  3.0713
  103OSM   H15G10523   5.828   1.323   9.202 -0.4759 -1.7038  0.6986
  103OSM   C16F10524   5.625   1.332   9.116 -0.2911  0.4892 -0.3343
  103OSM   H16F10525   5.523   1.340   9.161 -0.1294 -0.4192  0.2129
  103OSM   H16G10526   5.629   1.228   9.077 -2.4901  0.0671  0.4153
  103OSM   C17F10527   5.639   1.430   9.004  0.9007  0.4037 -0.8076
  103OSM   H17F10528   5.637   1.532   9.047 -0.7719 -0.3966  1.2168
  103OSM   H17G10529   5.549   1.429   8.938 -1.3361 -3.1570  1.9027
  103OSM   C18F10530   5.770   1.411   8.935  0.4654  0.9237  0.5514
  103OSM   H18F10531   5.794   1.304   8.918  1.1778  1.3659 -1.5644
  103OSM   H18G10532   5.856   1.452   8.992  0.8864  0.6139  0.1466
  103OSM   H18H10533   5.763   1.461   8.836 -2.0817  1.2182  0.8324
  104OSM      N10534   1.881   2.137  11.163  0.3625  0.0440  0.0978
  104OSM    C1510535   1.775   2.167  11.269 -0.1673  0.6114 -0.7840
  104OSM   H15A10536   1.705   2.246  11.246  0.0117  0.8620 -0.4776
  104OSM   H15B10537   1.831   2.176  11.361  2.3752  4.2863 -2.4860
  104OSM   H15C10538   1.714   2.078  11.281  2.9292 -1.8178 -1.6677
  104OSM    C1410539   1.960   2.267  11.152  0.3690  0.5852 -0.0845
  104OSM   H14A10540   1.898   2.344  11.109 -0.5101  0.5544  1.1201
  104OSM   H14B10541   2.041   2.245  11.083  0.1372 -0.3962 -0.0611
  104OSM   H14C10542   2.008   2.294  11.245 -2.3135  1.3731  1.1550
  104OSM    C1310543   1.981   2.027  11.193  0.5217 -1.0910 -0.2806
  104OSM   H13A10544   2.056   2.063  11.261 -1.7904 -0.7306  2.2810
  104OSM   H13B10545   2.033   1.996  11.104  1.0067  0.9100 -0.7563
  104OSM   H13C10546   1.939   1.936  11.233 -1.9596  0.7821  1.7687
  104OSM    C1210547   1.816   2.126  11.031  0.1479  0.1250  0.0161
  104OSM   H12A10548   1.746   2.209  11.029 -2.9193 -2.2386  1.0988
  104OSM   H12B10549   1.750   2.041  11.042 -1.4954  1.4724  1.3358
  104OSM    C1110550   1.892   2.124  10.896 -0.7056  0.2533  0.0001
  104OSM   H11A10551   1.939   2.224  10.881 -1.8190  0.8864  0.5591
  104OSM   H11B10552   1.813   2.115  10.819 -0.6312 -1.7979  0.1054
  104OSM      P10553   1.931   1.861  10.874  0.2160  0.0594  0.0347
  104OSM    O1310554   2.018   1.762  10.943 -0.4992 -0.0819  0.1098
  104OSM    O1410555   1.781   1.860  10.905 -0.5185 -0.8258  0.0037
  104OSM    O1110556   1.945   1.836  10.722  0.3291  0.0658  0.2058
  104OSM    O1210557   1.984   2.013  10.892  0.3758  0.0151  0.1312
  104OSM    C1S10558   2.007   1.938  10.641 -0.6156 -0.7421 -0.2736
  104OSM    H1S10559   2.103   1.965  10.690 -0.1476 -3.2303  0.3711
  104OSM    H1T10560   1.955   2.035  10.638  1.6858  0.6652  1.6564
  104OSM     NF10561   2.106   1.994  10.408  0.6891 -0.2959  0.2296
  104OSM    HNF10562   2.058   2.067  10.360  0.2259  1.5388  3.1569
  104OSM    C2S10563   2.037   1.893  10.484  0.2920  0.2212  0.3435
  104OSM    H2S10564   2.103   1.804  10.489  1.7670  1.1623 -1.1094
  104OSM    C3S10565   1.903   1.848  10.411 -0.3970  0.0479 -0.0219
  104OSM    H3S10566   1.836   1.936  10.398  1.0082  1.0314 -0.8102
  104OSM     O310567   1.828   1.759  10.494  0.3854  0.4405  0.3460
  104OSM    HO310568   1.864   1.765  10.583  0.3612 -0.2242  0.4061
  104OSM    C4S10569   1.930   1.783  10.278 -0.7813 -0.9313  0.4908
  104OSM    H4S10570   1.958   1.856  10.201 -1.4276 -1.5071 -0.2955
  104OSM    C5S10571   1.932   1.654  10.245  0.5045 -0.0543 -0.1880
  104OSM    H5S10572   1.892   1.579  10.315 -0.2812 -0.8699 -1.4841
  104OSM    C6S10573   1.974   1.612  10.104 -0.0385 -0.0797  0.0188
  104OSM    H6S10574   1.901   1.548  10.050  1.2793 -1.5572 -0.0827
  104OSM    H6T10575   2.061   1.544  10.121 -0.0294 -0.3850 -1.1906
  104OSM    C7S10576   2.018   1.720  10.001 -0.5116  0.6982 -0.2913
  104OSM    H7S10577   2.115   1.762  10.035 -0.3592 -0.3509  0.6322
  104OSM    H7T10578   1.945   1.803  10.007 -1.0189  0.1773  0.9295
  104OSM    C8S10579   2.024   1.665   9.855 -0.3380  0.8939 -0.2784
  104OSM    H8S10580   2.026   1.749   9.782  1.6731 -0.4057 -1.8296
  104OSM    H8T10581   1.924   1.622   9.833  0.4473  0.6837 -4.1209
  104OSM    C9S10582   2.128   1.560   9.817 -0.1001 -0.4390 -0.6018
  104OSM    H9S10583   2.136   1.476   9.889  2.0849  2.0253  2.3257
  104OSM    H9T10584   2.228   1.609   9.820 -1.6521  3.1373 -1.7292
  104OSM   C10S10585   2.108   1.505   9.666  0.1978 -0.0119  1.0730
  104OSM   H10S10586   2.017   1.443   9.658 -1.5424  2.3380  1.3602
  104OSM   H10T10587   2.200   1.448   9.645 -0.0873 -0.2692  0.5231
  104OSM   C11S10588   2.088   1.603   9.550 -0.0886 -0.4021  0.6785
  104OSM   H11S10589   2.150   1.694   9.561 -1.4970  0.3443  2.9866
  104OSM   H11T10590   1.985   1.643   9.554 -0.2431 -0.7937  0.7372
  104OSM   C12S10591   2.127   1.546   9.409  0.3918 -0.1161 -0.5409
  104OSM   H12S10592   2.056   1.463   9.386 -1.0669  0.2922  2.0374
  104OSM   H12T10593   2.230   1.510   9.430  0.1517  0.6945  2.6089
  104OSM   C13S10594   2.111   1.646   9.294 -0.5117  0.3057 -1.0490
  104OSM   H13S10595   2.189   1.723   9.312  0.5134 -0.9944  0.2821
  104OSM   H13T10596   2.012   1.697   9.302 -0.9361 -0.3302 -2.0981
  104OSM   C14S10597   2.117   1.577   9.158  0.0815  1.1621  0.5641
  104OSM   H14S10598   2.187   1.491   9.157 -2.1433 -0.7601 -1.5712
  104OSM   H14T10599   2.154   1.667   9.105  0.5626  0.6616  0.0477
  104OSM   C15S10600   1.982   1.519   9.113  0.1105 -0.0225 -0.0745
  104OSM   H15S10601   1.902   1.575   9.166 -0.3574 -0.5036 -0.2577
  104OSM   H15T10602   1.980   1.413   9.149 -0.9566 -0.0574 -0.1893
  104OSM   C16S10603   1.956   1.538   8.966  0.1007 -0.6748 -0.0432
  104OSM   H16S10604   1.985   1.637   8.925 -2.1412  0.2024  0.3048
  104OSM   H16T10605   1.846   1.522   8.954 -0.3669  2.4514 -0.6548
  104OSM   C17S10606   2.014   1.427   8.874  0.2376 -0.2566  0.1743
  104OSM   H17S10607   2.122   1.453   8.867 -0.1884  1.2541 -1.8372
  104OSM   H17T10608   1.980   1.439   8.769 -0.9770  1.0145  0.6853
  104OSM   C18S10609   2.004   1.278   8.912 -0.3301 -0.3596 -0.0482
  104OSM   H18S10610   1.903   1.274   8.958  0.3557  1.6422  1.8267
  104OSM   H18T10611   2.077   1.254   8.993 -0.3260  0.8262  0.3262
  104OSM   H18U10612   2.023   1.212   8.825  0.2132  0.0710 -0.2631
  104OSM    C1F10613   2.221   2.048  10.457 -0.0237 -0.0599  0.8035
  104OSM     OF10614   2.301   1.990  10.532  0.0483 -0.0527 -0.0175
  104OSM    C2F10615   2.247   2.185  10.397 -0.6143 -0.0829  0.2769
  104OSM    H2F10616   2.204   2.264  10.462 -0.6006  0.7911 -0.7546
  104OSM    H2G10617   2.196   2.196  10.299 -0.3294  1.1001  0.2507
  104OSM    C3F10618   2.398   2.205  10.372  0.2124  0.3603 -0.0709
  104OSM    H3F10619   2.450   2.166  10.462 -2.4270 -1.6420  0.7125
  104OSM    H3G10620   2.422   2.313  10.357 -3.6054  1.2814 -0.5760
  104OSM    C4F10621   2.447   2.121  10.252 -0.0357  0.0152 -0.0401
  104OSM    H4F10622   2.400   2.021  10.265 -0.0748  0.1956  1.3817
  104OSM    H4G10623   2.558   2.121  10.260 -0.0407 -0.1509  0.0333
  104OSM    C5F10624   2.413   2.187  10.122 -0.3505 -0.0897  0.2993
  104OSM    H5F10625   2.468   2.283  10.109 -0.6927  0.1425  0.5634
  104OSM    H5G10626   2.306   2.207  10.101 -0.5558 -1.6021 -0.2415
  104OSM    C6F10627   2.466   2.088  10.018 -0.1323 -0.5165  0.1537
  104OSM    H6F10628   2.421   1.989  10.039  1.3985 -1.4922 -0.9416
  104OSM    H6G10629   2.576   2.078  10.029  0.0353 -0.9377 -1.6071
  104OSM    C7F10630   2.419   2.131   9.876  0.2927  0.1056 -0.0094
  104OSM    H7F10631   2.439   2.237   9.849  0.9415 -0.3077 -1.2426
  104OSM    H7G10632   2.309   2.118   9.871  0.2140  1.0769 -1.4315
  104OSM    C8F10633   2.482   2.045   9.763 -0.2115 -0.4449 -0.4972
  104OSM    H8F10634   2.592   2.060   9.760 -0.3143  0.1697 -2.1826
  104OSM    H8G10635   2.435   2.080   9.669 -0.4080 -0.9096 -0.5749
  104OSM    C9F10636   2.456   1.896   9.777  0.1662 -1.2051  0.3497
  104OSM    H9F10637   2.448   1.854   9.879 -0.5310  1.0912  1.3104
  104OSM   C10F10638   2.448   1.812   9.677  0.3848  0.3422  0.6362
  104OSM   H10F10639   2.440   1.703   9.691 -0.8661  0.1849 -0.9395
  104OSM   C11F10640   2.449   1.846   9.528  0.4869  0.1871 -0.6988
  104OSM   H11F10641   2.504   1.940   9.506 -0.1908  0.7195 -0.1640
  104OSM   H11G10642   2.343   1.845   9.495 -0.0609 -0.7833  0.9713
  104OSM   C12F10643   2.520   1.736   9.447  0.5298  0.6997  0.7124
  104OSM   H12F10644   2.471   1.637   9.444 -0.0624  0.9422  1.7006
  104OSM   H12G10645   2.615   1.711   9.498 -0.4458 -2.2673  1.2500
  104OSM   C13F10646   2.552   1.777   9.297 -0.2071 -0.5017 -1.1031
  104OSM   H13F10647   2.600   1.877   9.305  1.4679 -1.3540  0.1823
  104OSM   H13G10648   2.463   1.800   9.234  2.4908 -0.0870 -5.1689
  104OSM   C14F10649   2.661   1.684   9.229  0.5044  0.0579 -0.3537
  104OSM   H14F10650   2.664   1.723   9.125 -0.3400 -0.5714 -0.6204
  104OSM   H14G10651   2.623   1.580   9.224 -0.4356  0.3839 -0.2084
  104OSM   C15F10652   2.793   1.684   9.307  0.1036  0.3793 -0.1997
  104OSM   H15F10653   2.790   1.623   9.400 -1.6800  2.2057  1.0072
  104OSM   H15G10654   2.812   1.788   9.342  1.1568 -0.0032  0.4012
  104OSM   C16F10655   2.911   1.625   9.228 -0.2073  0.8082  0.1125
  104OSM   H16F10656   2.894   1.518   9.204 -0.2732  1.1065 -1.2587
  104OSM   H16G10657   2.997   1.610   9.297 -0.2370 -0.8025 -0.1484
  104OSM   C17F10658   2.962   1.705   9.105  0.1583 -0.7092  0.3594
  104OSM   H17F10659   2.892   1.721   9.020  3.4013 -0.7517 -2.5900
  104OSM   H17G10660   3.036   1.645   9.047 -0.1478  1.1851 -2.1714
  104OSM   C18F10661   3.035   1.837   9.138  0.6962  0.0578  0.2755
  104OSM   H18F10662   2.963   1.901   9.194  0.8551 -0.9224  1.6582
  104OSM   H18G10663   3.067   1.894   9.049  0.1458 -0.8556 -0.5199
  104OSM   H18H10664   3.125   1.829   9.203  0.8785  1.5764  0.2630
  105OSM      N10665   2.290   1.235  10.673 -0.2201  0.1305  0.0335
  105OSM    C1510666   2.174   1.174  10.601 -0.0950  0.7055 -0.1150
  105OSM   H15A10667   2.203   1.116  10.514 -1.3729  2.6264 -1.9295
  105OSM   H15B10668   2.100   1.249  10.576 -0.6484  0.9727  2.1491
  105OSM   H15C10669   2.127   1.106  10.671 -0.4357  1.1718  0.1130
  105OSM    C1410670   2.332   1.351  10.588 -0.8957  0.4116  0.1979
  105OSM   H14A10671   2.380   1.299  10.507 -2.2599 -1.2114  0.3522
  105OSM   H14B10672   2.402   1.420  10.632  0.7299 -0.3851 -1.0270
  105OSM   H14C10673   2.248   1.403  10.545 -1.3195  0.2608  0.8309
  105OSM    C1310674   2.250   1.283  10.812 -1.0769  0.4679 -0.0702
  105OSM   H13A10675   2.209   1.206  10.875 -1.2683  2.1032  1.9216
  105OSM   H13B10676   2.181   1.367  10.813 -1.6056  0.1503  3.8082
  105OSM   H13C10677   2.336   1.318  10.866 -1.2642  0.0358  0.5055
  105OSM    C1210678   2.397   1.126  10.681  0.2400  0.4651 -0.1719
  105OSM   H12A10679   2.402   1.076  10.585 -0.7805 -0.1086  0.0536
  105OSM   H12B10680   2.373   1.066  10.767  0.8261  1.0581  0.4127
  105OSM    C1110681   2.532   1.178  10.729  0.8083  1.1852  0.5921
  105OSM   H11A10682   2.533   1.218  10.832  2.3513  0.1444  1.0135
  105OSM   H11B10683   2.571   1.262  10.668 -1.7682  3.0034  1.2882
  105OSM      P10684   2.624   0.944  10.807 -0.1208 -0.0065  0.2230
  105OSM    O1310685   2.709   0.993  10.923  0.3886  0.8350 -0.0399
  105OSM    O1410686   2.485   0.908  10.845  0.3234 -0.3753 -0.1256
  105OSM    O1110687   2.694   0.829  10.714 -0.0706 -0.8444 -0.8246
  105OSM    O1210688   2.618   1.064  10.705 -0.2890  0.0219  0.3973
  105OSM    C1S10689   2.625   0.784  10.599 -0.2704 -0.5856  0.8472
  105OSM    H1S10690   2.514   0.787  10.612 -0.2480  0.8379  0.8342
  105OSM    H1T10691   2.647   0.675  10.588  0.8229 -0.3138  0.2045
  105OSM     NF10692   2.589   0.813  10.352 -0.0765 -0.2572  0.3610
  105OSM    HNF10693   2.620   0.745  10.285 -0.4451  1.1193 -1.2736
  105OSM    C2S10694   2.674   0.854  10.455 -0.1029 -0.1096 -0.2046
  105OSM    H2S10695   2.662   0.963  10.474  2.0744 -0.1317  1.6780
  105OSM    C3S10696   2.822   0.827  10.434  0.4119  0.3160  0.0816
  105OSM    H3S10697   2.830   0.716  10.436 -1.7499  0.0967  3.3529
  105OSM     O310698   2.907   0.872  10.544  0.0872 -0.2071  0.6978
  105OSM    HO310699   2.841   0.905  10.606 -0.9643  0.9456 -0.9544
  105OSM    C4S10700   2.871   0.878  10.302  0.0493 -0.2273  0.5577
  105OSM    H4S10701   2.846   0.809  10.220  1.8327  0.6452 -0.7903
  105OSM    C5S10702   2.937   0.994  10.269 -0.7805 -0.4499 -1.3821
  105OSM    H5S10703   2.929   1.068  10.349 -1.4944 -0.3616 -1.5358
  105OSM    C6S10704   2.982   1.038  10.130  0.0806 -0.3585 -0.0823
  105OSM    H6S10705   3.089   1.009  10.120  0.3797  1.1242 -1.7966
  105OSM    H6T10706   2.976   1.148  10.119 -0.1447 -0.3277  0.3332
  105OSM    C7S10707   2.910   0.962  10.011 -0.0059 -0.1522  0.0149
  105OSM    H7S10708   2.801   0.987  10.009 -0.0316 -0.2863 -0.2839
  105OSM    H7T10709   2.916   0.853  10.028  0.6073 -0.3808 -1.5208
  105OSM    C8S10710   2.971   0.977   9.869 -0.4655  0.2182 -0.3583
  105OSM    H8S10711   3.074   0.937   9.871 -1.1224 -1.5022  1.8543
  105OSM    H8T10712   2.973   1.086   9.848  0.1338 -0.0266 -1.6849
  105OSM    C9S10713   2.897   0.909   9.757 -0.3141  0.0811  0.1711
  105OSM    H9S10714   2.792   0.942   9.767 -0.5030 -1.0371  2.5448
  105OSM    H9T10715   2.890   0.798   9.758  1.3941 -0.0663 -0.5953
  105OSM   C10S10716   2.941   0.943   9.617 -0.2636  0.0251 -0.4489
  105OSM   H10S10717   2.954   1.053   9.606  2.0041 -0.2195 -0.5591
  105OSM   H10T10718   2.852   0.913   9.558  0.2386  1.8963 -2.2790
  105OSM   C11S10719   3.058   0.864   9.572  0.1269 -0.6285 -0.0440
  105OSM   H11S10720   3.046   0.754   9.589  0.9154 -0.8258 -0.7157
  105OSM   H11T10721   3.145   0.889   9.637 -0.2183  1.6356 -0.3773
  105OSM   C12S10722   3.105   0.895   9.425 -0.3750  0.6977 -0.8572
  105OSM   H12S10723   3.207   0.854   9.408  0.1704  2.3694 -1.8674
  105OSM   H12T10724   3.120   1.005   9.415 -2.6427  1.1980  0.5358
  105OSM   C13S10725   3.006   0.836   9.319 -0.2374  0.6939 -0.5958
  105OSM   H13S10726   2.904   0.874   9.341 -0.3382  1.5057 -2.2855
  105OSM   H13T10727   3.009   0.725   9.319 -1.0204  0.6645 -0.5083
  105OSM   C14S10728   3.036   0.887   9.181 -0.3381  0.1106  0.4153
  105OSM   H14S10729   2.956   0.847   9.115  1.0354 -0.5039 -0.9440
  105OSM   H14T10730   3.129   0.837   9.146  0.1644  2.5048 -1.9550
  105OSM   C15S10731   3.050   1.044   9.163  0.0790 -0.0908 -0.5655
  105OSM   H15S10732   3.141   1.073   9.220 -0.1207  0.1285 -0.3553
  105OSM   H15T10733   2.961   1.091   9.211 -0.6368 -2.1776  0.3052
  105OSM   C16S10734   3.079   1.095   9.021  0.2442 -0.4935  0.3684
  105OSM   H16S10735   3.176   1.053   8.984 -0.7440 -2.1392 -0.4808
  105OSM   H16T10736   3.084   1.205   9.032  1.3934 -0.5143  0.2121
  105OSM   C17S10737   2.966   1.071   8.929 -0.1326 -0.0165  0.5357
  105OSM   H17S10738   2.866   1.077   8.975 -0.5113 -1.0607 -0.1052
  105OSM   H17T10739   2.976   0.967   8.892  0.6020 -0.0212  0.7299
  105OSM   C18S10740   2.982   1.164   8.813 -0.2656  0.5521  0.7684
  105OSM   H18S10741   2.905   1.127   8.742 -0.7438  2.0400  0.4927
  105OSM   H18T10742   3.083   1.160   8.766 -0.7653  0.6210 -0.3602
  105OSM   H18U10743   2.952   1.264   8.848 -2.9261  0.8015 -1.8320
  105OSM    C1F10744   2.468   0.859  10.336  0.1904  0.1343  0.4277
  105OSM     OF10745   2.418   0.936  10.418  0.1399  0.2709 -0.5332
  105OSM    C2F10746   2.403   0.819  10.204 -0.0711  0.1727  0.0938
  105OSM    H2F10747   2.299   0.858  10.198  0.5034  1.7220 -0.2149
  105OSM    H2G10748   2.408   0.708  10.197 -1.3514  0.0828  0.4256
  105OSM    C3F10749   2.477   0.873  10.080  0.3161 -0.1649  0.9787
  105OSM    H3F10750   2.581   0.837  10.069  0.4830  0.6654 -0.4384
  105OSM    H3G10751   2.476   0.984  10.083 -0.0092 -0.1584  0.5840
  105OSM    C4F10752   2.406   0.835   9.947 -0.4736  0.9885  0.9243
  105OSM    H4F10753   2.301   0.873   9.954  0.3709  3.7408 -0.0511
  105OSM    H4G10754   2.395   0.724   9.949 -1.8791  1.0668 -0.3696
  105OSM    C5F10755   2.470   0.889   9.820  0.1197  0.5213 -0.2004
  105OSM    H5F10756   2.553   0.817   9.804 -2.0461 -2.1786 -0.2104
  105OSM    H5G10757   2.515   0.984   9.854  2.3020 -1.8272  4.4102
  105OSM    C6F10758   2.386   0.904   9.699  0.3003 -0.3022 -0.2046
  105OSM    H6F10759   2.320   0.993   9.705  1.6286  0.6998 -0.0458
  105OSM    H6G10760   2.330   0.809   9.685  0.3699 -0.2658 -0.7711
  105OSM    C7F10761   2.476   0.940   9.575 -0.0513 -0.4855  0.0183
  105OSM    H7F10762   2.560   1.008   9.601  1.7365 -0.6267 -4.4477
  105OSM    H7G10763   2.413   1.002   9.508 -1.2502 -0.7580  0.8717
  105OSM    C8F10764   2.541   0.817   9.508  0.6444  0.0995 -0.4741
  105OSM    H8F10765   2.457   0.745   9.502 -1.3802  2.0280  2.1093
  105OSM    H8G10766   2.607   0.771   9.584 -0.6584  0.6646  1.0717
  105OSM    C9F10767   2.606   0.852   9.375 -0.7903  0.6954  0.6295
  105OSM    H9F10768   2.702   0.906   9.381 -0.5135  0.0903  1.7829
  105OSM   C10F10769   2.563   0.817   9.254  0.1936 -0.4561 -0.5264
  105OSM   H10F10770   2.620   0.862   9.171  0.3324  0.0640 -0.1563
  105OSM   C11F10771   2.441   0.743   9.208 -0.1557 -0.1866 -0.1303
  105OSM   H11F10772   2.351   0.784   9.260  0.3514 -0.1702  0.7684
  105OSM   H11G10773   2.463   0.640   9.242 -1.1248  0.3407  2.3622
  105OSM   C12F10774   2.414   0.745   9.058  0.2223  0.1547  0.0287
  105OSM   H12F10775   2.505   0.727   8.997  1.1915  1.5346  1.0355
  105OSM   H12G10776   2.382   0.850   9.042  1.5992  1.1245  2.9297
  105OSM   C13F10777   2.304   0.640   9.014  0.2265 -0.2567 -0.8739
  105OSM   H13F10778   2.213   0.654   9.076  0.6527 -1.7298  0.1505
  105OSM   H13G10779   2.346   0.538   9.032 -1.5275 -1.4392 -3.0261
  105OSM   C14F10780   2.255   0.668   8.862 -0.5297 -0.2379 -0.0769
  105OSM   H14F10781   2.210   0.769   8.853  1.5441  0.7115 -0.6084
  105OSM   H14G10782   2.177   0.594   8.836 -0.5247  0.1931 -1.4110
  105OSM   C15F10783   2.359   0.641   8.754  0.7240  0.1022 -0.2521
  105OSM   H15F10784   2.305   0.577   8.681 -1.3309 -0.9681  2.0468
  105OSM   H15G10785   2.443   0.578   8.790  1.9140  2.5085  1.4762
  105OSM   C16F10786   2.415   0.767   8.695 -0.4974 -0.3384  0.5927
  105OSM   H16F10787   2.498   0.723   8.636 -0.8729 -1.5377  0.9238
  105OSM   H16G10788   2.458   0.825   8.780  3.2589 -2.1213  0.0945
  105OSM   C17F10789   2.333   0.864   8.606  0.3686 -0.7533 -0.1528
  105OSM   H17F10790   2.403   0.945   8.576  0.2812 -1.2283 -1.7218
  105OSM   H17G10791   2.252   0.909   8.668  0.9515  0.8952 -0.5392
  105OSM   C18F10792   2.272   0.810   8.478 -0.0303 -0.6485 -0.1631
  105OSM   H18F10793   2.346   0.809   8.396  0.8160  1.1685  0.5124
  105OSM   H18G10794   2.187   0.874   8.446  1.2220  0.5650 -1.1916
  105OSM   H18H10795   2.245   0.703   8.486 -1.5016 -0.4659 -1.8133
  106OSM      N10796   2.833   6.352  10.898  0.2535  0.3806 -0.6534
  106OSM    C1510797   2.801   6.459  10.801  0.2209  0.0530  0.9908
  106OSM   H15A10798   2.745   6.535  10.853 -2.1530 -0.0481 -1.1932
  106OSM   H15B10799   2.746   6.424  10.714  1.0856 -0.3593  0.5969
  106OSM   H15C10800   2.885   6.508  10.755 -2.2430  3.6745 -0.1124
  106OSM    C1410801   2.925   6.405  11.004 -0.5484  0.3724  0.1665
  106OSM   H14A10802   2.930   6.340  11.090  2.2653  1.1080  0.6461
  106OSM   H14B10803   2.882   6.500  11.034  0.7582  1.4736 -1.3101
  106OSM   H14C10804   3.027   6.416  10.972 -0.3161 -1.0995  0.3606
  106OSM    C1310805   2.698   6.307  10.959 -0.6684 -0.0816 -0.4478
  106OSM   H13A10806   2.670   6.381  11.033  1.6117  1.2495 -0.7953
  106OSM   H13B10807   2.722   6.220  11.019  1.8572  1.1316  0.4567
  106OSM   H13C10808   2.625   6.278  10.886 -1.3650 -1.2391  0.6809
  106OSM    C1210809   2.904   6.241  10.825 -0.2430  0.0397  0.1467
  106OSM   H12A10810   2.922   6.157  10.891  1.2875  0.6260  0.5169
  106OSM   H12B10811   2.997   6.282  10.789  1.0244 -1.1692  1.8779
  106OSM    C1110812   2.839   6.169  10.706  0.8969  1.4857  0.0369
  106OSM   H11A10813   2.911   6.115  10.641  0.3377  0.3748  0.3173
  106OSM   H11B10814   2.788   6.243  10.641 -2.1855 -0.1330  0.3988
  106OSM      P10815   2.769   5.933  10.804 -0.3299  0.5454 -0.3603
  106OSM    O1310816   2.866   5.947  10.913 -0.4649  0.3016 -0.1410
  106OSM    O1410817   2.642   5.857  10.840  0.0440  0.0852  0.6792
  106OSM    O1110818   2.837   5.856  10.687  0.0645  0.1048  0.7952
  106OSM    O1210819   2.740   6.072  10.747  0.1883 -0.5055  0.4144
  106OSM    C1S10820   2.762   5.861  10.559 -0.8734 -0.6506  0.3265
  106OSM    H1S10821   2.774   5.959  10.509  1.6494 -0.4073  1.2632
  106OSM    H1T10822   2.654   5.834  10.565 -0.8527 -1.1034 -1.1080
  106OSM     NF10823   2.727   5.768  10.338  0.2190 -0.0137  0.1912
  106OSM    HNF10824   2.642   5.720  10.317  0.9885 -0.8144 -1.2118
  106OSM    C2S10825   2.800   5.750  10.462 -0.2763 -0.3258 -0.6962
  106OSM    H2S10826   2.908   5.758  10.440 -0.3369  1.7345 -0.4219
  106OSM    C3S10827   2.788   5.606  10.526 -0.1289 -0.6444  0.5274
  106OSM    H3S10828   2.683   5.579  10.551  0.0646 -1.5641  0.3697
  106OSM     O310829   2.842   5.586  10.657  0.5736 -0.4703  0.1174
  106OSM    HO310830   2.854   5.672  10.697 -0.0950 -0.6949  0.8372
  106OSM    C4S10831   2.834   5.499  10.441 -0.0775 -0.2231  0.2963
  106OSM    H4S10832   2.935   5.517  10.401  0.8540  0.6755  2.8434
  106OSM    C5S10833   2.759   5.397  10.407 -0.5790  0.3636  0.2369
  106OSM    H5S10834   2.653   5.391  10.435 -1.2058 -0.4729 -2.0513
  106OSM    C6S10835   2.802   5.294  10.303 -0.2038 -0.4070 -0.7810
  106OSM    H6S10836   2.728   5.211  10.308 -1.7889  1.0108  3.3632
  106OSM    H6T10837   2.898   5.250  10.338  0.6798  2.3036  0.4561
  106OSM    C7S10838   2.817   5.360  10.161  0.6586  0.0588  0.7172
  106OSM    H7S10839   2.883   5.289  10.109 -0.7793 -0.4391 -0.4998
  106OSM    H7T10840   2.869   5.458  10.172  0.1381  0.5260 -0.7000
  106OSM    C8S10841   2.682   5.384  10.088  0.2577 -1.0659 -0.0767
  106OSM    H8S10842   2.608   5.408  10.167 -1.6822 -1.5460 -1.6640
  106OSM    H8T10843   2.642   5.292  10.041 -0.7472  0.0844 -1.5515
  106OSM    C9S10844   2.691   5.496   9.983 -0.0726 -0.2719  0.5233
  106OSM    H9S10845   2.737   5.589  10.024  0.2079 -0.3602  0.4073
  106OSM    H9T10846   2.585   5.527   9.965 -0.2964 -0.8431  0.8533
  106OSM   C10S10847   2.762   5.441   9.860  0.1315 -0.0207  0.0979
  106OSM   H10S10848   2.733   5.335   9.846  1.1517 -0.3470  0.3377
  106OSM   H10T10849   2.870   5.437   9.885  0.3295 -1.5527 -0.8779
  106OSM   C11S10850   2.730   5.519   9.735 -0.0977  1.0944 -0.1850
  106OSM   H11S10851   2.619   5.508   9.734  0.1395 -2.4766  0.7080
  106OSM   H11T10852   2.774   5.456   9.655  0.1051  0.2010  0.6157
  106OSM   C12S10853   2.780   5.663   9.742  0.5389 -0.2797 -0.7703
  106OSM   H12S10854   2.888   5.670   9.719  1.2442  0.4309  2.2443
  106OSM   H12T10855   2.766   5.708   9.843  2.2701 -1.0825 -0.1253
  106OSM   C13S10856   2.697   5.739   9.645  0.2884 -0.0597 -0.0602
  106OSM   H13S10857   2.743   5.839   9.631 -0.5883  0.3089 -0.4300
  106OSM   H13T10858   2.590   5.755   9.673  0.2400 -0.2923 -0.1081
  106OSM   C14S10859   2.701   5.671   9.502 -0.3299  0.4947  0.2234
  106OSM   H14S10860   2.644   5.576   9.513 -0.5229  0.7771  2.0625
  106OSM   H14T10861   2.803   5.640   9.474 -0.9509  0.1375 -1.7645
  106OSM   C15S10862   2.658   5.767   9.395 -0.5251 -0.1715 -0.0409
  106OSM   H15S10863   2.721   5.859   9.397  0.0954 -0.5500 -1.0935
  106OSM   H15T10864   2.554   5.800   9.419  0.4574  0.7808  3.4711
  106OSM   C16S10865   2.669   5.705   9.253  0.1697  1.1563  0.2048
  106OSM   H16S10866   2.602   5.617   9.257  1.0205  0.3210 -1.9879
  106OSM   H16T10867   2.775   5.681   9.229  0.4716 -0.2109  2.5854
  106OSM   C17S10868   2.610   5.798   9.145 -0.2888 -0.0322  0.2037
  106OSM   H17S10869   2.673   5.889   9.138 -0.5361  0.0723 -0.8217
  106OSM   H17T10870   2.511   5.835   9.178  0.4910 -0.1070  2.8227
  106OSM   C18S10871   2.606   5.738   8.999  0.9526 -0.6826  0.3407
  106OSM   H18S10872   2.580   5.820   8.928 -0.1545  0.2047  1.6961
  106OSM   H18T10873   2.537   5.652   8.991 -1.4506  1.2030 -0.8723
  106OSM   H18U10874   2.705   5.695   8.973  0.8104 -0.7819 -0.0417
  106OSM    C1F10875   2.763   5.867  10.264  0.2999 -0.0552 -0.6214
  106OSM     OF10876   2.876   5.910  10.286 -0.0123  0.2734 -0.8839
  106OSM    C2F10877   2.661   5.923  10.170 -0.2016 -1.0160 -0.6524
  106OSM    H2F10878   2.567   5.944  10.223  2.4597  4.3940  2.7919
  106OSM    H2G10879   2.641   5.833  10.107 -1.0100 -1.1159 -0.2615
  106OSM    C3F10880   2.726   6.043  10.099 -0.0159 -0.5198  0.3014
  106OSM    H3F10881   2.830   6.017  10.070 -0.8174 -1.0779 -2.3715
  106OSM    H3G10882   2.734   6.128  10.170 -0.8636  1.2448 -1.6227
  106OSM    C4F10883   2.643   6.074   9.971 -0.1961  0.2099  0.4318
  106OSM    H4F10884   2.536   6.056   9.994  0.2996 -4.6397 -0.0157
  106OSM    H4G10885   2.666   5.992   9.900  0.8489  1.7754 -1.1261
  106OSM    C5F10886   2.677   6.218   9.923  0.4397 -0.1800  0.0651
  106OSM    H5F10887   2.788   6.222   9.927  0.4409 -0.7592  0.6196
  106OSM    H5G10888   2.637   6.294   9.993  2.3449 -0.3168  1.3830
  106OSM    C6F10889   2.626   6.242   9.780  0.0271  0.3929 -0.8670
  106OSM    H6F10890   2.625   6.351   9.758 -3.0064  0.6419  0.1448
  106OSM    H6G10891   2.521   6.208   9.778  0.4525 -1.3199  1.5733
  106OSM    C7F10892   2.707   6.172   9.667  0.1394 -0.3763  0.2649
  106OSM    H7F10893   2.689   6.066   9.696 -0.5150  0.4874  3.4529
  106OSM    H7G10894   2.812   6.203   9.681 -0.7208  1.9100  2.3806
  106OSM    C8F10895   2.652   6.193   9.528  0.2548 -0.0973  0.0231
  106OSM    H8F10896   2.541   6.183   9.529  0.2091  0.4304  0.6294
  106OSM    H8G10897   2.694   6.117   9.458  0.4242 -0.5195  0.5765
  106OSM    C9F10898   2.689   6.327   9.477  0.6181  0.0698  0.1555
  106OSM    H9F10899   2.726   6.394   9.556  0.9185 -1.6698  1.5502
  106OSM   C10F10900   2.699   6.369   9.348 -0.6082 -0.6335  0.2344
  106OSM   H10F10901   2.713   6.478   9.340 -0.3991 -0.4136  2.7649
  106OSM   C11F10902   2.674   6.278   9.229 -0.2260 -0.1378  0.4417
  106OSM   H11F10903   2.567   6.288   9.199 -0.1231 -1.2225 -0.3516
  106OSM   H11G10904   2.699   6.172   9.250  0.9967  0.2600  1.0791
  106OSM   C12F10905   2.762   6.316   9.108  0.3303 -0.5285 -0.1013
  106OSM   H12F10906   2.872   6.313   9.122  0.3665  0.9864  0.1636
  106OSM   H12G10907   2.730   6.421   9.092  0.5001 -0.4327  0.1872
  106OSM   C13F10908   2.740   6.232   8.977 -0.2512 -0.0342  0.2736
  106OSM   H13F10909   2.630   6.233   8.959 -0.5250 -2.8890  1.1440
  106OSM   H13G10910   2.776   6.129   9.001 -1.3353 -0.3009  0.8518
  106OSM   C14F10911   2.810   6.296   8.858  0.8489 -0.6497  0.4836
  106OSM   H14F10912   2.793   6.401   8.828  1.4287 -1.5632 -3.5441
  106OSM   H14G10913   2.783   6.232   8.771  2.5062  0.3899 -0.8315
  106OSM   C15F10914   2.967   6.275   8.863 -0.9384 -0.5267  0.3358
  106OSM   H15F10915   2.991   6.168   8.879  0.2705  0.0125  2.5792
  106OSM   H15G10916   3.005   6.333   8.950 -1.5098  0.7383 -0.2293
  106OSM   C16F10917   3.035   6.333   8.731 -0.2964 -0.3690 -1.1112
  106OSM   H16F10918   2.984   6.429   8.708 -0.1705  0.3109  1.1970
  106OSM   H16G10919   3.024   6.262   8.646 -0.1066 -1.3568 -0.3279
  106OSM   C17F10920   3.186   6.368   8.744  0.4631 -0.4560 -0.0774
  106OSM   H17F10921   3.248   6.282   8.777  2.6425  1.2761  0.6013
  106OSM   H17G10922   3.201   6.446   8.822  1.0786 -2.5157  1.9754
  106OSM   C18F10923   3.240   6.414   8.606  0.4612  0.2224 -0.4850
  106OSM   H18F10924   3.194   6.511   8.574 -4.7159 -2.4722 -2.3604
  106OSM   H18G10925   3.211   6.348   8.521 -2.2930  0.7749 -0.0711
  106OSM   H18H10926   3.351   6.421   8.615  0.4432  0.5024 -0.4677
  107OSM      N10927   4.337   4.353  11.400 -0.0526  0.8508 -0.5119
  107OSM    C1510928   4.361   4.315  11.547 -0.6105  0.1182  0.8687
  107OSM   H15A10929   4.270   4.322  11.604 -2.0070  1.9148 -1.4206
  107OSM   H15B10930   4.430   4.384  11.595 -1.4403  1.9063 -0.4008
  107OSM   H15C10931   4.393   4.212  11.559  1.8678  0.5600 -1.0883
  107OSM    C1410932   4.245   4.475  11.398 -0.1063  0.1515 -0.1666
  107OSM   H14A10933   4.296   4.556  11.448  0.4474 -0.0063 -0.4590
  107OSM   H14B10934   4.151   4.462  11.449  0.9785 -1.7265  1.4700
  107OSM   H14C10935   4.234   4.517  11.299  0.9157 -0.1271 -0.4164
  107OSM    C1310936   4.471   4.388  11.336  0.0023 -0.4238  0.1975
  107OSM   H13A10937   4.514   4.479  11.376 -1.7510  1.0199 -1.0299
  107OSM   H13B10938   4.457   4.394  11.229 -0.9076  1.7001  0.3777
  107OSM   H13C10939   4.532   4.305  11.367 -1.4731 -1.9382 -0.7828
  107OSM    C1210940   4.273   4.244  11.321 -0.0168 -0.0813  0.1524
  107OSM   H12A10941   4.181   4.211  11.366 -1.1968 -0.0140 -2.1171
  107OSM   H12B10942   4.334   4.155  11.320  0.3697  0.0822  2.7479
  107OSM    C1110943   4.231   4.275  11.169  0.0410  0.1403 -0.6625
  107OSM   H11A10944   4.165   4.365  11.170 -0.4937 -0.1305  3.1591
  107OSM   H11B10945   4.174   4.188  11.130  0.6739  0.0400 -1.3921
  107OSM      P10946   4.430   4.165  11.040  0.4399 -0.1880  0.1331
  107OSM    O1310947   4.566   4.205  11.005  0.0352 -0.9287 -0.4395
  107OSM    O1410948   4.408   4.061  11.136 -0.3843 -0.1311 -0.0634
  107OSM    O1110949   4.352   4.120  10.914 -0.2272  0.3457  0.9765
  107OSM    O1210950   4.350   4.289  11.089 -0.1127  0.0601  0.3475
  107OSM    C1S10951   4.377   4.195  10.793  0.1126  0.1794 -0.6433
  107OSM    H1S10952   4.486   4.188  10.775  1.0359  3.6901  2.2872
  107OSM    H1T10953   4.363   4.304  10.806  1.3333  0.3124 -0.3787
  107OSM     NF10954   4.377   4.175  10.534 -0.0871  0.1457 -0.5347
  107OSM    HNF10955   4.311   4.216  10.472 -1.5653  1.2717  1.6608
  107OSM    C2S10956   4.310   4.141  10.662 -0.6763  0.2279  0.5219
  107OSM    H2S10957   4.323   4.031  10.668  1.1332  0.4774  1.9539
  107OSM    C3S10958   4.155   4.171  10.663 -0.1603 -0.1675 -0.1005
  107OSM    H3S10959   4.132   4.276  10.636 -0.0260 -0.9414 -3.6573
  107OSM     O310960   4.099   4.141  10.794  0.1980 -0.0618 -0.1208
  107OSM    HO310961   4.180   4.133  10.845  2.6411 -0.9816 -3.7749
  107OSM    C4S10962   4.081   4.083  10.551 -0.6786 -0.4472  0.6119
  107OSM    H4S10963   4.080   4.123  10.449  0.1520  2.1105  1.5374
  107OSM    C5S10964   4.007   3.972  10.577 -0.4093  0.3291  1.3686
  107OSM    H5S10965   4.004   3.925  10.677  1.9113 -2.6275  0.1875
  107OSM    C6S10966   3.938   3.890  10.466  0.5382 -0.0177  0.0089
  107OSM    H6S10967   3.831   3.903  10.493  0.3661  0.1840 -0.7371
  107OSM    H6T10968   3.957   3.781  10.477  1.2937 -0.1487 -2.0271
  107OSM    C7S10969   3.962   3.933  10.316 -1.0402 -0.2811  0.1956
  107OSM    H7S10970   4.071   3.915  10.304 -0.1647  2.6598  2.6276
  107OSM    H7T10971   3.958   4.040  10.287  0.8188 -1.1216 -3.8488
  107OSM    C8S10972   3.877   3.857  10.213 -0.9570 -0.6410 -0.3047
  107OSM    H8S10973   3.774   3.899  10.222  0.0781  2.0450 -0.1442
  107OSM    H8T10974   3.871   3.749  10.241  1.2730 -0.9737 -0.9501
  107OSM    C9S10975   3.936   3.878  10.068 -0.4263  0.4139 -0.4799
  107OSM    H9S10976   4.034   3.826  10.071  0.1800  1.4479 -1.6822
  107OSM    H9T10977   3.953   3.985  10.046 -0.3765  0.5273  0.0801
  107OSM   C10S10978   3.851   3.821   9.961  0.1363  0.5897 -0.5335
  107OSM   H10S10979   3.749   3.857   9.983 -1.6481 -2.4471 -2.9050
  107OSM   H10T10980   3.843   3.710   9.956 -0.4064  0.6204 -0.3932
  107OSM   C11S10981   3.881   3.864   9.812 -0.3650 -0.3044 -0.3843
  107OSM   H11S10982   3.985   3.841   9.782  0.2442  1.1397  0.5293
  107OSM   H11T10983   3.871   3.973   9.795 -1.6608 -0.0996  1.4585
  107OSM   C12S10984   3.790   3.795   9.712 -0.0114  0.1521 -0.4928
  107OSM   H12S10985   3.684   3.811   9.739  0.1848  0.5600  0.0451
  107OSM   H12T10986   3.804   3.684   9.717  0.6529  0.2693  0.5844
  107OSM   C13S10987   3.784   3.862   9.569  0.3415  0.8556 -0.0973
  107OSM   H13S10988   3.755   3.968   9.585  0.4714  0.7320  1.0686
  107OSM   H13T10989   3.698   3.815   9.517  1.2614 -1.1017  0.0161
  107OSM   C14S10990   3.913   3.859   9.490  0.1191  0.1200 -0.3201
  107OSM   H14S10991   3.948   3.753   9.500 -0.0077  0.1262  0.2524
  107OSM   H14T10992   3.985   3.920   9.549  0.4181 -1.1136  0.6397
  107OSM   C15S10993   3.897   3.915   9.351 -0.6092  0.0031  0.9729
  107OSM   H15S10994   4.001   3.933   9.317 -0.5183  1.3753  1.8795
  107OSM   H15T10995   3.846   4.013   9.352  1.5872  1.2416 -0.6555
  107OSM   C16S10996   3.826   3.821   9.257  0.2638  0.6319 -0.2838
  107OSM   H16S10997   3.719   3.832   9.287  0.1580  1.4822 -0.9446
  107OSM   H16T10998   3.851   3.714   9.269  1.5545  1.0209  0.7628
  107OSM   C17S10999   3.863   3.858   9.116 -0.1747 -0.3574  0.0600
  107OSM   H17S11000   3.799   3.797   9.048  2.7654 -1.9922 -1.4188
  107OSM   H17T11001   3.969   3.832   9.096 -0.4401 -0.2061 -1.6629
  107OSM   C18S11002   3.857   4.005   9.085 -0.3879 -0.2108  0.3096
  107OSM   H18S11003   3.786   4.064   9.146  1.6266  1.5142  1.0992
  107OSM   H18T11004   3.838   4.028   8.978 -0.5782  4.0342  1.0735
  107OSM   H18U11005   3.950   4.063   9.107  0.6379 -1.6847  0.0130
  107OSM    C1F11006   4.496   4.160  10.497  0.1804  0.2864 -0.0120
  107OSM     OF11007   4.591   4.145  10.570 -0.2477  0.9776  0.2381
  107OSM    C2F11008   4.513   4.148  10.342 -0.4673 -0.5179  0.0807
  107OSM    H2F11009   4.434   4.214  10.299  0.3075  0.5272  0.2177
  107OSM    H2G11010   4.479   4.045  10.316  0.2555 -0.6805 -0.2306
  107OSM    C3F11011   4.652   4.192  10.288  0.4770 -0.1158  0.4059
  107OSM    H3F11012   4.728   4.119  10.322  1.6773  1.1463  0.5419
  107OSM    H3G11013   4.681   4.286  10.341 -1.3623  0.6261  0.1832
  107OSM    C4F11014   4.671   4.201  10.138 -0.7293 -0.2214  0.0423
  107OSM    H4F11015   4.772   4.241  10.113  0.1706 -1.5028  1.4499
  107OSM    H4G11016   4.602   4.269  10.084  2.5874  4.0303  0.6266
  107OSM    C5F11017   4.666   4.061  10.073 -0.3614  0.0190  0.6300
  107OSM    H5F11018   4.581   3.995  10.099  1.3558 -2.1030  1.1940
  107OSM    H5G11019   4.754   4.006  10.114  1.1392  1.9996  0.2328
  107OSM    C6F11020   4.695   4.046   9.919 -0.3086  0.3378 -0.9328
  107OSM    H6F11021   4.774   4.114   9.881 -1.7245  1.3968 -2.0986
  107OSM    H6G11022   4.608   4.067   9.854 -0.0447 -1.6095 -2.0228
  107OSM    C7F11023   4.747   3.908   9.885 -0.2451 -0.3038 -0.3013
  107OSM    H7F11024   4.679   3.838   9.938 -0.4686  1.7199  2.2464
  107OSM    H7G11025   4.844   3.893   9.936  0.4916  3.5672 -0.3086
  107OSM    C8F11026   4.736   3.864   9.741  0.1192 -0.3270  0.2472
  107OSM    H8F11027   4.797   3.929   9.675  1.0228  0.1107  1.4829
  107OSM    H8G11028   4.629   3.882   9.717  0.0941 -0.6065  0.1424
  107OSM    C9F11029   4.770   3.727   9.720 -0.1643 -0.2433 -0.2278
  107OSM    H9F11030   4.736   3.669   9.807 -3.4859  1.1623 -0.4174
  107OSM   C10F11031   4.816   3.659   9.615  0.2624  0.0101 -0.1704
  107OSM   H10F11032   4.852   3.555   9.615  1.4168  0.3605 -2.0424
  107OSM   C11F11033   4.844   3.722   9.480 -0.5099  0.5507 -0.1724
  107OSM   H11F11034   4.951   3.748   9.463 -0.2112  0.9185  2.0016
  107OSM   H11G11035   4.786   3.817   9.473  0.4948  1.2934  1.2209
  107OSM   C12F11036   4.799   3.625   9.371 -0.1202  0.0305 -0.4282
  107OSM   H12F11037   4.708   3.577   9.413 -1.1710  1.2156 -1.2618
  107OSM   H12G11038   4.873   3.543   9.354 -2.6391 -2.3096 -0.7373
  107OSM   C13F11039   4.771   3.690   9.239  0.4660  0.0271  0.3850
  107OSM   H13F11040   4.863   3.745   9.209 -0.0388 -0.0012 -1.2943
  107OSM   H13G11041   4.691   3.766   9.256 -2.1376 -2.0930 -1.4482
  107OSM   C14F11042   4.720   3.593   9.131  0.1142  0.0365  0.0495
  107OSM   H14F11043   4.620   3.546   9.146 -0.1715  1.1456  1.9717
  107OSM   H14G11044   4.783   3.502   9.138  0.4910  0.2522 -0.4372
  107OSM   C15F11045   4.760   3.654   8.992 -0.3924  0.8165 -0.1630
  107OSM   H15F11046   4.866   3.678   9.015  0.2229 -3.2147  2.2320
  107OSM   H15G11047   4.681   3.731   8.988 -2.5533 -1.1896  1.3228
  107OSM   C16F11048   4.764   3.551   8.878 -0.2149 -0.5658 -0.7891
  107OSM   H16F11049   4.672   3.490   8.888  0.6358 -1.9468 -1.1914
  107OSM   H16G11050   4.849   3.481   8.884 -0.2952 -0.6405 -0.5252
  107OSM   C17F11051   4.777   3.610   8.736 -0.1787  0.1332 -0.4711
  107OSM   H17F11052   4.696   3.682   8.711 -1.8193 -1.1299  0.9419
  107OSM   H17G11053   4.782   3.519   8.673 -0.8764 -0.2146 -0.0345
  107OSM   C18F11054   4.923   3.667   8.727 -0.1908 -0.1455  0.2844
  107OSM   H18F11055   4.929   3.767   8.775 -2.5345  0.2922 -0.1855
  107OSM   H18G11056   4.947   3.675   8.619  0.2871 -0.1121  0.3904
  107OSM   H18H11057   4.999   3.602   8.774 -1.9407 -2.2632  0.3364
  108OSM      N11058   1.521   0.919  11.207 -0.4114 -0.1410 -0.1748
  108OSM    C1511059   1.471   0.783  11.181  0.6366 -0.1606 -0.6261
  108OSM   H15A11060   1.502   0.749  11.083  1.7933  0.4475 -0.4875
  108OSM   H15B11061   1.364   0.782  11.196  0.7861  2.0702  1.0353
  108OSM   H15C11062   1.506   0.713  11.257 -1.9306 -0.1869  0.6286
  108OSM    C1411063   1.473   0.951  11.351 -0.3050 -0.1216 -0.5463
  108OSM   H14A11064   1.507   1.049  11.383  0.9160 -0.9918  0.9237
  108OSM   H14B11065   1.514   0.876  11.416 -0.7751 -0.3056 -0.4561
  108OSM   H14C11066   1.365   0.952  11.349 -0.3075  1.2948 -0.6109
  108OSM    C1311067   1.667   0.911  11.203 -0.1912 -0.7947  0.2356
  108OSM   H13A11068   1.702   0.891  11.103  0.6173  2.4415 -0.2358
  108OSM   H13B11069   1.718   0.842  11.270  0.5004 -0.0054  0.5385
  108OSM   H13C11070   1.713   1.006  11.225 -0.2077 -0.2433 -1.9437
  108OSM    C1211071   1.471   1.023  11.112 -0.1620  0.0702  0.5233
  108OSM   H12A11072   1.503   1.120  11.148  0.9830 -0.4024  0.8261
  108OSM   H12B11073   1.363   1.016  11.112 -0.0633 -2.3526  0.2289
  108OSM    C1111074   1.500   0.999  10.954 -0.4596  0.1423  0.0926
  108OSM   H11A11075   1.611   0.992  10.953 -0.5048 -0.6895 -0.0280
  108OSM   H11B11076   1.479   1.082  10.884  0.1988  0.0396 -0.2338
  108OSM      P11077   1.283   0.868  10.882  0.3689 -0.4788  0.2312
  108OSM    O1311078   1.250   0.727  10.894 -0.0933 -0.5320  0.3078
  108OSM    O1411079   1.206   0.970  10.959  0.1808 -0.2010 -0.1931
  108OSM    O1111080   1.272   0.915  10.739 -0.8180  0.4461  0.8128
  108OSM    O1211081   1.442   0.882  10.900  0.3626  0.8720  0.0227
  108OSM    C1S11082   1.382   0.895  10.645  0.4094  0.3801 -0.5204
  108OSM    H1S11083   1.417   0.789  10.644  1.5387  0.7240  0.4236
  108OSM    H1T11084   1.471   0.958  10.669  1.4638 -0.6003 -1.6882
  108OSM     NF11085   1.441   0.889  10.395  0.4979 -0.5981  0.1307
  108OSM    HNF11086   1.490   0.967  10.358 -0.9083 -0.5039 -1.6760
  108OSM    C2S11087   1.337   0.920  10.495 -0.4920  1.2563  0.3841
  108OSM    H2S11088   1.248   0.857  10.471 -0.3629  1.4812 -0.7393
  108OSM    C3S11089   1.283   1.061  10.484 -0.1336  0.0030  0.1609
  108OSM    H3S11090   1.359   1.137  10.510 -0.9781  1.0246 -0.2867
  108OSM     O311091   1.185   1.089  10.583 -0.5821  0.1941 -0.9496
  108OSM    HO311092   1.211   1.034  10.657  0.7751  1.0729 -0.7297
  108OSM    C4S11093   1.221   1.079  10.348 -0.3863  0.0185  0.1273
  108OSM    H4S11094   1.296   1.085  10.267 -1.2238 -0.3203 -0.6986
  108OSM    C5S11095   1.095   1.083  10.314  0.2275  0.6783  0.2083
  108OSM    H5S11096   1.018   1.060  10.390  1.4615 -1.4999  0.9113
  108OSM    C6S11097   1.031   1.098  10.178 -0.4694 -0.0836  0.3217
  108OSM    H6S11098   0.965   1.187  10.175 -1.6685 -0.8223  2.5828
  108OSM    H6T11099   0.958   1.015  10.165  0.4860 -0.9546  0.3927
  108OSM    C7S11100   1.136   1.087  10.055 -0.3081  0.3163 -0.8868
  108OSM    H7S11101   1.182   0.986  10.063  2.0026  1.2754 -1.2918
  108OSM    H7T11102   1.223   1.155  10.061  0.4979 -0.6755 -1.1340
  108OSM    C8S11103   1.063   1.115   9.922 -0.3282  0.2584 -0.3996
  108OSM    H8S11104   1.022   1.218   9.917 -2.3938 -0.4669  0.6913
  108OSM    H8T11105   0.973   1.051   9.922 -0.3423  0.2784 -0.6761
  108OSM    C9S11106   1.147   1.089   9.800 -0.5350 -0.9134  0.1389
  108OSM    H9S11107   1.207   0.996   9.810  2.5710  0.7115 -1.5226
  108OSM    H9T11108   1.213   1.175   9.772 -1.5380 -0.5970 -1.3537
  108OSM   C10S11109   1.060   1.086   9.673 -0.5122 -0.2802 -0.4730
  108OSM   H10S11110   0.994   1.175   9.666  0.2451  0.2838 -0.5885
  108OSM   H10T11111   1.005   0.990   9.675 -2.2310  0.6665  2.0105
  108OSM   C11S11112   1.137   1.092   9.545  0.3024 -0.3996  0.0863
  108OSM   H11S11113   1.226   1.026   9.552  2.2200  2.1465  1.4123
  108OSM   H11T11114   1.186   1.191   9.539 -0.8883  0.1759 -0.4501
  108OSM   C12S11115   1.056   1.045   9.424  0.1097  0.4574 -0.3316
  108OSM   H12S11116   0.960   1.099   9.412  0.5025  1.4631  0.8738
  108OSM   H12T11117   1.028   0.940   9.449 -0.5343  0.4888 -0.8960
  108OSM   C13S11118   1.129   1.034   9.291 -0.7206  0.4574 -0.5329
  108OSM   H13S11119   1.077   0.958   9.229 -0.0407 -2.3544  2.0836
  108OSM   H13T11120   1.233   1.002   9.314 -1.2425 -0.2101  1.0911
  108OSM   C14S11121   1.131   1.157   9.207  0.2165 -0.5669  0.5615
  108OSM   H14S11122   1.175   1.244   9.259  1.5385 -1.4577  0.9832
  108OSM   H14T11123   1.026   1.187   9.187 -0.1818 -1.2211  1.5991
  108OSM   C15S11124   1.199   1.130   9.067  0.0422 -0.2768  0.4084
  108OSM   H15S11125   1.141   1.054   9.011 -1.3141  0.3626  0.9018
  108OSM   H15T11126   1.301   1.090   9.088 -0.7373 -3.0301 -0.5792
  108OSM   C16S11127   1.212   1.265   8.988  1.1721 -0.3571 -0.1701
  108OSM   H16S11128   1.286   1.255   8.906  1.1235  0.2308 -0.2933
  108OSM   H16T11129   1.248   1.342   9.060  0.3737 -0.6551  0.5646
  108OSM   C17S11130   1.079   1.329   8.928 -0.4130  0.8592  0.6504
  108OSM   H17S11131   1.019   1.336   9.021 -0.9022  1.1443  0.3154
  108OSM   H17T11132   1.040   1.243   8.869 -1.3401 -0.4066  2.9449
  108OSM   C18S11133   1.111   1.451   8.840 -0.4588  0.3627  0.5349
  108OSM   H18S11134   1.169   1.415   8.753 -2.1966 -3.9666  0.8885
  108OSM   H18T11135   1.173   1.521   8.900  0.2126 -1.1958  1.7331
  108OSM   H18U11136   1.022   1.501   8.797 -2.6061 -1.9483  1.9906
  108OSM    C1F11137   1.482   0.765  10.369  0.0959  0.2763 -0.0446
  108OSM     OF11138   1.427   0.663  10.416  0.1639 -1.0137  1.1251
  108OSM    C2F11139   1.594   0.749  10.273 -0.2812  0.4580  0.1324
  108OSM    H2F11140   1.679   0.692  10.314  0.8866  1.4425 -0.8282
  108OSM    H2G11141   1.640   0.849  10.255 -2.2694  1.6078  1.1414
  108OSM    C3F11142   1.538   0.691  10.146 -0.0227 -0.0280  0.2537
  108OSM    H3F11143   1.449   0.753  10.123  0.1029  0.5917  1.3417
  108OSM    H3G11144   1.491   0.595  10.177 -0.5067  0.2559  0.4254
  108OSM    C4F11145   1.626   0.654  10.026  0.1299  0.2214 -0.7461
  108OSM    H4F11146   1.688   0.562  10.035 -0.1561 -0.1121 -2.0123
  108OSM    H4G11147   1.691   0.741  10.004  0.7451  0.1666  0.7245
  108OSM    C5F11148   1.539   0.627   9.900  0.6780 -0.2533 -0.1627
  108OSM    H5F11149   1.475   0.712   9.870 -0.6054 -1.1792 -0.1566
  108OSM    H5G11150   1.466   0.544   9.914  2.6621 -2.4884 -2.0634
  108OSM    C6F11151   1.618   0.599   9.770 -0.6990 -0.1954  0.1529
  108OSM    H6F11152   1.689   0.514   9.780 -0.9655 -0.2674  1.6381
  108OSM    H6G11153   1.689   0.684   9.757  0.5636 -0.7402  2.7408
  108OSM    C7F11154   1.531   0.587   9.645 -0.7094 -0.2783 -0.0460
  108OSM    H7F11155   1.595   0.619   9.560  0.2912 -2.3281 -0.1119
  108OSM    H7G11156   1.443   0.656   9.645 -0.9468 -0.5682 -1.0949
  108OSM    C8F11157   1.473   0.451   9.613  0.1019  1.2172 -0.0539
  108OSM    H8F11158   1.417   0.407   9.698  0.4573  0.8390 -0.0181
  108OSM    H8G11159   1.571   0.401   9.605  1.1175  2.8946  1.1052
  108OSM    C9F11160   1.397   0.433   9.479  1.2287 -0.0700  0.0621
  108OSM    H9F11161   1.433   0.489   9.391  0.2447 -0.1616 -0.4023
  108OSM   C10F11162   1.282   0.359   9.461 -0.1625 -0.0251 -0.2497
  108OSM   H10F11163   1.241   0.347   9.359  1.3257 -0.2167 -0.8486
  108OSM   C11F11164   1.221   0.292   9.579 -0.7621  0.0880 -0.2429
  108OSM   H11F11165   1.111   0.290   9.564 -0.8781  2.5290 -0.0981
  108OSM   H11G11166   1.224   0.358   9.668 -0.1677  0.5007 -0.5656
  108OSM   C12F11167   1.279   0.149   9.590  0.1273  0.0371  0.2836
  108OSM   H12F11168   1.390   0.152   9.602 -0.0383  0.9935  1.8210
  108OSM   H12G11169   1.258   0.098   9.494  0.4983  1.8987 -0.8391
  108OSM   C13F11170   1.220   0.068   9.704 -0.7818  0.1614 -0.8527
  108OSM   H13F11171   1.265  -0.033   9.706  0.5173  0.6907 -2.0851
  108OSM   H13G11172   1.110   0.055   9.695 -0.7142 -0.8668 -0.3847
  108OSM   C14F11173   1.243   0.135   9.837 -0.4761  0.3020 -0.4264
  108OSM   H14F11174   1.182   0.076   9.909  1.2181 -1.1112 -0.0880
  108OSM   H14G11175   1.195   0.236   9.845 -0.6876  0.1379  0.6033
  108OSM   C15F11176   1.390   0.144   9.886  0.5209 -0.4067  0.3800
  108OSM   H15F11177   1.444   0.206   9.812  0.3763 -1.8981 -1.0271
  108OSM   H15G11178   1.449   0.050   9.883  0.9026 -0.1474 -1.4709
  108OSM   C16F11179   1.398   0.201  10.040  0.5632  0.2931 -0.4699
  108OSM   H16F11180   1.338   0.294  10.047  0.0971 -0.1050  1.1136
  108OSM   H16G11181   1.503   0.236  10.043  0.7973 -0.4166 -0.1179
  108OSM   C17F11182   1.374   0.092  10.156 -0.0195 -0.0442 -0.3193
  108OSM   H17F11183   1.267   0.064  10.152  0.1088 -0.7203  0.6381
  108OSM   H17G11184   1.393   0.151  10.249 -0.2034  2.2900 -1.6761
  108OSM   C18F11185   1.446  -0.040  10.144 -0.0887  0.9175  0.0362
  108OSM   H18F11186   1.419  -0.092  10.050 -0.8258  0.5233  0.4598
  108OSM   H18G11187   1.405  -0.099  10.229 -2.6038  2.5006  0.0191
  108OSM   H18H11188   1.556  -0.044  10.160  0.6633 -3.0249 -4.1132
  109OSM      N11189   0.656   2.281  10.826  0.5925 -0.6422  0.0694
  109OSM    C1511190   0.537   2.277  10.922  0.2795  0.2643  0.4084
  109OSM   H15A11191   0.545   2.180  10.968  0.5138  0.0271 -0.1262
  109OSM   H15B11192   0.441   2.281  10.871 -0.8288  0.7128  2.4118
  109OSM   H15C11193   0.535   2.357  10.995 -0.4982  0.7044 -0.0762
  109OSM    C1411194   0.782   2.253  10.904  0.4388  0.0275  0.1607
  109OSM   H14A11195   0.797   2.318  10.989 -0.2896  1.0729 -0.4943
  109OSM   H14B11196   0.862   2.281  10.837  0.4732  1.1479  0.6567
  109OSM   H14C11197   0.804   2.152  10.936 -1.2956  0.0622  1.6029
  109OSM    C1311198   0.643   2.177  10.721  0.4399  0.4203 -0.3227
  109OSM   H13A11199   0.650   2.083  10.775 -1.1105  0.1050 -0.6061
  109OSM   H13B11200   0.720   2.172  10.645  0.6361 -3.9481 -0.1277
  109OSM   H13C11201   0.550   2.176  10.665 -0.7960  3.6925  1.4317
  109OSM    C1211202   0.658   2.421  10.764  0.7053 -0.0934  0.1025
  109OSM   H12A11203   0.634   2.502  10.831  0.3218  1.0055 -1.2970
  109OSM   H12B11204   0.576   2.427  10.694  1.2605  0.2279 -0.5302
  109OSM    C1111205   0.782   2.459  10.677 -0.6461  0.4181  0.0019
  109OSM   H11A11206   0.766   2.553  10.621 -0.3277  1.0669  0.9758
  109OSM   H11B11207   0.791   2.379  10.600 -1.6468 -1.0746  1.3748
  109OSM      P11208   1.037   2.502  10.702  0.2795  0.0833  0.2299
  109OSM    O1311209   1.090   2.614  10.783 -0.0166 -0.5200  0.3054
  109OSM    O1411210   1.125   2.384  10.694 -0.2821  0.9705 -0.4596
  109OSM    O1111211   1.008   2.562  10.563  0.5951  0.5243 -0.2585
  109OSM    O1211212   0.898   2.464  10.763  0.9063 -0.6917  0.2667
  109OSM    C1S11213   1.110   2.593  10.472 -0.1389  0.5139 -0.4126
  109OSM    H1S11214   1.196   2.524  10.482  1.1750  2.3425  2.1095
  109OSM    H1T11215   1.147   2.697  10.484 -0.5338  0.5467  0.6087
  109OSM     NF11216   1.155   2.557  10.234 -0.1111 -0.0187 -0.4125
  109OSM    HNF11217   1.177   2.641  10.185 -1.9620  0.9199  0.2509
  109OSM    C2S11218   1.045   2.571  10.334 -0.1801  0.1399  0.0864
  109OSM    H2S11219   0.993   2.473  10.335 -1.6235  0.7355 -3.1175
  109OSM    C3S11220   0.937   2.677  10.311 -0.1000 -0.0064 -0.2806
  109OSM    H3S11221   0.982   2.779  10.306 -2.9254  1.3206 -0.6690
  109OSM     O311222   0.831   2.687  10.412 -0.8850  0.1298 -0.3182
  109OSM    HO311223   0.870   2.637  10.484 -1.2011 -1.0171 -0.9175
  109OSM    C4S11224   0.860   2.665  10.175 -1.0647 -0.1636 -0.3522
  109OSM    H4S11225   0.786   2.589  10.148 -2.8478  1.3681  0.0390
  109OSM    C5S11226   0.913   2.742  10.077  0.0381 -0.8721  0.1677
  109OSM    H5S11227   1.000   2.807  10.096  1.8951 -3.5124  1.1337
  109OSM    C6S11228   0.875   2.738   9.933 -0.1611 -0.9008  0.2376
  109OSM    H6S11229   0.796   2.815   9.920  0.7694  0.2189  0.9307
  109OSM    H6T11230   0.832   2.640   9.905  0.2866 -1.1113  0.2709
  109OSM    C7S11231   0.992   2.764   9.842 -0.4987 -0.5230 -0.5291
  109OSM    H7S11232   1.058   2.676   9.856 -0.2400 -0.2364  0.1221
  109OSM    H7T11233   1.057   2.853   9.861 -0.3645 -0.6668 -0.3023
  109OSM    C8S11234   0.939   2.758   9.698  1.0284 -0.5474 -0.3565
  109OSM    H8S11235   0.890   2.856   9.679  1.3389  0.5553  3.7403
  109OSM    H8T11236   0.863   2.679   9.680  0.1516 -0.2989  1.9230
  109OSM    C9S11237   1.055   2.741   9.594  0.0288 -0.3908 -0.4083
  109OSM    H9S11238   1.110   2.649   9.620  0.2151 -0.3810 -0.7638
  109OSM    H9T11239   1.128   2.823   9.611 -0.7215  0.5013 -1.3668
  109OSM   C10S11240   1.013   2.733   9.452  0.5446 -0.0106  1.0166
  109OSM   H10S11241   0.953   2.821   9.420  1.5893 -0.3078 -2.1290
  109OSM   H10T11242   0.947   2.650   9.419  1.2797  0.3997 -1.7341
  109OSM   C11S11243   1.137   2.726   9.356 -0.4749  0.0729  0.1074
  109OSM   H11S11244   1.190   2.631   9.377  0.8998  0.5865 -0.8805
  109OSM   H11T11245   1.205   2.806   9.394 -0.2596  0.5777 -1.2807
  109OSM   C12S11246   1.113   2.755   9.205 -0.7288 -0.0839  0.3260
  109OSM   H12S11247   1.105   2.865   9.197  2.0955  0.1937  0.0431
  109OSM   H12T11248   1.017   2.715   9.167 -0.0436 -1.0320 -0.4655
  109OSM   C13S11249   1.228   2.704   9.117 -0.9916 -0.4794 -1.2472
  109OSM   H13S11250   1.228   2.593   9.110 -0.6397 -0.4081 -3.1424
  109OSM   H13T11251   1.331   2.724   9.153 -0.6981  1.0786 -2.7951
  109OSM   C14S11252   1.218   2.736   8.970 -0.0038  0.5527  0.1702
  109OSM   H14S11253   1.195   2.845   8.963 -0.5470  0.3495 -1.6390
  109OSM   H14T11254   1.152   2.670   8.910  0.8872 -1.3402  1.2052
  109OSM   C15S11255   1.361   2.713   8.916 -0.6869  0.0324  0.3426
  109OSM   H15S11256   1.379   2.604   8.931 -2.1450 -0.1411  1.0148
  109OSM   H15T11257   1.433   2.781   8.965 -0.1352 -0.0667 -0.3065
  109OSM   C16S11258   1.388   2.739   8.759  0.2577  0.0551 -0.2037
  109OSM   H16S11259   1.335   2.662   8.700  2.6184 -1.9889  0.1864
  109OSM   H16T11260   1.498   2.731   8.745  0.3804  4.2615 -3.5212
  109OSM   C17S11261   1.356   2.875   8.713  1.1182  0.0592  0.5545
  109OSM   H17S11262   1.409   2.952   8.771 -1.1311  0.8953  1.6288
  109OSM   H17T11263   1.254   2.906   8.747  0.9895 -0.3527  0.5524
  109OSM   C18S11264   1.357   2.902   8.557 -0.4159 -0.5385  0.0841
  109OSM   H18S11265   1.287   2.836   8.502 -0.1974  0.5357 -1.5576
  109OSM   H18T11266   1.452   2.860   8.517  0.2056  1.3048 -0.5071
  109OSM   H18U11267   1.356   3.012   8.541 -0.7739 -0.4360  0.7887
  109OSM    C1F11268   1.239   2.454  10.236  0.3939 -0.0087 -0.1056
  109OSM     OF11269   1.217   2.359  10.312 -0.1018 -0.0995  0.0048
  109OSM    C2F11270   1.357   2.466  10.150 -0.5703  0.1868  0.8297
  109OSM    H2F11271   1.423   2.389  10.195 -0.3329  0.5158  1.0546
  109OSM    H2G11272   1.405   2.564  10.172 -1.7210  1.4031 -1.7367
  109OSM    C3F11273   1.307   2.458  10.005  0.3260  0.5760  0.0799
  109OSM    H3F11274   1.228   2.533   9.984 -2.3147 -2.1315 -0.3930
  109OSM    H3G11275   1.256   2.359   9.999  1.7547 -0.1870  0.1987
  109OSM    C4F11276   1.423   2.460   9.900 -0.4437  0.3839  0.2041
  109OSM    H4F11277   1.494   2.375   9.911 -0.6851 -0.1311 -1.8381
  109OSM    H4G11278   1.476   2.556   9.920  1.3070 -1.0204  2.9507
  109OSM    C5F11279   1.366   2.457   9.755  0.6751  0.7085 -0.1061
  109OSM    H5F11280   1.328   2.560   9.738  0.8015  1.2460  2.4389
  109OSM    H5G11281   1.287   2.380   9.747  0.1281  1.1904  0.5221
  109OSM    C6F11282   1.459   2.421   9.641  0.0194  0.0651  0.1625
  109OSM    H6F11283   1.488   2.314   9.634  1.0641  0.4370 -2.6422
  109OSM    H6G11284   1.559   2.469   9.649  0.9077 -1.8130  1.0373
  109OSM    C7F11285   1.406   2.455   9.500  0.3216 -0.6844  0.0797
  109OSM    H7F11286   1.413   2.565   9.484  1.0870 -0.5782  1.0719
  109OSM    H7G11287   1.298   2.427   9.494 -0.3620  1.8599 -0.7919
  109OSM    C8F11288   1.495   2.393   9.396  0.3410 -0.0008  0.6758
  109OSM    H8F11289   1.502   2.285   9.423 -1.8458 -0.1230  0.9151
  109OSM    H8G11290   1.594   2.444   9.396  0.5747 -0.3773  2.3943
  109OSM    C9F11291   1.436   2.402   9.257 -0.2602 -0.4060 -0.1030
  109OSM    H9F11292   1.335   2.444   9.247  0.0320  0.4652  0.4433
  109OSM   C10F11293   1.486   2.369   9.137  0.4087  0.3836  0.8461
  109OSM   H10F11294   1.424   2.395   9.050 -0.2080  1.8981  1.6948
  109OSM   C11F11295   1.617   2.299   9.107 -0.0688  0.3540 -0.2364
  109OSM   H11F11296   1.591   2.192   9.089 -1.8269  0.4800  1.2283
  109OSM   H11G11297   1.687   2.311   9.192 -0.4267 -3.8750  0.8704
  109OSM   C12F11298   1.685   2.358   8.983  0.1792 -0.3135  0.2362
  109OSM   H12F11299   1.620   2.337   8.896 -0.2633  0.5440  0.3459
  109OSM   H12G11300   1.784   2.309   8.975 -0.4918 -1.8208  0.7522
  109OSM   C13F11301   1.714   2.501   8.979  0.4399  0.3734 -0.0022
  109OSM   H13F11302   1.803   2.529   9.041 -0.7038 -1.2261  2.4990
  109OSM   H13G11303   1.635   2.566   9.023  0.7123 -0.0296  1.1089
  109OSM   C14F11304   1.745   2.548   8.839  0.3641  0.1798  0.3211
  109OSM   H14F11305   1.715   2.654   8.825  1.8729  0.6408  0.3369
  109OSM   H14G11306   1.680   2.496   8.766  1.7083 -0.1521 -0.6799
  109OSM   C15F11307   1.892   2.539   8.807  0.5508  0.2295  0.3870
  109OSM   H15F11308   1.913   2.431   8.788 -0.3322 -0.1732  1.5322
  109OSM   H15G11309   1.951   2.560   8.899  1.1274 -3.8886  1.1864
  109OSM   C16F11310   1.936   2.633   8.690 -1.0952 -0.2821  0.3238
  109OSM   H16F11311   1.909   2.736   8.723  2.0119  1.2807 -1.5248
  109OSM   H16G11312   1.881   2.606   8.597 -2.2656  2.3173  0.1788
  109OSM   C17F11313   2.090   2.647   8.684 -0.3151  0.4224  0.2922
  109OSM   H17F11314   2.127   2.641   8.789  0.7541 -1.4994 -0.1506
  109OSM   H17G11315   2.133   2.734   8.631  1.4981 -0.6363 -0.0293
  109OSM   C18F11316   2.166   2.525   8.615  0.3170 -0.2237  0.0631
  109OSM   H18F11317   2.147   2.439   8.681  0.1918 -0.4247 -0.2329
  109OSM   H18G11318   2.275   2.538   8.600  0.6161 -1.8123  0.7814
  109OSM   H18H11319   2.123   2.504   8.514 -1.2031 -0.6647  0.7714
  110OSM      N11320   3.020   1.680  10.952  0.0894 -0.4210  0.0865
  110OSM    C1511321   3.025   1.680  11.097  0.5422  0.1877 -0.6030
  110OSM   H15A11322   2.998   1.588  11.147  1.0270  1.0106  1.2241
  110OSM   H15B11323   2.950   1.749  11.132  1.8007  0.8969  0.7827
  110OSM   H15C11324   3.117   1.718  11.138  0.7708  0.8904 -1.7221
  110OSM    C1411325   3.032   1.819  10.904 -1.1380 -0.8757 -0.2431
  110OSM   H14A11326   2.943   1.868  10.942 -1.8763 -1.0138 -1.7074
  110OSM   H14B11327   3.021   1.822  10.796  2.6697  0.1452 -0.7469
  110OSM   H14C11328   3.125   1.870  10.925 -0.5150 -1.4522 -1.4969
  110OSM    C1311329   3.138   1.619  10.884 -0.6360 -0.1226  0.4195
  110OSM   H13A11330   3.121   1.627  10.777 -1.9607 -0.3034  0.6003
  110OSM   H13B11331   3.160   1.516  10.910  2.4706  0.4040  0.3135
  110OSM   H13C11332   3.221   1.687  10.897 -2.5588  1.9704  2.5933
  110OSM    C1211333   2.890   1.619  10.902  0.4680  0.5964  0.5946
  110OSM   H12A11334   2.890   1.518  10.942  3.7288  0.2071 -0.1364
  110OSM   H12B11335   2.889   1.604  10.795 -0.9703  0.7178  0.5597
  110OSM    C1111336   2.756   1.694  10.927  0.4999 -0.0475 -0.6906
  110OSM   H11A11337   2.749   1.708  11.037 -0.8008 -4.7460  0.0733
  110OSM   H11B11338   2.668   1.634  10.895 -0.0369  2.2300 -4.0337
  110OSM      P11339   2.671   1.847  10.731  0.2717  0.3596 -0.0689
  110OSM    O1311340   2.530   1.801  10.730  0.9910 -0.2967  0.5347
  110OSM    O1411341   2.699   1.987  10.696  0.5465 -0.2333 -0.9058
  110OSM    O1111342   2.760   1.753  10.634  0.2314 -0.5120  0.3782
  110OSM    O1211343   2.735   1.821  10.863 -0.0025 -0.2191 -0.7739
  110OSM    C1S11344   2.705   1.627  10.592  0.6646 -0.0700 -0.7629
  110OSM    H1S11345   2.612   1.642  10.533  2.4662  1.5484 -3.4160
  110OSM    H1T11346   2.678   1.556  10.673 -0.2375  2.1119  0.9312
  110OSM     NF11347   2.756   1.417  10.442  0.4970  0.2581  0.0805
  110OSM    HNF11348   2.797   1.335  10.482 -2.0579 -1.7207 -1.0955
  110OSM    C2S11349   2.805   1.546  10.491 -0.7333  0.2590 -0.0431
  110OSM    H2S11350   2.808   1.614  10.402  1.0576 -0.9595 -0.9793
  110OSM    C3S11351   2.949   1.539  10.558 -0.1008 -0.1624  0.4186
  110OSM    H3S11352   2.946   1.465  10.641  2.5552  0.4114  1.1024
  110OSM     O311353   2.995   1.664  10.601 -0.6591 -0.0099  0.2870
  110OSM    HO311354   2.916   1.717  10.616 -0.0711  0.3319  2.6642
  110OSM    C4S11355   3.043   1.494  10.448 -0.2512  0.6714  0.5966
  110OSM    H4S11356   3.027   1.547  10.353  1.0906  3.0030  1.5685
  110OSM    C5S11357   3.116   1.376  10.451  0.0435 -0.4754 -0.2993
  110OSM    H5S11358   3.091   1.308  10.533 -1.7179  0.3790 -0.0848
  110OSM    C6S11359   3.195   1.319  10.338  0.4696 -0.8604  0.8317
  110OSM    H6S11360   3.180   1.209  10.335  0.3251 -0.8301  0.0593
  110OSM    H6T11361   3.300   1.339  10.368  0.6483  0.0793 -0.3374
  110OSM    C7S11362   3.175   1.372  10.195  0.4151  0.2457  0.1589
  110OSM    H7S11363   3.183   1.482  10.190 -0.7013  0.2766 -2.3048
  110OSM    H7T11364   3.072   1.353  10.157  0.4805  0.1020  0.0535
  110OSM    C8S11365   3.271   1.317  10.096  0.9377 -0.3765 -0.0454
  110OSM    H8S11366   3.258   1.207  10.101  1.1960 -0.3861  4.1926
  110OSM    H8T11367   3.373   1.340  10.132  0.0789  0.6642  1.9066
  110OSM    C9S11368   3.258   1.376   9.958  0.1831  0.3509 -0.5059
  110OSM    H9S11369   3.272   1.486   9.966  1.1647  0.2383 -0.4942
  110OSM    H9T11370   3.155   1.354   9.923 -0.0294 -0.0671  0.3526
  110OSM   C10S11371   3.365   1.329   9.858 -0.2296  0.5683 -0.9463
  110OSM   H10S11372   3.378   1.220   9.877 -0.0687  0.7500  0.0845
  110OSM   H10T11373   3.463   1.380   9.871  0.1070 -0.3300  0.2671
  110OSM   C11S11374   3.307   1.331   9.717  0.4537 -0.3555  0.3906
  110OSM   H11S11375   3.201   1.298   9.726  0.5515 -0.8334 -0.1193
  110OSM   H11T11376   3.358   1.254   9.654  0.2817 -1.1653  1.2098
  110OSM   C12S11377   3.310   1.472   9.661  0.4930  0.1651 -0.2932
  110OSM   H12S11378   3.414   1.509   9.662 -0.2740  2.5408 -0.2746
  110OSM   H12T11379   3.253   1.544   9.724 -0.9533  0.1451 -1.5177
  110OSM   C13S11380   3.248   1.485   9.520 -0.3536 -0.1188 -0.6295
  110OSM   H13S11381   3.265   1.592   9.495 -2.4199  0.1562 -1.0371
  110OSM   H13T11382   3.140   1.460   9.516 -0.1168 -1.6666  1.4430
  110OSM   C14S11383   3.323   1.400   9.410 -0.2488 -0.3368  0.5125
  110OSM   H14S11384   3.329   1.291   9.428  0.1761 -0.5363 -0.7444
  110OSM   H14T11385   3.428   1.435   9.404 -0.9004  1.8009  0.6615
  110OSM   C15S11386   3.266   1.427   9.271 -0.3732  0.2464  0.0283
  110OSM   H15S11387   3.279   1.534   9.245  1.6767 -0.7483 -3.8333
  110OSM   H15T11388   3.156   1.414   9.264 -0.4784  1.1552 -0.1191
  110OSM   C16S11389   3.344   1.360   9.153 -0.4000  0.5631  0.1214
  110OSM   H16S11390   3.326   1.250   9.162 -0.0089  0.1687 -2.8861
  110OSM   H16T11391   3.454   1.375   9.165 -0.1189  0.2362 -1.6970
  110OSM   C17S11392   3.308   1.404   9.008  0.1582  0.6289 -0.5446
  110OSM   H17S11393   3.315   1.515   9.002  1.8654  0.5083 -1.4638
  110OSM   H17T11394   3.203   1.369   8.998  1.1365 -2.3904 -1.4861
  110OSM   C18S11395   3.397   1.342   8.902 -0.5325  0.2202 -0.1111
  110OSM   H18S11396   3.502   1.362   8.933 -0.2708 -1.4588  0.2102
  110OSM   H18T11397   3.365   1.382   8.804  0.1677  0.7475 -0.1350
  110OSM   H18U11398   3.394   1.231   8.910 -0.8040  0.2404  0.1105
  110OSM    C1F11399   2.639   1.406  10.380  0.2147 -0.1198  0.7599
  110OSM     OF11400   2.558   1.498  10.366 -0.1640 -0.3619 -0.5199
  110OSM    C2F11401   2.592   1.269  10.341 -0.4143  0.4535 -0.2113
  110OSM    H2F11402   2.541   1.222  10.427  0.1030 -1.2672 -0.7917
  110OSM    H2G11403   2.678   1.204  10.314  0.4805  1.8677 -0.9489
  110OSM    C3F11404   2.496   1.262  10.214  0.1919 -0.6587  0.7461
  110OSM    H3F11405   2.398   1.311  10.231  0.0006 -1.3619  1.7791
  110OSM    H3G11406   2.480   1.153  10.202 -1.7671 -0.5581  2.1297
  110OSM    C4F11407   2.552   1.319  10.084  0.2341  0.8685 -0.7179
  110OSM    H4F11408   2.642   1.260  10.061  0.5514  0.8969  0.3841
  110OSM    H4G11409   2.574   1.428  10.084  1.3287  0.6576 -0.0477
  110OSM    C5F11410   2.446   1.312   9.971  0.0037  0.5160 -0.1515
  110OSM    H5F11411   2.354   1.350  10.019 -0.6628  0.2186 -1.1646
  110OSM    H5G11412   2.427   1.205   9.948 -0.7137 -0.2947  3.5175
  110OSM    C6F11413   2.493   1.380   9.845 -0.1956  0.1446  0.2031
  110OSM    H6F11414   2.519   1.481   9.884 -0.0746 -0.3809  1.5334
  110OSM    H6G11415   2.410   1.390   9.772 -0.1077  2.4445  0.3410
  110OSM    C7F11416   2.622   1.340   9.776  0.5949  0.0363  0.6189
  110OSM    H7F11417   2.620   1.229   9.768 -1.1415 -0.0313  1.4559
  110OSM    H7G11418   2.711   1.376   9.832  1.6847 -1.4260 -0.0817
  110OSM    C8F11419   2.637   1.401   9.634 -0.4523 -0.1104 -0.9806
  110OSM    H8F11420   2.658   1.507   9.658  0.9956 -0.8309  1.2438
  110OSM    H8G11421   2.543   1.396   9.575 -0.3602  0.9880 -1.2411
  110OSM    C9F11422   2.749   1.360   9.541 -0.2621  0.5142  0.5413
  110OSM    H9F11423   2.852   1.396   9.554 -0.1444 -0.0047  1.0758
  110OSM   C10F11424   2.735   1.291   9.432  0.5487 -0.6200  0.3232
  110OSM   H10F11425   2.828   1.277   9.375  0.9861  0.7487  0.6732
  110OSM   C11F11426   2.609   1.234   9.369 -0.0154 -0.5914 -0.1309
  110OSM   H11F11427   2.522   1.298   9.396  1.8250  2.5993 -1.1872
  110OSM   H11G11428   2.596   1.133   9.414  0.3268 -0.8840 -0.6721
  110OSM   C12F11429   2.617   1.231   9.214  0.6491  0.3383 -0.0066
  110OSM   H12F11430   2.703   1.174   9.174 -0.0240  0.1497 -1.2442
  110OSM   H12G11431   2.626   1.336   9.179  0.5859  0.5611  0.6387
  110OSM   C13F11432   2.497   1.168   9.151 -0.0273  0.0138  0.0871
  110OSM   H13F11433   2.422   1.249   9.142  0.1315  0.1060 -0.4366
  110OSM   H13G11434   2.458   1.087   9.217  1.4097  0.1077  1.0845
  110OSM   C14F11435   2.517   1.102   9.008  0.5518  0.0084 -0.2354
  110OSM   H14F11436   2.427   1.051   8.967  1.7847 -0.6771 -2.2540
  110OSM   H14G11437   2.589   1.018   9.021  0.1072 -0.2620  0.5831
  110OSM   C15F11438   2.561   1.209   8.906  0.1698  0.3449  0.5093
  110OSM   H15F11439   2.670   1.220   8.921  0.4503 -2.3487  1.1022
  110OSM   H15G11440   2.509   1.301   8.941  1.1703  0.6335  1.2596
  110OSM   C16F11441   2.533   1.168   8.762  0.2842  0.3105  1.1037
  110OSM   H16F11442   2.524   1.058   8.753  0.8400  0.1974  1.8397
  110OSM   H16G11443   2.613   1.211   8.698 -0.2824 -1.7577 -1.1410
  110OSM   C17F11444   2.392   1.218   8.708  0.2401 -0.1215  0.3866
  110OSM   H17F11445   2.315   1.177   8.776 -1.4814  0.2686 -1.2351
  110OSM   H17G11446   2.361   1.182   8.607 -3.9768  2.8164  0.3636
  110OSM   C18F11447   2.377   1.364   8.706  0.8682  0.2923 -0.2406
  110OSM   H18F11448   2.358   1.412   8.804  2.5758 -0.6590  0.5911
  110OSM   H18G11449   2.285   1.401   8.656  0.7461  0.3674  0.0395
  110OSM   H18H11450   2.456   1.419   8.650  0.3794  1.0749 -0.1843
  111OSM      N11451   3.837   4.462  10.955 -0.8514 -0.0499  0.2948
  111OSM    C1511452   3.946   4.568  10.940  0.4853 -0.0313 -0.2530
  111OSM   H15A11453   3.923   4.632  10.856 -1.1634  1.8365  1.5277
  111OSM   H15B11454   4.042   4.519  10.937  1.4350  1.5902  1.4847
  111OSM   H15C11455   3.944   4.640  11.020 -0.9699 -0.8118  0.4624
  111OSM    C1411456   3.834   4.376  10.837  0.3072 -0.6828 -0.1509
  111OSM   H14A11457   3.929   4.329  10.817  1.2683  0.1034  2.2154
  111OSM   H14B11458   3.804   4.429  10.748  1.7568  0.1642 -0.1715
  111OSM   H14C11459   3.759   4.302  10.863 -0.6568 -0.1698 -1.3878
  111OSM    C1311460   3.864   4.378  11.078 -0.5531 -0.4815  0.3265
  111OSM   H13A11461   3.877   4.444  11.162  1.0201 -1.3601  0.8083
  111OSM   H13B11462   3.958   4.325  11.069  0.6226  1.6903 -1.0814
  111OSM   H13C11463   3.786   4.304  11.092  1.5869 -2.9017  0.2865
  111OSM    C1211464   3.700   4.537  10.971 -0.1195  0.3981  0.0864
  111OSM   H12A11465   3.711   4.608  11.052  1.4563  1.6447 -1.1645
  111OSM   H12B11466   3.631   4.462  11.007  2.1753 -1.2033  1.4728
  111OSM    C1111467   3.637   4.617  10.856  0.0249  0.2304 -0.0839
  111OSM   H11A11468   3.540   4.646  10.902 -0.1413  0.3517 -0.5032
  111OSM   H11B11469   3.608   4.543  10.778 -0.1527 -0.0616  0.2575
  111OSM      P11470   3.682   4.865  10.858  0.0192 -0.1791  0.7035
  111OSM    O1311471   3.599   4.865  10.983 -0.0613  0.8352  0.6431
  111OSM    O1411472   3.810   4.944  10.874 -0.6031 -0.1116 -0.1108
  111OSM    O1111473   3.599   4.917  10.733  0.4032  0.0019  0.3084
  111OSM    O1211474   3.728   4.714  10.814 -0.5148 -1.0003 -0.1114
  111OSM    C1S11475   3.631   4.894  10.601 -0.3146  0.1696  0.4933
  111OSM    H1S11476   3.613   4.787  10.577  2.9973  0.1935 -3.0072
  111OSM    H1T11477   3.735   4.914  10.568 -0.4231 -3.4673 -2.7591
  111OSM     NF11478   3.572   4.923  10.366 -0.1027 -0.2463 -0.6577
  111OSM    HNF11479   3.628   4.990  10.318  0.9013  0.2169  1.0894
  111OSM    C2S11480   3.542   4.972  10.503  0.1571  0.6564 -0.5516
  111OSM    H2S11481   3.441   4.935  10.527  0.5505 -0.0182  0.1186
  111OSM    C3S11482   3.548   5.124  10.526 -0.5074  0.6976  0.0804
  111OSM    H3S11483   3.648   5.164  10.501 -1.6863  2.8071 -1.7018
  111OSM     O311484   3.515   5.166  10.665  0.2460  0.1318 -0.0732
  111OSM    HO311485   3.531   5.089  10.720  1.4071  0.9855  0.8309
  111OSM    C4S11486   3.456   5.194  10.431  0.7966  0.2870  0.3185
  111OSM    H4S11487   3.516   5.222  10.343  0.9725  0.4576  0.4931
  111OSM    C5S11488   3.323   5.221  10.438 -0.1055  0.2033 -0.2568
  111OSM    H5S11489   3.275   5.180  10.528  1.2164 -2.4261 -0.6557
  111OSM    C6S11490   3.246   5.304  10.341  0.3478 -0.1459 -0.5861
  111OSM    H6S11491   3.259   5.411  10.365 -0.4247  0.3456 -2.1857
  111OSM    H6T11492   3.136   5.292  10.353  0.7759 -4.8491  0.7696
  111OSM    C7S11493   3.279   5.275  10.185  0.1071  0.4200 -0.5317
  111OSM    H7S11494   3.284   5.164  10.176  1.1204  0.2615  1.4584
  111OSM    H7T11495   3.382   5.312  10.163 -0.2628  1.0257 -1.2730
  111OSM    C8S11496   3.190   5.360  10.096 -0.4261  0.4846  0.2039
  111OSM    H8S11497   3.162   5.455  10.146 -2.4002  0.2761 -0.3975
  111OSM    H8T11498   3.089   5.317  10.080  0.5438 -1.9011  0.0399
  111OSM    C9S11499   3.270   5.403   9.964 -0.5241 -0.0848 -0.0044
  111OSM    H9S11500   3.302   5.307   9.918  1.6773 -0.2974  1.7918
  111OSM    H9T11501   3.360   5.466   9.978 -1.5772  2.4615 -3.3749
  111OSM   C10S11502   3.188   5.478   9.863 -0.4113  0.0530  0.3586
  111OSM   H10S11503   3.162   5.580   9.897 -1.5590 -0.3104  0.6136
  111OSM   H10T11504   3.090   5.425   9.859 -0.1616 -0.3582 -0.5102
  111OSM   C11S11505   3.251   5.479   9.721  0.0002 -0.3347  0.4848
  111OSM   H11S11506   3.296   5.381   9.697  0.1664 -0.7511  2.3370
  111OSM   H11T11507   3.330   5.557   9.720 -0.7150  0.4167 -1.2394
  111OSM   C12S11508   3.144   5.524   9.616 -0.0008  1.2246  0.2624
  111OSM   H12S11509   3.122   5.631   9.637 -2.5438  0.8252 -0.0880
  111OSM   H12T11510   3.047   5.474   9.638 -0.5409 -0.0145 -3.9971
  111OSM   C13S11511   3.187   5.485   9.474  1.0258 -0.6983 -0.1710
  111OSM   H13S11512   3.214   5.378   9.487  1.1774 -0.4117  2.3341
  111OSM   H13T11513   3.273   5.552   9.456  0.5539  0.9899  3.0902
  111OSM   C14S11514   3.075   5.515   9.373  0.2153 -0.1898  0.1584
  111OSM   H14S11515   3.058   5.625   9.371 -0.7154 -0.2714 -3.0891
  111OSM   H14T11516   2.980   5.464   9.399 -0.3738  0.2222 -1.1058
  111OSM   C15S11517   3.116   5.474   9.226  0.4707 -0.0238  0.6610
  111OSM   H15S11518   3.174   5.380   9.237  0.2976 -0.2577 -0.3733
  111OSM   H15T11519   3.184   5.556   9.195 -0.4051  0.6915  0.6186
  111OSM   C16S11520   2.995   5.443   9.137 -0.6365 -0.0982  0.1234
  111OSM   H16S11521   2.943   5.540   9.125  0.6830  0.7855  1.2184
  111OSM   H16T11522   2.931   5.368   9.188 -0.2687  0.2956  1.1974
  111OSM   C17S11523   3.039   5.393   8.994  0.3279 -0.0789 -0.0534
  111OSM   H17S11524   3.106   5.460   8.936  0.6466 -1.2408 -1.0761
  111OSM   H17T11525   2.944   5.379   8.939  1.5990 -1.8271 -1.9610
  111OSM   C18S11526   3.108   5.253   8.997 -0.0166 -0.0793  0.3715
  111OSM   H18S11527   3.110   5.208   8.896  0.8280 -2.0287  1.2051
  111OSM   H18T11528   3.056   5.178   9.061 -0.6286  0.8156  0.9387
  111OSM   H18U11529   3.208   5.274   9.041 -1.0833  1.8998  2.0398
  111OSM    C1F11530   3.538   4.797  10.319 -0.1856 -0.4494 -0.2850
  111OSM     OF11531   3.455   4.720  10.368  0.4844  0.6417 -0.2806
  111OSM    C2F11532   3.603   4.770  10.195 -0.9596  0.2416  0.1499
  111OSM    H2F11533   3.713   4.785  10.205 -0.8987 -0.7049  1.0240
  111OSM    H2G11534   3.567   4.837  10.113 -1.8315 -0.0447  0.2863
  111OSM    C3F11535   3.581   4.618  10.150  0.8677 -0.3859 -0.2542
  111OSM    H3F11536   3.480   4.576  10.169  0.6271 -1.0541 -2.7623
  111OSM    H3G11537   3.649   4.553  10.209 -0.4764 -2.1165 -0.5537
  111OSM    C4F11538   3.604   4.584  10.000  0.2076 -0.3067  0.1578
  111OSM    H4F11539   3.519   4.625   9.941  0.6920  0.8391  0.2287
  111OSM    H4G11540   3.619   4.475   9.986 -1.7442 -0.6707  0.5890
  111OSM    C5F11541   3.731   4.652   9.946  0.0430  0.2469 -0.3796
  111OSM    H5F11542   3.819   4.631  10.010 -0.6199 -1.1270  0.1199
  111OSM    H5G11543   3.718   4.762   9.945 -0.0908  0.2304 -0.5815
  111OSM    C6F11544   3.772   4.610   9.809 -0.2466  0.2804 -0.0460
  111OSM    H6F11545   3.812   4.506   9.809 -0.4530  0.1381  2.3809
  111OSM    H6G11546   3.851   4.677   9.770  0.6320 -0.0214  1.1237
  111OSM    C7F11547   3.651   4.613   9.713  0.1994 -0.1533 -0.1939
  111OSM    H7F11548   3.617   4.718   9.713 -1.8655 -0.7416  1.4195
  111OSM    H7G11549   3.558   4.561   9.745 -0.9212  2.0602  0.2950
  111OSM    C8F11550   3.688   4.567   9.574 -0.5366  0.5704 -0.9075
  111OSM    H8F11551   3.729   4.466   9.595  1.8579  1.7956  0.6907
  111OSM    H8G11552   3.770   4.623   9.524 -1.2797  1.7594 -0.8341
  111OSM    C9F11553   3.563   4.540   9.484 -0.1724 -0.2940  0.4075
  111OSM    H9F11554   3.481   4.492   9.539  0.0762  1.0693  2.0573
  111OSM   C10F11555   3.550   4.584   9.357 -0.2259  0.9246  0.2597
  111OSM   H10F11556   3.461   4.561   9.298  0.5203  0.0753 -0.5630
  111OSM   C11F11557   3.650   4.660   9.273 -0.4763 -0.7630 -0.2206
  111OSM   H11F11558   3.724   4.718   9.332 -0.7263 -0.7596  0.0890
  111OSM   H11G11559   3.605   4.741   9.212  0.2767  0.3897  0.7197
  111OSM   C12F11560   3.727   4.557   9.175 -0.8753 -0.5560 -0.6485
  111OSM   H12F11561   3.775   4.480   9.239 -1.8287 -0.6704 -0.0411
  111OSM   H12G11562   3.794   4.616   9.109 -1.0185 -1.1655 -1.3540
  111OSM   C13F11563   3.636   4.480   9.078 -0.1226  0.1560  0.3162
  111OSM   H13F11564   3.587   4.562   9.020 -2.2730  0.1615  1.9874
  111OSM   H13G11565   3.551   4.422   9.122 -1.0209  1.5990  0.5571
  111OSM   C14F11566   3.718   4.385   8.981 -0.1608  0.1668  0.0878
  111OSM   H14F11567   3.732   4.287   9.029 -2.1061 -0.1298  0.1458
  111OSM   H14G11568   3.811   4.441   8.955 -0.4010  0.8225  0.6166
  111OSM   C15F11569   3.632   4.353   8.854 -0.1765 -0.7148  0.3850
  111OSM   H15F11570   3.539   4.306   8.893  0.3526 -2.4376 -0.3180
  111OSM   H15G11571   3.682   4.277   8.790 -0.2899 -0.1212 -0.4237
  111OSM   C16F11572   3.598   4.476   8.762 -0.3160  0.4880  0.1826
  111OSM   H16F11573   3.699   4.509   8.728  0.0386 -0.3173  0.4208
  111OSM   H16G11574   3.542   4.548   8.826 -2.0068  0.6486 -1.4091
  111OSM   C17F11575   3.508   4.449   8.638 -0.4036 -0.6827 -0.0729
  111OSM   H17F11576   3.413   4.401   8.670  0.5520 -0.4373  3.5105
  111OSM   H17G11577   3.565   4.380   8.572  2.2034  1.6264 -0.4194
  111OSM   C18F11578   3.475   4.577   8.568 -0.3586 -0.1087 -0.2279
  111OSM   H18F11579   3.426   4.643   8.643  3.3280  3.6756 -0.7677
  111OSM   H18G11580   3.407   4.565   8.481  0.1673 -0.3690 -0.6135
  111OSM   H18H11581   3.560   4.634   8.523 -0.8555 -0.0286 -1.0901
  112OSM      N11582   4.759   2.316  11.149 -0.1058 -0.1032  0.0121
  112OSM    C1511583   4.757   2.377  11.286 -0.2018 -0.1377 -0.8972
  112OSM   H15A11584   4.754   2.294  11.354  2.7135 -1.6453 -2.4141
  112OSM   H15B11585   4.686   2.457  11.295 -0.5896 -0.6263  0.6201
  112OSM   H15C11586   4.854   2.423  11.300  1.1989 -3.4805  2.0784
  112OSM    C1411587   4.760   2.433  11.048 -0.2158  0.2826 -0.2081
  112OSM   H14A11588   4.828   2.513  11.073 -2.0263  2.5039 -1.9801
  112OSM   H14B11589   4.661   2.475  11.044  0.2806  1.4671 -0.4848
  112OSM   H14C11590   4.777   2.393  10.949 -1.0026  2.1118 -1.1279
  112OSM    C1311591   4.880   2.233  11.148  0.0767  1.0496 -0.3433
  112OSM   H13A11592   4.855   2.154  11.217  1.5995  2.0350  1.4001
  112OSM   H13B11593   4.970   2.278  11.186  0.7253 -1.0511  0.7161
  112OSM   H13C11594   4.886   2.189  11.049 -1.8113 -0.3610  0.1082
  112OSM    C1211595   4.629   2.239  11.132 -0.0177  0.4490  0.7104
  112OSM   H12A11596   4.616   2.156  11.201 -1.7571 -0.1682 -0.2999
  112OSM   H12B11597   4.633   2.194  11.034 -0.6368  0.7010  0.5697
  112OSM    C1111598   4.489   2.320  11.135 -0.7603 -0.2090 -0.0739
  112OSM   H11A11599   4.492   2.385  11.224  2.6906 -1.5803  0.9802
  112OSM   H11B11600   4.422   2.234  11.157  0.3036 -1.0857 -0.1097
  112OSM      P11601   4.345   2.485  11.019  0.0157 -0.2866 -0.0871
  112OSM    O1311602   4.234   2.434  11.110  0.2646  0.0342 -0.1577
  112OSM    O1411603   4.399   2.620  11.048 -0.1190  0.5006  0.0904
  112OSM    O1111604   4.296   2.470  10.871 -0.0841  0.4878  0.7518
  112OSM    O1211605   4.458   2.383  11.011 -0.9866  0.5775 -0.0616
  112OSM    C1S11606   4.390   2.498  10.759 -1.0057  0.1351  0.2179
  112OSM    H1S11607   4.495   2.474  10.785 -0.2098 -0.7623 -3.2413
  112OSM    H1T11608   4.401   2.607  10.745  1.8410  0.0599  1.1439
  112OSM     NF11609   4.466   2.481  10.523  0.2949 -0.5004 -0.1495
  112OSM    HNF11610   4.443   2.563  10.472 -0.1733  1.5939  3.0978
  112OSM    C2S11611   4.362   2.431  10.618 -1.1873  0.4984  0.0064
  112OSM    H2S11612   4.369   2.320  10.624  0.9449  0.6772  2.1466
  112OSM    C3S11613   4.221   2.464  10.574 -0.3973  0.1077 -0.0721
  112OSM    H3S11614   4.218   2.575  10.584  1.8905  0.0778  1.8644
  112OSM     O311615   4.121   2.431  10.673  0.5756  0.4442 -0.1363
  112OSM    HO311616   4.172   2.421  10.754 -0.7580  2.6263  1.0822
  112OSM    C4S11617   4.198   2.423  10.432  0.1090  0.5365 -0.1957
  112OSM    H4S11618   4.238   2.494  10.358  0.5943 -1.0616 -1.5278
  112OSM    C5S11619   4.132   2.311  10.392  0.4303  0.0197  0.9584
  112OSM    H5S11620   4.094   2.240  10.466  0.6265  2.1485  3.2387
  112OSM    C6S11621   4.104   2.277  10.246 -0.6386 -1.2179 -0.9959
  112OSM    H6S11622   4.004   2.318  10.221 -0.8065 -0.3170  0.9959
  112OSM    H6T11623   4.095   2.167  10.234 -0.5031 -1.3425 -0.0459
  112OSM    C7S11624   4.195   2.340  10.140 -0.4795 -0.2277 -0.2092
  112OSM    H7S11625   4.300   2.317  10.166 -0.0414  2.0167  0.2651
  112OSM    H7T11626   4.190   2.451  10.148  0.3385 -0.3148  2.2712
  112OSM    C8S11627   4.170   2.301   9.991 -0.1181 -0.2167 -0.2085
  112OSM    H8S11628   4.069   2.342   9.971 -0.5943 -0.7484  1.0222
  112OSM    H8T11629   4.168   2.190   9.983  0.6979 -0.5819  3.3140
  112OSM    C9S11630   4.280   2.361   9.898 -0.9517  0.0759 -0.8061
  112OSM    H9S11631   4.371   2.302   9.920 -1.3904 -0.1095  0.5965
  112OSM    H9T11632   4.298   2.468   9.924 -0.3690  0.0393 -1.0586
  112OSM   C10S11633   4.234   2.333   9.756 -0.3234 -0.4740  0.3213
  112OSM   H10S11634   4.140   2.385   9.727  0.5375  1.7347  1.2402
  112OSM   H10T11635   4.200   2.228   9.745  0.0806 -0.8073  2.0061
  112OSM   C11S11636   4.343   2.354   9.647  0.0925  0.1544 -0.9244
  112OSM   H11S11637   4.426   2.286   9.675  0.1767 -0.3817 -2.4064
  112OSM   H11T11638   4.377   2.460   9.650  0.2832  0.0873 -0.6400
  112OSM   C12S11639   4.293   2.293   9.515 -0.0766  0.3347 -0.1379
  112OSM   H12S11640   4.191   2.312   9.475 -0.3660 -4.0903 -2.1327
  112OSM   H12T11641   4.272   2.186   9.536 -0.6717  0.3009 -0.8454
  112OSM   C13S11642   4.398   2.304   9.411  0.2331 -0.1336  0.2703
  112OSM   H13S11643   4.487   2.245   9.442  1.9494  1.5239 -1.2656
  112OSM   H13T11644   4.425   2.411   9.395 -0.3147  0.1546  1.2068
  112OSM   C14S11645   4.361   2.253   9.268  0.7018 -0.2073 -0.4263
  112OSM   H14S11646   4.283   2.322   9.227 -1.0168 -0.9898  1.3219
  112OSM   H14T11647   4.325   2.148   9.275  2.4596 -0.9914 -2.2831
  112OSM   C15S11648   4.488   2.248   9.180 -0.6420 -0.3722 -0.6063
  112OSM   H15S11649   4.469   2.216   9.076  0.5463 -3.4708  0.0409
  112OSM   H15T11650   4.561   2.171   9.212  0.1963  0.5481 -0.2291
  112OSM   C16S11651   4.570   2.371   9.192 -0.0471 -0.1284  0.0556
  112OSM   H16S11652   4.634   2.376   9.283  0.3311 -1.6108 -0.1026
  112OSM   H16T11653   4.507   2.462   9.182 -0.4757 -0.4392 -0.1026
  112OSM   C17S11654   4.679   2.377   9.078  0.5598  1.2016  0.0084
  112OSM   H17S11655   4.713   2.273   9.059  0.2182  1.4943 -2.5259
  112OSM   H17T11656   4.767   2.437   9.110  2.2283 -1.5802  0.9668
  112OSM   C18S11657   4.624   2.425   8.939 -0.3820  0.2779  0.8074
  112OSM   H18S11658   4.562   2.512   8.971  0.1290  0.3967  1.5113
  112OSM   H18T11659   4.561   2.346   8.893  1.3199 -0.2075 -0.8090
  112OSM   H18U11660   4.704   2.454   8.868  0.8340 -0.3115  1.8826
  112OSM    C1F11661   4.598   2.444  10.511  0.8116 -0.6439  0.0650
  112OSM     OF11662   4.638   2.348  10.572  0.6875 -0.1941 -0.1757
  112OSM    C2F11663   4.688   2.535  10.431  0.3974 -0.0009 -0.3846
  112OSM    H2F11664   4.702   2.632  10.484 -0.8046  0.8899 -1.6676
  112OSM    H2G11665   4.632   2.557  10.338 -0.4357 -0.9122 -0.1104
  112OSM    C3F11666   4.814   2.460  10.386 -0.3280  0.6706  0.2428
  112OSM    H3F11667   4.793   2.378  10.315 -1.3897  2.5107 -1.6986
  112OSM    H3G11668   4.871   2.423  10.474  2.5716  1.3401 -1.2013
  112OSM    C4F11669   4.921   2.542  10.302 -0.0546  1.2017 -0.8580
  112OSM    H4F11670   4.998   2.470  10.267  0.1925  1.6721 -1.2899
  112OSM    H4G11671   4.964   2.626  10.360  2.1987  1.6068 -2.9202
  112OSM    C5F11672   4.868   2.609  10.181  0.4616  0.1913 -0.2664
  112OSM    H5F11673   4.783   2.677  10.203  0.0834 -0.1783 -0.5645
  112OSM    H5G11674   4.838   2.529  10.110  0.5750  0.0212 -0.1232
  112OSM    C6F11675   4.982   2.696  10.120 -0.0100  0.4941 -0.4045
  112OSM    H6F11676   5.057   2.627  10.076 -0.6079 -0.8855  0.6536
  112OSM    H6G11677   5.026   2.754  10.203  0.7047  0.1718 -0.5520
  112OSM    C7F11678   4.931   2.797  10.017 -0.5431  0.1514 -0.5913
  112OSM    H7F11679   5.014   2.860   9.978 -0.1344 -0.8081 -1.3324
  112OSM    H7G11680   4.849   2.858  10.059 -0.3808 -0.4608  0.6762
  112OSM    C8F11681   4.888   2.726   9.891  1.1590  0.2331  0.2558
  112OSM    H8F11682   4.807   2.662   9.931  1.1540  0.7803  1.1599
  112OSM    H8G11683   4.965   2.659   9.848  0.0204 -1.3297  0.5860
  112OSM    C9F11684   4.833   2.816   9.780  0.7903  0.1648  0.7650
  112OSM    H9F11685   4.904   2.885   9.734  1.1032 -0.6138  0.0464
  112OSM   C10F11686   4.702   2.819   9.737 -0.0407  0.7684  1.0149
  112OSM   H10F11687   4.664   2.892   9.664 -0.1929  0.7409  1.0651
  112OSM   C11F11688   4.587   2.726   9.774  0.4582 -0.4048  0.6290
  112OSM   H11F11689   4.611   2.673   9.868 -1.2779  0.4604  1.5976
  112OSM   H11G11690   4.566   2.652   9.694 -0.2361 -1.5150  1.8229
  112OSM   C12F11691   4.468   2.823   9.794  0.9538  0.3962  0.2228
  112OSM   H12F11692   4.493   2.909   9.859  1.0547  0.1938  0.4521
  112OSM   H12G11693   4.397   2.755   9.846  2.4926  0.0055  1.8814
  112OSM   C13F11694   4.403   2.884   9.662  0.2888 -0.2130 -0.0358
  112OSM   H13F11695   4.476   2.962   9.631 -1.3971  0.5070 -2.4189
  112OSM   H13G11696   4.314   2.936   9.703  1.5590  0.8618  1.4917
  112OSM   C14F11697   4.369   2.784   9.557  0.2691  1.4335 -0.1492
  112OSM   H14F11698   4.328   2.694   9.607 -0.2077  1.5009 -0.4141
  112OSM   H14G11699   4.460   2.753   9.500  2.0167  1.3964  2.4888
  112OSM   C15F11700   4.268   2.844   9.452 -0.5093 -0.1208  0.0098
  112OSM   H15F11701   4.254   2.763   9.377  1.3356  0.6860 -1.2787
  112OSM   H15G11702   4.301   2.937   9.401 -2.6724  0.1370 -1.0472
  112OSM   C16F11703   4.137   2.878   9.508  0.3217  0.1360  0.4361
  112OSM   H16F11704   4.152   2.960   9.581  1.9161  0.7095 -0.4879
  112OSM   H16G11705   4.102   2.784   9.557 -2.2324  0.3740 -0.7828
  112OSM   C17F11706   4.029   2.904   9.402  0.4723 -0.0476 -0.0302
  112OSM   H17F11707   3.952   2.946   9.471 -0.8706 -2.9807  0.4032
  112OSM   H17G11708   3.985   2.811   9.361 -2.8802 -1.0164  4.8499
  112OSM   C18F11709   4.075   3.002   9.286  0.0401  0.1568 -0.7207
  112OSM   H18F11710   4.135   3.085   9.330 -0.5437 -0.6611  1.7515
  112OSM   H18G11711   3.984   3.047   9.239 -0.7914  0.0496  0.7467
  112OSM   H18H11712   4.131   2.952   9.204 -0.2382 -2.2939  0.4896
  113OSM      N11713   1.050   5.554  11.048  0.1085 -0.1182  0.2894
  113OSM    C1511714   1.109   5.422  11.079 -0.8952  0.1089 -0.2716
  113OSM   H15A11715   1.193   5.444  11.143  1.3158 -3.9547 -1.4192
  113OSM   H15B11716   1.164   5.371  11.001 -0.6543 -3.2489  1.8993
  113OSM   H15C11717   1.035   5.356  11.120 -1.8369 -0.5033 -2.7937
  113OSM    C1411718   0.961   5.523  10.922  0.2597  0.2908 -0.8142
  113OSM   H14A11719   0.880   5.460  10.956 -1.1301  0.4524 -3.5643
  113OSM   H14B11720   1.016   5.477  10.842  0.4535 -0.7036 -0.1176
  113OSM   H14C11721   0.901   5.607  10.889 -3.4215 -1.9434 -0.3277
  113OSM    C1311722   0.959   5.602  11.158 -0.0808  0.4543 -0.5082
  113OSM   H13A11723   0.897   5.681  11.119  1.0831  0.5452 -2.2492
  113OSM   H13B11724   1.018   5.628  11.245 -0.3508 -0.3458 -0.0746
  113OSM   H13C11725   0.887   5.529  11.195 -0.9020  0.1562 -2.5642
  113OSM    C1211726   1.149   5.656  11.014  0.2183 -0.5568  0.5011
  113OSM   H12A11727   1.103   5.747  10.981 -2.0416 -1.5655  0.7244
  113OSM   H12B11728   1.202   5.617  10.928 -0.0528 -0.5708  0.3405
  113OSM    C1111729   1.251   5.701  11.122 -0.0274 -0.2556  0.2265
  113OSM   H11A11730   1.198   5.748  11.206 -0.2817 -1.6815  0.8944
  113OSM   H11B11731   1.313   5.781  11.076  0.9659 -0.3693  1.3367
  113OSM      P11732   1.457   5.556  11.094 -0.3747 -0.5750  0.1993
  113OSM    O1311733   1.555   5.664  11.122 -0.1853  0.1061 -0.3683
  113OSM    O1411734   1.494   5.418  11.127  0.2194  0.5715 -0.0173
  113OSM    O1111735   1.423   5.545  10.937  0.4467 -0.4497  0.1308
  113OSM    O1211736   1.323   5.584  11.174 -0.3624 -0.5031 -0.5901
  113OSM    C1S11737   1.532   5.553  10.846 -0.4228 -0.3839  0.8743
  113OSM    H1S11738   1.612   5.485  10.882 -0.2352  0.1536  1.4882
  113OSM    H1T11739   1.566   5.659  10.843  1.3773 -0.9422  0.0090
  113OSM     NF11740   1.604   5.568  10.611  0.4828 -0.0870  0.9631
  113OSM    HNF11741   1.591   5.658  10.571 -0.6116 -1.0480 -1.0530
  113OSM    C2S11742   1.495   5.519  10.695 -0.4961 -0.1727  0.0433
  113OSM    H2S11743   1.492   5.408  10.692 -1.0314 -0.1503 -2.5655
  113OSM    C3S11744   1.354   5.566  10.656 -0.7306 -0.4242 -0.2517
  113OSM    H3S11745   1.339   5.674  10.674  1.3269 -0.1805  0.2808
  113OSM     O311746   1.247   5.515  10.734 -0.8363 -0.5970 -0.6416
  113OSM    HO311747   1.311   5.501  10.805 -1.3540  1.5317  0.3446
  113OSM    C4S11748   1.330   5.533  10.510  0.1688 -0.4217 -0.3307
  113OSM    H4S11749   1.284   5.434  10.498 -2.5165  0.1546  3.4907
  113OSM    C5S11750   1.340   5.617  10.401  0.0731 -0.2678 -0.1966
  113OSM    H5S11751   1.378   5.720  10.404  0.4594 -0.4136  1.7998
  113OSM    C6S11752   1.315   5.568  10.261 -0.4716  0.8341 -0.6188
  113OSM    H6S11753   1.257   5.651  10.215  1.5249  2.8766  0.3498
  113OSM    H6T11754   1.252   5.477  10.260  0.0425  0.4788 -0.8704
  113OSM    C7S11755   1.432   5.554  10.174 -0.6360  0.1041  0.4010
  113OSM    H7S11756   1.500   5.475  10.213  0.4326 -0.3288 -2.0906
  113OSM    H7T11757   1.487   5.651  10.174 -1.1398  0.3916  0.0392
  113OSM    C8S11758   1.387   5.511  10.032 -0.1371 -0.0189  1.0239
  113OSM    H8S11759   1.319   5.586   9.986 -2.0456 -1.8617  0.7081
  113OSM    H8T11760   1.329   5.418  10.053 -0.3957  0.3153  1.8308
  113OSM    C9S11761   1.501   5.481   9.929 -1.0907 -0.0046 -0.4823
  113OSM    H9S11762   1.581   5.421   9.978 -0.8583  1.8772  1.6083
  113OSM    H9T11763   1.552   5.578   9.910  1.0935 -0.9808  0.0366
  113OSM   C10S11764   1.453   5.425   9.796  0.6782  0.2220 -0.4787
  113OSM   H10S11765   1.372   5.476   9.739  2.2078  2.2584 -0.9575
  113OSM   H10T11766   1.418   5.319   9.802 -0.6341  0.5552 -1.6684
  113OSM   C11S11767   1.566   5.437   9.698  0.4440  0.0873  0.1114
  113OSM   H11S11768   1.651   5.375   9.733  0.1628 -0.1381  0.3953
  113OSM   H11T11769   1.598   5.542   9.678 -0.6375  0.6448  1.2047
  113OSM   C12S11770   1.521   5.393   9.557  0.0048  0.7652  0.1499
  113OSM   H12S11771   1.413   5.414   9.550 -0.7771 -3.0045 -1.7405
  113OSM   H12T11772   1.523   5.282   9.546 -1.0142  0.7307  0.2142
  113OSM   C13S11773   1.598   5.460   9.450  0.3675  0.0271  0.1676
  113OSM   H13S11774   1.704   5.425   9.447  0.7676  1.1971  0.0679
  113OSM   H13T11775   1.606   5.568   9.476  0.1632  0.3409 -1.0022
  113OSM   C14S11776   1.538   5.443   9.309  0.0453 -0.0555  0.4271
  113OSM   H14S11777   1.437   5.489   9.312 -0.6306 -1.4563 -0.0034
  113OSM   H14T11778   1.525   5.333   9.307 -2.8364  0.1504  2.0934
  113OSM   C15S11779   1.631   5.488   9.200 -0.2212 -0.3465  0.1321
  113OSM   H15S11780   1.734   5.447   9.206  0.1200  0.3868 -0.4853
  113OSM   H15T11781   1.642   5.598   9.214 -1.6054 -0.0585 -0.7650
  113OSM   C16S11782   1.579   5.468   9.054 -0.0593  0.6360 -0.2210
  113OSM   H16S11783   1.489   5.531   9.038 -1.4616 -1.2279  0.1106
  113OSM   H16T11784   1.561   5.364   9.021  1.7552 -0.4626  1.9304
  113OSM   C17S11785   1.693   5.529   8.960  0.2890 -0.2189 -0.2482
  113OSM   H17S11786   1.781   5.464   8.981 -0.0610 -0.3628  0.8517
  113OSM   H17T11787   1.708   5.633   8.995  0.2438  0.0663 -1.0524
  113OSM   C18S11788   1.655   5.528   8.807  0.1073  0.0237 -0.0129
  113OSM   H18S11789   1.717   5.588   8.738 -0.5894 -1.7984 -2.3465
  113OSM   H18T11790   1.551   5.567   8.819  0.2527 -0.1630  2.5662
  113OSM   H18U11791   1.644   5.427   8.762 -0.3971  0.2412 -0.3834
  113OSM    C1F11792   1.721   5.501  10.598  0.7995 -0.6256  0.2666
  113OSM     OF11793   1.753   5.413  10.680  0.2655  0.4835  0.0605
  113OSM    C2F11794   1.821   5.553  10.494  0.4299  0.4386  0.5292
  113OSM    H2F11795   1.918   5.506  10.522  0.1289  1.2849  3.2838
  113OSM    H2G11796   1.823   5.662  10.513 -0.7389  0.3736  1.0917
  113OSM    C3F11797   1.776   5.514  10.350  0.6681 -0.3072 -0.5025
  113OSM    H3F11798   1.672   5.554  10.339  1.1298  0.9639 -0.4553
  113OSM    H3G11799   1.766   5.404  10.351 -0.2390 -0.2366  0.2887
  113OSM    C4F11800   1.880   5.556  10.236 -0.0430 -0.0842 -0.4134
  113OSM    H4F11801   1.971   5.492  10.244  1.7747  2.2809 -1.1722
  113OSM    H4G11802   1.915   5.660  10.250 -2.5016  0.6993  0.3449
  113OSM    C5F11803   1.812   5.564  10.092 -0.9433 -0.1142 -0.4433
  113OSM    H5F11804   1.738   5.646  10.091 -0.4336  0.4292  1.5439
  113OSM    H5G11805   1.767   5.466  10.066 -0.8484 -0.0532 -0.8414
  113OSM    C6F11806   1.926   5.591   9.996  0.5322  0.1379 -0.3014
  113OSM    H6F11807   2.008   5.517  10.004  0.3071  0.0462  1.6839
  113OSM    H6G11808   1.977   5.688  10.015 -0.9425  0.5998  1.7855
  113OSM    C7F11809   1.873   5.599   9.850  0.6480  0.8648 -0.1060
  113OSM    H7F11810   1.774   5.648   9.841  0.2126 -0.0317 -0.3544
  113OSM    H7G11811   1.849   5.493   9.828 -0.0805  1.5497 -3.0400
  113OSM    C8F11812   1.977   5.659   9.759  0.8939  0.7318  0.1529
  113OSM    H8F11813   2.070   5.599   9.754  1.1363  1.1239 -0.1219
  113OSM    H8G11814   1.999   5.762   9.793  0.7624  0.6097  0.6084
  113OSM    C9F11815   1.902   5.670   9.628  0.5560  0.0526 -0.0875
  113OSM    H9F11816   1.804   5.719   9.634  0.2056 -0.6545  0.0351
  113OSM   C10F11817   1.937   5.603   9.510 -0.3970 -0.5421 -0.5345
  113OSM   H10F11818   1.872   5.628   9.425 -0.1099  1.0916 -0.3040
  113OSM   C11F11819   2.045   5.502   9.483 -0.8762 -0.3861  0.6223
  113OSM   H11F11820   2.002   5.410   9.438  2.3745 -2.3860  1.2508
  113OSM   H11G11821   2.099   5.464   9.573 -1.2442 -1.5343  0.3779
  113OSM   C12F11822   2.162   5.546   9.391 -0.4543  0.9300  0.6867
  113OSM   H12F11823   2.218   5.458   9.355 -3.0234  0.2592 -2.0661
  113OSM   H12G11824   2.230   5.617   9.444 -0.4915 -0.1722  2.2625
  113OSM   C13F11825   2.104   5.611   9.261 -0.1199 -0.1971  0.5246
  113OSM   H13F11826   2.083   5.718   9.283  2.0224  0.4841 -0.5059
  113OSM   H13G11827   2.001   5.573   9.246 -0.5478  1.4121 -0.8333
  113OSM   C14F11828   2.197   5.600   9.139 -0.2121  0.4809  0.0979
  113OSM   H14F11829   2.206   5.493   9.112 -1.3022  0.3790  0.0983
  113OSM   H14G11830   2.297   5.641   9.165 -0.5003 -0.4652  3.0818
  113OSM   C15F11831   2.155   5.684   9.021 -0.0655 -0.2342  0.9421
  113OSM   H15F11832   2.245   5.691   8.957 -1.2961 -0.1402 -0.8499
  113OSM   H15G11833   2.141   5.789   9.056 -1.2213  0.1302 -0.4966
  113OSM   C16F11834   2.035   5.627   8.948  0.5488  0.3462  0.2219
  113OSM   H16F11835   1.951   5.634   9.021 -1.1521  1.4829 -1.7429
  113OSM   H16G11836   2.058   5.521   8.926 -0.9744 -0.3579  1.7455
  113OSM   C17F11837   1.993   5.711   8.823  0.0530 -0.3080  0.9732
  113OSM   H17F11838   1.977   5.815   8.858 -0.6579 -0.2380  0.4607
  113OSM   H17G11839   1.895   5.678   8.782  0.5407  0.0566 -0.5305
  113OSM   C18F11840   2.084   5.694   8.696  1.1268 -0.1237  0.0402
  113OSM   H18F11841   2.053   5.770   8.622  1.7729  2.0895  1.9326
  113OSM   H18G11842   2.069   5.596   8.645 -1.3193 -0.1837  0.7334
  113OSM   H18H11843   2.191   5.696   8.727  0.8846  0.1949  0.8964
  114OSM      N11844   3.294   2.277  11.137 -0.0143  0.5413 -0.1901
  114OSM    C1511845   3.331   2.406  11.209 -0.2176 -0.1011 -0.7904
  114OSM   H15A11846   3.261   2.412  11.291  0.3028  0.7032 -0.3951
  114OSM   H15B11847   3.322   2.493  11.146  3.9893  3.2798  2.6509
  114OSM   H15C11848   3.434   2.398  11.241  0.3097  0.5194 -2.2392
  114OSM    C1411849   3.156   2.298  11.081 -0.2872 -0.1514 -0.4209
  114OSM   H14A11850   3.148   2.369  11.000 -0.1021  0.1250 -0.1986
  114OSM   H14B11851   3.077   2.310  11.153  1.5843 -0.7453  1.8320
  114OSM   H14C11852   3.133   2.204  11.033  2.6392 -0.7605 -0.8608
  114OSM    C1311853   3.387   2.259  11.023 -0.0620 -1.1554 -0.0734
  114OSM   H13A11854   3.354   2.186  10.951 -1.3571 -0.0499 -0.6297
  114OSM   H13B11855   3.480   2.218  11.062 -0.3854 -0.0217  2.0764
  114OSM   H13C11856   3.422   2.348  10.972  0.8711 -1.1766  0.4931
  114OSM    C1211857   3.305   2.163  11.232 -0.1621 -0.1727 -0.0455
  114OSM   H12A11858   3.275   2.198  11.329 -0.1149  0.3206 -0.2075
  114OSM   H12B11859   3.407   2.134  11.250  0.0538 -0.0861 -1.0492
  114OSM    C1111860   3.217   2.038  11.199  0.6147  0.8434 -0.2116
  114OSM   H11A11861   3.110   2.052  11.173  0.7859 -0.0130 -1.4914
  114OSM   H11B11862   3.218   1.970  11.287 -0.3751 -0.3026 -1.0497
  114OSM      P11863   3.374   1.839  11.123 -0.1671 -0.4532  0.1474
  114OSM    O1311864   3.499   1.892  11.185  0.5038 -0.0611  0.5490
  114OSM    O1411865   3.303   1.732  11.197 -0.5181 -0.1621 -0.3232
  114OSM    O1111866   3.416   1.789  10.979  0.0292 -0.2916 -0.2786
  114OSM    O1211867   3.270   1.957  11.088  0.3230 -0.0870  0.2930
  114OSM    C1S11868   3.420   1.881  10.871  0.0085  0.5165 -0.6609
  114OSM    H1S11869   3.466   1.974  10.911 -1.5739  1.4362 -0.9024
  114OSM    H1T11870   3.317   1.900  10.834 -0.5419  0.9122  0.9977
  114OSM     NF11871   3.539   1.912  10.650 -0.1731 -0.4842 -0.1752
  114OSM    HNF11872   3.500   1.902  10.559  0.2627 -0.0281 -0.4181
  114OSM    C2S11873   3.521   1.825  10.763  0.0406 -0.3064  0.1349
  114OSM    H2S11874   3.612   1.806  10.824  0.6572 -1.0993 -0.9979
  114OSM    C3S11875   3.484   1.682  10.709 -0.0115 -0.4857  0.4342
  114OSM    H3S11876   3.391   1.684  10.649  0.9122 -0.8872 -1.0726
  114OSM     O311877   3.458   1.589  10.808 -1.0553  0.2219 -0.2339
  114OSM    HO311878   3.465   1.636  10.892  1.8585 -2.0499  0.9581
  114OSM    C4S11879   3.591   1.626  10.623 -0.1219  0.2723  0.3999
  114OSM    H4S11880   3.679   1.606  10.685 -0.0571  1.3556  0.6940
  114OSM    C5S11881   3.584   1.607  10.486 -0.2948  0.3959 -0.1538
  114OSM    H5S11882   3.492   1.631  10.431 -0.1944  2.3055  0.4448
  114OSM    C6S11883   3.695   1.550  10.409  0.0909 -0.0492  0.3425
  114OSM    H6S11884   3.723   1.445  10.435  1.2987  0.4365  1.0647
  114OSM    H6T11885   3.792   1.597  10.436  0.5162 -0.9984  0.5255
  114OSM    C7S11886   3.667   1.551  10.253 -0.4632 -1.0647 -0.2629
  114OSM    H7S11887   3.622   1.646  10.216  1.6773 -0.4012 -1.2835
  114OSM    H7T11888   3.581   1.483  10.236 -0.8175 -1.3766  2.3362
  114OSM    C8S11889   3.791   1.513  10.173 -0.0158  0.4883  0.1960
  114OSM    H8S11890   3.844   1.435  10.231  0.3231  0.7575  0.2490
  114OSM    H8T11891   3.866   1.594  10.162 -0.8600  1.4698  1.3442
  114OSM    C9S11892   3.759   1.468  10.033  0.4216 -0.3499  0.0774
  114OSM    H9S11893   3.664   1.410  10.036 -0.5244  1.0978 -0.7092
  114OSM    H9T11894   3.837   1.402   9.988  0.3258 -0.4242  0.0201
  114OSM   C10S11895   3.745   1.582   9.934  0.1033 -0.4068 -0.3136
  114OSM   H10S11896   3.826   1.657   9.950 -0.3315 -0.1581  0.8392
  114OSM   H10T11897   3.647   1.628   9.959  0.5298 -0.4833  1.6872
  114OSM   C11S11898   3.740   1.536   9.790 -0.3520 -0.4609 -0.2678
  114OSM   H11S11899   3.655   1.464   9.790 -0.3251 -0.6208  3.1390
  114OSM   H11T11900   3.835   1.489   9.758  0.6906  1.6642 -0.4512
  114OSM   C12S11901   3.714   1.653   9.697 -0.3742 -0.2720  0.8179
  114OSM   H12S11902   3.799   1.723   9.715 -0.2059  0.2326 -1.6208
  114OSM   H12T11903   3.619   1.699   9.732 -0.9186  0.2321 -1.2018
  114OSM   C13S11904   3.704   1.613   9.552 -0.4763 -0.5120  0.8224
  114OSM   H13S11905   3.649   1.695   9.502  0.6643  0.7427  1.5235
  114OSM   H13T11906   3.639   1.524   9.540  0.1786 -0.7123 -1.7767
  114OSM   C14S11907   3.841   1.584   9.485  1.4534  0.1681  0.8029
  114OSM   H14S11908   3.886   1.501   9.542  0.4677 -1.1625 -0.3078
  114OSM   H14T11909   3.904   1.676   9.488 -1.1765  2.0945  1.4136
  114OSM   C15S11910   3.815   1.526   9.340 -0.1732 -0.4734  0.4591
  114OSM   H15S11911   3.746   1.441   9.359  0.6178 -0.7939  2.0606
  114OSM   H15T11912   3.916   1.499   9.301  0.5861  1.3373  1.0641
  114OSM   C16S11913   3.755   1.610   9.234 -0.2146 -0.0867  0.6542
  114OSM   H16S11914   3.807   1.708   9.229  0.6877 -0.4774  1.7922
  114OSM   H16T11915   3.647   1.629   9.252 -0.2307  0.7799 -0.2655
  114OSM   C17S11916   3.767   1.547   9.093 -0.1107  0.4338 -0.0314
  114OSM   H17S11917   3.740   1.440   9.104 -0.2444  0.5623  1.0357
  114OSM   H17T11918   3.868   1.548   9.047 -0.8400  1.7071 -1.7440
  114OSM   C18S11919   3.671   1.615   8.997  0.1252 -0.3125 -0.3707
  114OSM   H18S11920   3.714   1.716   8.983  2.0431 -1.0821 -0.3593
  114OSM   H18T11921   3.574   1.604   9.050  0.8968 -1.2945  0.9295
  114OSM   H18U11922   3.661   1.566   8.898 -0.3922  1.5323 -1.2744
  114OSM    C1F11923   3.572   2.041  10.675  0.5175  0.2304 -0.1289
  114OSM     OF11924   3.620   2.073  10.788  0.1987  0.7572 -0.6965
  114OSM    C2F11925   3.532   2.147  10.582 -0.1312  0.3176 -0.0808
  114OSM    H2F11926   3.499   2.236  10.639 -2.4050 -0.4958 -0.0011
  114OSM    H2G11927   3.439   2.129  10.525 -0.4126  1.7921 -0.1220
  114OSM    C3F11928   3.639   2.191  10.484  0.1207 -0.2817 -0.5038
  114OSM    H3F11929   3.628   2.121  10.398 -0.7080  0.4084 -0.9761
  114OSM    H3G11930   3.738   2.165  10.527  1.9726  2.5185 -2.7147
  114OSM    C4F11931   3.628   2.333  10.437  0.0280 -0.0490  0.4530
  114OSM    H4F11932   3.626   2.398  10.528  0.8075  2.7957 -1.4296
  114OSM    H4G11933   3.531   2.348  10.385  0.7817 -0.0699 -0.9819
  114OSM    C5F11934   3.750   2.375  10.352  1.0616 -0.0418 -0.5186
  114OSM    H5F11935   3.771   2.311  10.263  0.6030 -0.2702 -0.4627
  114OSM    H5G11936   3.839   2.382  10.418  1.2515 -0.2448 -0.7502
  114OSM    C6F11937   3.726   2.525  10.310  0.4638 -1.0047 -0.0280
  114OSM    H6F11938   3.733   2.589  10.401  0.0284 -0.0855 -0.6229
  114OSM    H6G11939   3.621   2.538  10.275  0.2067  0.3923  1.1511
  114OSM    C7F11940   3.820   2.589  10.204 -0.5486  1.5008 -0.0706
  114OSM    H7F11941   3.922   2.581  10.248  0.1805  1.2658 -1.7628
  114OSM    H7G11942   3.802   2.699  10.207  1.1055  1.8345 -1.2896
  114OSM    C8F11943   3.834   2.525  10.066  0.2057 -0.5620  0.4398
  114OSM    H8F11944   3.849   2.415  10.069 -0.0172 -0.7444 -2.4950
  114OSM    H8G11945   3.918   2.577  10.016  0.7227 -1.1621  0.6778
  114OSM    C9F11946   3.705   2.546   9.995  0.9002  0.6402 -0.2450
  114OSM    H9F11947   3.631   2.474  10.034 -1.5263  1.8824 -2.2534
  114OSM   C10F11948   3.674   2.620   9.885  0.0672 -0.4021  0.0741
  114OSM   H10F11949   3.577   2.605   9.834 -0.5070 -2.1625  1.5835
  114OSM   C11F11950   3.778   2.709   9.816  0.3526  0.8222  0.0488
  114OSM   H11F11951   3.875   2.716   9.869  1.2842  1.1099 -1.6514
  114OSM   H11G11952   3.741   2.814   9.821  0.1882  0.8340 -1.1753
  114OSM   C12F11953   3.799   2.658   9.673  0.3119  0.5709  0.5130
  114OSM   H12F11954   3.856   2.720   9.601 -0.2685 -0.3592 -0.7869
  114OSM   H12G11955   3.699   2.650   9.627  0.2180 -2.3771  1.0306
  114OSM   C13F11956   3.871   2.522   9.668  0.0062  0.3155 -0.7599
  114OSM   H13F11957   3.812   2.464   9.743 -1.5948  1.5398 -1.0109
  114OSM   H13G11958   3.974   2.533   9.707 -0.0055  0.9232 -0.8955
  114OSM   C14F11959   3.886   2.442   9.528 -0.4103  1.0011 -0.5316
  114OSM   H14F11960   3.781   2.427   9.493 -0.4780 -0.3198  0.1822
  114OSM   H14G11961   3.933   2.346   9.559  1.4060  1.0815 -2.7838
  114OSM   C15F11962   3.966   2.517   9.415 -0.3937  0.5349 -0.1632
  114OSM   H15F11963   4.062   2.553   9.459 -0.5417 -0.3073  0.8864
  114OSM   H15G11964   3.905   2.608   9.395  0.9520  1.5094  0.0800
  114OSM   C16F11965   3.977   2.438   9.280  0.2749  0.1001 -1.0454
  114OSM   H16F11966   3.880   2.388   9.265 -0.4669 -0.0215  3.0046
  114OSM   H16G11967   4.059   2.365   9.294  0.1910  0.0300 -0.9177
  114OSM   C17F11968   4.005   2.526   9.154 -0.1584  0.0841  0.1066
  114OSM   H17F11969   4.101   2.582   9.155  0.4661 -0.7319 -3.0637
  114OSM   H17G11970   3.931   2.608   9.161  0.9824  1.0554  1.2130
  114OSM   C18F11971   4.000   2.454   9.022  0.8682 -0.0111 -0.4847
  114OSM   H18F11972   4.074   2.372   9.009 -0.0104 -0.9750  0.4029
  114OSM   H18G11973   4.021   2.528   8.942  1.0671 -1.2808 -1.6637
  114OSM   H18H11974   3.902   2.405   9.006  1.9041 -2.2907 -0.2459
  115OSM      N11975   0.730   1.649  10.943  0.5131 -0.2276  0.4776
  115OSM    C1511976   0.609   1.650  10.850 -0.4331  0.4019 -0.1906
  115OSM   H15A11977   0.591   1.738  10.790  0.4843  0.0948 -0.9326
  115OSM   H15B11978   0.520   1.643  10.911  0.1051  2.2969  0.9029
  115OSM   H15C11979   0.610   1.557  10.796 -2.2966 -0.0056  0.4133
  115OSM    C1411980   0.729   1.511  11.008  0.6633  0.2060 -0.1870
  115OSM   H14A11981   0.819   1.495  11.066  0.4447  1.3104  0.4902
  115OSM   H14B11982   0.730   1.441  10.926  0.1775 -0.9362  0.7350
  115OSM   H14C11983   0.643   1.485  11.069  0.0398 -0.0578 -1.1535
  115OSM    C1311984   0.851   1.671  10.855 -0.5040 -0.0456  0.0460
  115OSM   H13A11985   0.936   1.658  10.921  0.0786  4.1331  0.3536
  115OSM   H13B11986   0.863   1.768  10.810  2.2018 -0.4379 -0.2660
  115OSM   H13C11987   0.853   1.590  10.784  2.4731  0.3769 -0.4766
  115OSM    C1211988   0.719   1.764  11.039  1.2063  0.6240  0.2686
  115OSM   H12A11989   0.812   1.767  11.093  1.9963  2.2841 -1.0713
  115OSM   H12B11990   0.639   1.743  11.108 -1.5546 -1.0360 -3.0902
  115OSM    C1111991   0.695   1.902  10.981  0.6511  0.1158 -0.6340
  115OSM   H11A11992   0.776   1.914  10.906  1.2521  1.5386  0.2047
  115OSM   H11B11993   0.710   1.985  11.052  0.5372  2.6762 -3.4073
  115OSM      P11994   0.434   1.934  10.984  0.1161  0.3974 -0.1129
  115OSM    O1311995   0.412   1.799  11.036 -0.2531  0.1076 -0.4476
  115OSM    O1411996   0.445   2.041  11.080  0.7010 -0.3941  0.1142
  115OSM    O1111997   0.319   1.982  10.876 -0.8143  0.4962  0.1459
  115OSM    O1211998   0.572   1.922  10.906 -0.5854 -0.2385  0.2839
  115OSM    C1S11999   0.348   1.953  10.742 -0.6223 -0.0419  0.1935
  115OSM    H1S12000   0.410   1.862  10.725 -0.4582  0.4413 -2.2040
  115OSM    H1T12001   0.397   2.039  10.692 -1.6283  0.8353  0.6901
  115OSM     NF12002   0.242   1.908  10.528 -0.3874 -0.4427  1.0414
  115OSM    HNF12003   0.237   1.989  10.471 -1.0374 -1.6221 -0.6578
  115OSM    C2S12004   0.209   1.915  10.669  0.3338 -0.4246  0.7464
  115OSM    H2S12005   0.180   1.821  10.719  0.4161 -0.1770  1.2650
  115OSM    C3S12006   0.089   2.013  10.700 -0.1303 -0.1898 -0.2788
  115OSM    H3S12007   0.123   2.119  10.692  0.5743 -0.4571 -1.0292
  115OSM     O312008   0.057   2.023  10.839 -0.4912  0.3051 -0.4946
  115OSM    HO312009   0.133   1.982  10.880 -2.0363 -0.2154  2.0488
  115OSM    C4S12010  -0.024   1.980  10.610 -0.1650  0.6221  0.5867
  115OSM    H4S12011  -0.031   2.037  10.516 -1.9565 -0.1528  0.2028
  115OSM    C5S12012  -0.122   1.888  10.632  0.5855 -0.2100  0.4048
  115OSM    H5S12013  -0.128   1.830  10.725 -0.8742 -1.7219 -0.5944
  115OSM    C6S12014  -0.240   1.860  10.540  0.2100 -0.2014  0.3721
  115OSM    H6S12015  -0.336   1.894  10.585 -1.0669 -1.3464 -1.3382
  115OSM    H6T12016  -0.252   1.750  10.534  2.1275 -0.5117  1.3850
  115OSM    C7S12017  -0.247   1.920  10.396  0.1756  0.2187 -0.3226
  115OSM    H7S12018  -0.151   1.923  10.341  0.4209 -0.2425  0.0652
  115OSM    H7T12019  -0.296   2.019  10.394 -0.7085 -0.1456  1.4086
  115OSM    C8S12020  -0.342   1.845  10.302 -0.3286 -0.3638 -0.0810
  115OSM    H8S12021  -0.448   1.857  10.334  0.3153 -1.1778  2.5668
  115OSM    H8T12022  -0.323   1.735  10.310  0.6303 -0.2502 -0.6175
  115OSM    C9S12023  -0.333   1.884  10.152 -0.6025  0.3376  0.6090
  115OSM    H9S12024  -0.373   1.809  10.081 -0.0401  2.1303 -1.7160
  115OSM    H9T12025  -0.228   1.910  10.128 -0.4484  0.0154  0.9266
  115OSM   C10S12026  -0.419   2.015  10.119  0.3306 -0.1276  0.1228
  115OSM   H10S12027  -0.404   2.091  10.198 -2.3360  0.2516  0.3579
  115OSM   H10T12028  -0.522   1.977  10.134  0.2038  0.4882  0.8293
  115OSM   C11S12029  -0.414   2.076   9.976 -0.4556 -0.2765  0.2633
  115OSM   H11S12030  -0.312   2.119   9.968 -0.2375 -0.7608  0.4464
  115OSM   H11T12031  -0.478   2.166   9.962 -0.0526 -0.0145  0.0778
  115OSM   C12S12032  -0.415   1.972   9.866 -0.6494 -0.3119  0.1058
  115OSM   H12S12033  -0.522   1.944   9.852 -1.3499  1.0313  2.2069
  115OSM   H12T12034  -0.356   1.881   9.891 -2.4039 -1.6941 -0.5556
  115OSM   C13S12035  -0.357   2.028   9.736 -0.3214 -0.0070  0.5309
  115OSM   H13S12036  -0.250   2.040   9.765 -0.1516 -0.4507  0.1153
  115OSM   H13T12037  -0.397   2.129   9.713  1.9722  1.2694  1.7865
  115OSM   C14S12038  -0.354   1.922   9.623  0.5729 -0.3039  0.5888
  115OSM   H14S12039  -0.458   1.889   9.602 -0.0623 -0.1046  3.1333
  115OSM   H14T12040  -0.305   1.831   9.662  0.3547 -0.0406  1.4879
  115OSM   C15S12041  -0.267   1.971   9.502  0.1050 -0.3160 -0.8424
  115OSM   H15S12042  -0.165   2.005   9.530  0.0201 -0.9020  0.2489
  115OSM   H15T12043  -0.317   2.064   9.468 -1.7486 -0.7011  0.6435
  115OSM   C16S12044  -0.258   1.872   9.388  0.2175  0.7668  0.3056
  115OSM   H16S12045  -0.366   1.858   9.368  0.0017  0.2768  1.7110
  115OSM   H16T12046  -0.215   1.781   9.434 -1.3463 -0.4216 -0.4945
  115OSM   C17S12047  -0.187   1.921   9.265  0.2593 -0.1983 -0.1191
  115OSM   H17S12048  -0.196   1.846   9.183  0.6580 -0.6317  0.2328
  115OSM   H17T12049  -0.082   1.921   9.302 -0.0640  0.9015  0.8452
  115OSM   C18S12050  -0.234   2.058   9.211 -0.2825 -0.4777 -0.1098
  115OSM   H18S12051  -0.164   2.092   9.131 -1.4570 -3.3514 -2.5409
  115OSM   H18T12052  -0.243   2.134   9.291  0.1438 -0.8138  0.2686
  115OSM   H18U12053  -0.334   2.051   9.164 -0.6090  2.0674  0.0711
  115OSM    C1F12054   0.329   1.815  10.487  0.2571 -0.1203 -0.1762
  115OSM     OF12055   0.340   1.710  10.555 -0.7126 -0.0785 -0.2571
  115OSM    C2F12056   0.411   1.841  10.365  0.0632  0.5388  0.0005
  115OSM    H2F12057   0.487   1.918  10.389  1.9117 -0.8893 -0.9900
  115OSM    H2G12058   0.341   1.884  10.290 -0.9215  0.9919  1.1506
  115OSM    C3F12059   0.466   1.704  10.314  0.3476 -0.3152 -0.6843
  115OSM    H3F12060   0.383   1.633  10.298 -0.2208  0.4779 -1.3515
  115OSM    H3G12061   0.526   1.660  10.396 -1.9962 -1.5554  0.4503
  115OSM    C4F12062   0.556   1.719  10.193  0.1596 -0.5163  0.3412
  115OSM    H4F12063   0.630   1.637  10.203 -0.2361 -0.8901  0.2823
  115OSM    H4G12064   0.613   1.814  10.198  1.0205 -0.9002 -1.4888
  115OSM    C5F12065   0.488   1.714  10.059  0.4933 -0.1053 -0.2466
  115OSM    H5F12066   0.406   1.787  10.078 -1.8077 -2.1282 -1.7242
  115OSM    H5G12067   0.447   1.612  10.047 -1.5623  0.4322  1.4887
  115OSM    C6F12068   0.574   1.752   9.937 -0.3637 -0.5387  0.0920
  115OSM    H6F12069   0.673   1.701   9.932  0.2752  0.7265 -0.9176
  115OSM    H6G12070   0.585   1.862   9.950  1.9613 -0.8040  0.8538
  115OSM    C7F12071   0.509   1.721   9.806  0.2606  0.2659 -0.1857
  115OSM    H7F12072   0.413   1.777   9.798 -0.4346 -0.9673 -0.6821
  115OSM    H7G12073   0.499   1.612   9.790 -0.4033  0.1637  0.8142
  115OSM    C8F12074   0.571   1.781   9.678 -0.4629  0.1265 -0.2936
  115OSM    H8F12075   0.585   1.891   9.677 -1.9441  0.3407 -2.0663
  115OSM    H8G12076   0.500   1.775   9.593  0.3499 -1.1563 -0.9165
  115OSM    C9F12077   0.703   1.718   9.626 -0.2914  0.3104 -0.1116
  115OSM    H9F12078   0.765   1.677   9.708  0.1368  0.9902 -0.0917
  115OSM   C10F12079   0.727   1.685   9.500 -0.0757  0.6387  0.0552
  115OSM   H10F12080   0.822   1.636   9.473 -1.7394 -2.9761  0.2198
  115OSM   C11F12081   0.640   1.716   9.385  0.5533  0.3203  0.5019
  115OSM   H11F12082   0.567   1.798   9.397 -0.4143 -0.1123 -1.7950
  115OSM   H11G12083   0.577   1.625   9.372 -0.7428  1.1190  1.0989
  115OSM   C12F12084   0.722   1.735   9.257  0.5444  0.2399 -0.0272
  115OSM   H12F12085   0.777   1.641   9.234 -3.7949 -2.2378 -1.4100
  115OSM   H12G12086   0.782   1.828   9.269 -1.0310  1.1506  1.2116
  115OSM   C13F12087   0.632   1.748   9.140  0.7786 -0.5086 -0.5580
  115OSM   H13F12088   0.547   1.817   9.154 -0.7570 -2.4391  0.1189
  115OSM   H13G12089   0.585   1.649   9.122 -1.7730  0.8453 -1.8327
  115OSM   C14F12090   0.696   1.796   9.012  0.1557  0.4522  0.2527
  115OSM   H14F12091   0.628   1.781   8.925  0.5005  2.6491 -0.4493
  115OSM   H14G12092   0.780   1.724   8.996 -1.3432 -1.9669  2.4629
  115OSM   C15F12093   0.722   1.948   8.983 -0.3006 -0.0867 -0.4682
  115OSM   H15F12094   0.809   1.975   9.047  0.8591 -2.3580 -0.9712
  115OSM   H15G12095   0.631   2.010   8.992  0.9061  1.7721 -0.4838
  115OSM   C16F12096   0.785   1.973   8.845 -0.8885  0.1530  0.3264
  115OSM   H16F12097   0.736   1.904   8.773 -1.3835 -0.0046  0.8033
  115OSM   H16G12098   0.892   1.945   8.851 -1.1849 -0.8511  1.1617
  115OSM   C17F12099   0.761   2.110   8.785 -0.7214 -0.1165 -0.3979
  115OSM   H17F12100   0.839   2.137   8.712  0.9495 -2.0097  0.5750
  115OSM   H17G12101   0.763   2.188   8.864 -1.4688 -0.0698 -0.4176
  115OSM   C18F12102   0.630   2.125   8.708  0.6102 -0.2214  0.2464
  115OSM   H18F12103   0.614   2.228   8.669 -0.1941  0.5916  2.5488
  115OSM   H18G12104   0.539   2.097   8.765  0.5222 -1.0860 -0.2999
  115OSM   H18H12105   0.644   2.064   8.616 -1.9081  0.7369 -0.8784
  116OSM      N12106   3.262   5.150  11.022  0.1750 -0.4013 -0.0656
  116OSM    C1512107   3.407   5.183  11.006  0.1893  0.4699 -0.0017
  116OSM   H15A12108   3.462   5.102  10.961 -1.3324 -0.1049 -0.9219
  116OSM   H15B12109   3.455   5.189  11.103  0.6199  3.4026 -0.3014
  116OSM   H15C12110   3.424   5.276  10.953 -0.3044  1.3890  1.3897
  116OSM    C1412111   3.203   5.257  11.114 -0.4386  0.9297 -0.1303
  116OSM   H14A12112   3.216   5.354  11.069  0.2813  0.1701 -1.6344
  116OSM   H14B12113   3.242   5.252  11.215  0.2504  1.9201 -0.3296
  116OSM   H14C12114   3.097   5.244  11.131 -0.9461  2.4381 -1.7446
  116OSM    C1312115   3.197   5.153  10.888  0.9889  1.3175  0.1021
  116OSM   H13A12116   3.093   5.123  10.886  1.4053 -0.3366  1.2456
  116OSM   H13B12117   3.246   5.084  10.821 -1.5905  0.4805 -1.0263
  116OSM   H13C12118   3.197   5.254  10.849 -0.4648  1.3107  0.0306
  116OSM    C1212119   3.234   5.008  11.079 -0.6690  0.1847 -0.6834
  116OSM   H12A12120   3.295   4.993  11.167 -0.9094 -0.5488 -0.6356
  116OSM   H12B12121   3.271   4.935  11.008 -0.2190  0.8124 -1.1063
  116OSM    C1112122   3.090   4.965  11.115 -0.1524  0.3515  0.1289
  116OSM   H11A12123   3.014   5.000  11.042  1.7260  0.0397 -2.1048
  116OSM   H11B12124   3.060   5.032  11.198 -3.0268  1.3024 -1.5442
  116OSM      P12125   3.129   4.702  11.085  0.0850 -0.6473  0.0458
  116OSM    O1312126   3.270   4.686  11.141  0.0827 -0.1382  0.0735
  116OSM    O1412127   3.034   4.590  11.088 -0.0514 -0.5141 -0.0338
  116OSM    O1112128   3.141   4.748  10.934 -0.2243 -0.7989  0.5661
  116OSM    O1212129   3.067   4.832  11.152 -0.6831 -0.3131  0.1985
  116OSM    C1S12130   3.238   4.680  10.855 -0.5533  0.7400  0.2532
  116OSM    H1S12131   3.251   4.573  10.883  0.1725  1.2237  1.9588
  116OSM    H1T12132   3.342   4.713  10.878 -0.2740  0.8495 -1.1221
  116OSM     NF12133   3.312   4.599  10.626  0.3253 -1.0147  0.6009
  116OSM    HNF12134   3.359   4.648  10.553 -1.9080 -0.4218 -0.5389
  116OSM    C2S12135   3.213   4.682  10.699  0.0561  0.3673 -0.0629
  116OSM    H2S12136   3.111   4.639  10.687  0.4543 -1.4972  2.3529
  116OSM    C3S12137   3.199   4.835  10.658  0.3566  0.7248  0.1367
  116OSM    H3S12138   3.290   4.885  10.699 -0.1101  0.8185  1.0604
  116OSM     O312139   3.090   4.909  10.712 -0.0210 -0.1892  0.1550
  116OSM    HO312140   3.054   4.846  10.775  0.8063  0.0487  0.8853
  116OSM    C4S12141   3.192   4.844  10.506  0.6843  0.5461  0.4225
  116OSM    H4S12142   3.288   4.853  10.453  0.9244 -1.3743  0.4809
  116OSM    C5S12143   3.077   4.837  10.429 -0.4200 -0.5243 -0.3461
  116OSM    H5S12144   2.979   4.839  10.480 -3.1673  0.5829 -4.9772
  116OSM    C6S12145   3.057   4.857  10.284  0.3397 -0.2351 -0.0777
  116OSM    H6S12146   2.991   4.942  10.256  1.4959  0.5981 -0.3676
  116OSM    H6T12147   2.995   4.780  10.234 -1.0834  0.7611  0.0930
  116OSM    C7S12148   3.185   4.882  10.201 -0.2012 -0.2126  0.3240
  116OSM    H7S12149   3.248   4.791  10.202  1.2613  0.7397 -0.5857
  116OSM    H7T12150   3.248   4.955  10.256  1.7342  1.1992 -3.4404
  116OSM    C8S12151   3.164   4.926  10.051 -0.3476  0.6980  0.0126
  116OSM    H8S12152   3.103   5.019  10.058 -0.7934  0.2709  3.5559
  116OSM    H8T12153   3.093   4.861   9.996  0.6442  0.1180 -0.6187
  116OSM    C9S12154   3.298   4.936   9.984 -0.1272  0.4135  0.0568
  116OSM    H9S12155   3.368   4.854  10.011  2.2258  0.8851 -3.8785
  116OSM    H9T12156   3.341   5.033  10.017 -0.1356  0.7486 -0.9029
  116OSM   C10S12157   3.278   4.946   9.831 -0.6017  0.1879  0.4658
  116OSM   H10S12158   3.202   5.027   9.819  0.9168  1.7912  1.2013
  116OSM   H10T12159   3.220   4.859   9.794  1.8937 -0.6313 -1.7879
  116OSM   C11S12160   3.407   4.964   9.760 -0.9325 -0.4034 -0.5871
  116OSM   H11S12161   3.485   4.893   9.793 -0.1840  0.9740  0.7733
  116OSM   H11T12162   3.447   5.065   9.785  1.6395 -1.7852  1.3344
  116OSM   C12S12163   3.390   4.955   9.608  0.4465  0.4168 -0.1514
  116OSM   H12S12164   3.338   4.857   9.603 -0.4926  0.9384 -0.7959
  116OSM   H12T12165   3.493   4.929   9.577  0.1461 -2.2680  0.7962
  116OSM   C13S12166   3.299   5.065   9.546 -0.0155  0.7255 -1.3338
  116OSM   H13S12167   3.336   5.163   9.582  0.0792 -1.0620  4.4103
  116OSM   H13T12168   3.198   5.056   9.591 -0.3619  0.4149 -2.1627
  116OSM   C14S12169   3.294   5.058   9.395 -0.5028  0.4098  0.5757
  116OSM   H14S12170   3.380   5.112   9.349 -0.9890  0.0865 -0.7441
  116OSM   H14T12171   3.206   5.118   9.364  0.3922  0.9242 -1.0660
  116OSM   C15S12172   3.299   4.917   9.337  0.1233 -0.0273 -0.3583
  116OSM   H15S12173   3.229   4.851   9.393 -0.1448  1.3378  0.9759
  116OSM   H15T12174   3.402   4.879   9.350  0.0372 -0.0511  0.2878
  116OSM   C16S12175   3.268   4.907   9.187 -0.7752  0.1068 -0.8068
  116OSM   H16S12176   3.336   4.976   9.133  1.9304 -0.3039  1.8120
  116OSM   H16T12177   3.163   4.934   9.164 -0.6967  0.9731 -0.1909
  116OSM   C17S12178   3.275   4.759   9.137 -0.0336 -0.4743  0.0394
  116OSM   H17S12179   3.187   4.706   9.181  1.2520 -1.4519  1.5246
  116OSM   H17T12180   3.362   4.696   9.165 -1.5414 -3.6551 -1.7669
  116OSM   C18S12181   3.250   4.757   8.980  0.0454  0.7582  0.9545
  116OSM   H18S12182   3.258   4.653   8.943  0.8927  0.9346  0.6249
  116OSM   H18T12183   3.329   4.805   8.919  0.5397  0.1582  1.1076
  116OSM   H18U12184   3.148   4.793   8.954 -1.6014 -3.3531  1.0556
  116OSM    C1F12185   3.321   4.471  10.636  0.0871 -0.2311  1.0122
  116OSM     OF12186   3.249   4.397  10.699  0.0505 -0.0775  0.1351
  116OSM    C2F12187   3.433   4.407  10.561  0.1383 -0.4120 -0.1757
  116OSM    H2F12188   3.485   4.350  10.641 -1.2614 -0.6341  0.6080
  116OSM    H2G12189   3.506   4.489  10.546  0.6486 -0.5705  1.2829
  116OSM    C3F12190   3.406   4.316  10.437  0.1428  0.1805  0.5717
  116OSM    H3F12191   3.387   4.388  10.354  2.6894  1.4362  0.9850
  116OSM    H3G12192   3.326   4.240  10.441  0.8106 -0.7542 -1.7496
  116OSM    C4F12193   3.540   4.249  10.397  0.7017 -0.1409  0.3083
  116OSM    H4F12194   3.564   4.173  10.474 -2.2361 -0.4649  0.9970
  116OSM    H4G12195   3.622   4.324  10.404 -2.8016  4.0347  0.4703
  116OSM    C5F12196   3.541   4.187  10.256  0.1990  0.4004 -0.0492
  116OSM    H5F12197   3.444   4.139  10.233 -0.5777  0.8764  2.0143
  116OSM    H5G12198   3.609   4.099  10.258 -1.0644 -0.6016  1.7987
  116OSM    C6F12199   3.584   4.277  10.146  0.2584 -0.1035 -0.9994
  116OSM    H6F12200   3.662   4.350  10.179 -0.1180  0.9777 -2.4077
  116OSM    H6G12201   3.498   4.338  10.113 -1.4809 -0.7049  2.0046
  116OSM    C7F12202   3.645   4.194  10.033 -0.5481  0.7909  0.0893
  116OSM    H7F12203   3.738   4.151  10.075 -0.3695  1.7603  0.7051
  116OSM    H7G12204   3.676   4.249   9.941  1.2667  1.5592  1.1211
  116OSM    C8F12205   3.560   4.066   9.998 -0.0376  0.2488 -0.3065
  116OSM    H8F12206   3.563   3.990  10.079 -0.7885  0.5134 -0.0250
  116OSM    H8G12207   3.607   4.012   9.913  2.4357  0.4425  0.8334
  116OSM    C9F12208   3.418   4.078   9.956 -0.3365 -0.8765  0.6795
  116OSM    H9F12209   3.359   4.088  10.048  0.7174 -4.5434  1.8875
  116OSM   C10F12210   3.361   4.097   9.834 -0.0819  0.3103  0.9572
  116OSM   H10F12211   3.252   4.101   9.818  0.2758  1.2521 -1.7836
  116OSM   C11F12212   3.433   4.103   9.704 -0.4987 -0.6525  0.3439
  116OSM   H11F12213   3.530   4.052   9.718  0.0019  0.0195 -0.5391
  116OSM   H11G12214   3.459   4.210   9.691  0.2697 -0.8568  0.1491
  116OSM   C12F12215   3.361   4.037   9.586  0.6018 -0.3664 -0.8389
  116OSM   H12F12216   3.264   4.089   9.565 -0.4225 -2.3577 -1.2670
  116OSM   H12G12217   3.334   3.937   9.625  0.1424  0.1525  0.2216
  116OSM   C13F12218   3.439   4.022   9.461  0.2590  0.2202  0.8157
  116OSM   H13F12219   3.529   3.957   9.472  1.3225  1.2722 -1.0637
  116OSM   H13G12220   3.468   4.121   9.419 -1.2977  1.0000  1.4908
  116OSM   C14F12221   3.361   3.958   9.340 -0.1899  0.4247 -0.2730
  116OSM   H14F12222   3.272   4.017   9.311  0.0445  0.1040 -1.7423
  116OSM   H14G12223   3.336   3.857   9.379  0.4881 -1.5650 -4.4274
  116OSM   C15F12224   3.448   3.923   9.210  0.1722  0.2291 -0.3675
  116OSM   H15F12225   3.479   3.817   9.219 -1.0842 -0.0973  0.2369
  116OSM   H15G12226   3.535   3.992   9.203 -0.0288  0.5929  0.5780
  116OSM   C16F12227   3.355   3.922   9.086 -1.0977 -0.1508  0.0896
  116OSM   H16F12228   3.295   4.016   9.087 -0.1778  0.4426  0.2544
  116OSM   H16G12229   3.297   3.828   9.097 -1.0023 -0.3854 -1.1948
  116OSM   C17F12230   3.435   3.912   8.955 -0.5520  0.5778  0.3382
  116OSM   H17F12231   3.376   3.891   8.864  0.9889  4.0252 -1.6623
  116OSM   H17G12232   3.512   3.835   8.974 -1.7786 -0.5813  0.7861
  116OSM   C18F12233   3.511   4.034   8.916 -0.3081 -0.9086 -0.3339
  116OSM   H18F12234   3.439   4.115   8.892  0.7182 -0.0194 -0.4802
  116OSM   H18G12235   3.586   4.019   8.836 -0.6699 -0.6131 -0.7343
  116OSM   H18H12236   3.571   4.063   9.005  1.0317 -2.8482 -0.5408
  117OSM      N12237   1.645   4.533  11.103 -0.1492  0.0143 -0.4725
  117OSM    C1512238   1.719   4.583  11.214 -0.1649 -0.7976 -0.7911
  117OSM   H15A12239   1.792   4.516  11.256  1.9135  1.9164  0.2950
  117OSM   H15B12240   1.645   4.586  11.292  0.6135 -0.4541 -0.0539
  117OSM   H15C12241   1.768   4.679  11.202  0.9858 -1.2440  0.1713
  117OSM    C1412242   1.732   4.507  10.990 -0.3720 -0.3420 -0.2469
  117OSM   H14A12243   1.677   4.486  10.900 -0.7170 -2.7501  0.4575
  117OSM   H14B12244   1.798   4.425  11.016  1.6867  1.5091  0.7380
  117OSM   H14C12245   1.776   4.603  10.966 -0.0274 -0.2074  0.8471
  117OSM    C1312246   1.577   4.406  11.133 -0.1231  0.6836 -0.3710
  117OSM   H13A12247   1.531   4.365  11.044  1.5061 -2.6658  0.1816
  117OSM   H13B12248   1.506   4.420  11.213 -0.2198  4.3066 -0.9111
  117OSM   H13C12249   1.650   4.338  11.173 -0.7633  0.5543  0.5894
  117OSM    C1212250   1.533   4.633  11.067 -0.2871  0.3322  0.1250
  117OSM   H12A12251   1.475   4.589  10.988  0.4072  2.3371 -1.6096
  117OSM   H12B12252   1.584   4.696  10.995  0.7509 -3.4973 -2.8116
  117OSM    C1112253   1.457   4.713  11.175 -0.1075 -0.5493  0.0095
  117OSM   H11A12254   1.420   4.647  11.256 -0.0727 -2.1085 -1.2066
  117OSM   H11B12255   1.361   4.755  11.137  0.0522 -0.8040 -0.6839
  117OSM      P12256   1.564   4.948  11.168 -0.1674  0.0173  0.1138
  117OSM    O1312257   1.454   5.032  11.204  0.1868  0.2819 -0.4775
  117OSM    O1412258   1.696   5.010  11.201 -0.5455 -0.3594 -0.3817
  117OSM    O1112259   1.554   4.921  11.009 -0.4293  0.4234  0.4868
  117OSM    O1212260   1.546   4.812  11.237 -0.1182  0.1669  0.1546
  117OSM    C1S12261   1.671   4.930  10.929 -0.5053  0.2308  1.0942
  117OSM    H1S12262   1.730   4.837  10.945 -1.7962 -0.5604  1.4222
  117OSM    H1T12263   1.736   5.017  10.951  2.0700 -1.1283 -0.6223
  117OSM     NF12264   1.752   4.919  10.697 -0.4789  0.7399  0.3013
  117OSM    HNF12265   1.793   5.005  10.670  3.3988 -0.5929  1.4134
  117OSM    C2S12266   1.633   4.935  10.777 -0.1445  0.3092  0.7231
  117OSM    H2S12267   1.557   4.859  10.746  1.5105 -1.0531 -0.1836
  117OSM    C3S12268   1.560   5.072  10.745 -0.6480 -0.5785  0.2544
  117OSM    H3S12269   1.616   5.159  10.784  0.3147  0.0133 -2.2342
  117OSM     O312270   1.435   5.073  10.816 -0.3822  0.0133 -0.1463
  117OSM    HO312271   1.438   4.987  10.858 -0.4039  0.8427  1.6164
  117OSM    C4S12272   1.520   5.083  10.598 -0.0703  0.0365 -0.6016
  117OSM    H4S12273   1.418   5.051  10.572  0.1769 -0.9673 -0.4078
  117OSM    C5S12274   1.590   5.137  10.497 -0.4799 -0.0804 -0.0224
  117OSM    H5S12275   1.684   5.192  10.514  0.2093 -0.7771 -1.4689
  117OSM    C6S12276   1.552   5.147  10.353  0.2323 -0.2250  0.0626
  117OSM    H6S12277   1.531   5.251  10.318 -1.5006 -0.0948  1.3948
  117OSM    H6T12278   1.457   5.091  10.338 -0.9620  1.4300  1.1309
  117OSM    C7S12279   1.661   5.097  10.255  0.0831 -0.0167 -0.3800
  117OSM    H7S12280   1.667   4.986  10.260  0.2256 -0.0076 -0.3692
  117OSM    H7T12281   1.755   5.137  10.298 -0.0302 -2.0281  2.0367
  117OSM    C8S12282   1.629   5.122  10.109  0.8955  0.0764 -0.3596
  117OSM    H8S12283   1.618   5.232  10.096 -3.3565  0.0681  1.4555
  117OSM    H8T12284   1.528   5.082  10.085  1.6487 -2.5812  0.5572
  117OSM    C9S12285   1.740   5.055  10.019  0.2714  0.1142  0.4173
  117OSM    H9S12286   1.706   4.951  10.003 -0.2331  0.5934 -1.8663
  117OSM    H9T12287   1.834   5.049  10.079  0.4195 -0.6139  0.1202
  117OSM   C10S12288   1.755   5.123   9.884 -0.7583  0.4546  0.2177
  117OSM   H10S12289   1.744   5.232   9.900  0.4125  0.5678  0.3550
  117OSM   H10T12290   1.674   5.093   9.815  0.3100 -0.5445 -0.6592
  117OSM   C11S12291   1.894   5.093   9.819  0.7007  0.3981  0.7346
  117OSM   H11S12292   1.905   4.983   9.810  0.2752  0.2955  1.3853
  117OSM   H11T12293   1.976   5.137   9.881  0.6236  0.4319  0.8133
  117OSM   C12S12294   1.918   5.153   9.671  0.2496  0.2636 -0.3224
  117OSM   H12S12295   1.937   5.262   9.669  0.6073  0.1960 -0.6521
  117OSM   H12T12296   1.826   5.129   9.614  0.1075 -0.7652  0.3156
  117OSM   C13S12297   2.031   5.076   9.605  0.4018  0.8159 -0.1655
  117OSM   H13S12298   1.997   4.970   9.597  1.1780  0.3447  2.0511
  117OSM   H13T12299   2.117   5.072   9.675  0.7645 -4.2512 -0.5154
  117OSM   C14S12300   2.083   5.120   9.473  0.2393 -0.1839  0.5820
  117OSM   H14S12301   2.164   5.050   9.447 -0.7266 -1.0179 -0.2743
  117OSM   H14T12302   2.117   5.226   9.485 -2.5781  0.6604  2.2103
  117OSM   C15S12303   1.986   5.125   9.351  0.5418  0.3076 -0.2236
  117OSM   H15S12304   1.893   5.180   9.376  0.0238 -0.0948 -1.1884
  117OSM   H15T12305   1.951   5.022   9.325 -1.6181  0.5408  1.4323
  117OSM   C16S12306   2.048   5.192   9.228  0.0818  0.2876 -0.3419
  117OSM   H16S12307   2.127   5.128   9.183 -0.0123  1.8757 -2.9516
  117OSM   H16T12308   2.088   5.291   9.257  0.9174 -0.7475  2.3811
  117OSM   C17S12309   1.940   5.207   9.115 -0.0575 -0.8188 -0.4351
  117OSM   H17S12310   1.873   5.287   9.156 -0.8912 -1.4076 -0.6268
  117OSM   H17T12311   1.879   5.117   9.095  1.1086 -1.1353 -2.9860
  117OSM   C18S12312   1.993   5.273   8.984  0.6536 -0.7462  0.1760
  117OSM   H18S12313   2.027   5.191   8.917  1.2718  0.0362 -0.4876
  117OSM   H18T12314   2.081   5.338   9.005  0.2798 -0.7942  2.0263
  117OSM   H18U12315   1.925   5.337   8.924  1.4780 -1.5203 -1.6830
  117OSM    C1F12316   1.801   4.792  10.669 -0.2523 -0.8530  0.3236
  117OSM     OF12317   1.755   4.692  10.720 -0.0091  0.2588 -0.3689
  117OSM    C2F12318   1.926   4.788  10.591  0.7177 -0.4263  1.1234
  117OSM    H2F12319   1.999   4.716  10.634  0.8382 -0.7294  0.4268
  117OSM    H2G12320   1.975   4.887  10.599  1.2146 -0.5476 -0.2403
  117OSM    C3F12321   1.897   4.771  10.440  0.2890  0.1524 -0.0864
  117OSM    H3F12322   1.818   4.846  10.418  1.6135  1.9029  0.8853
  117OSM    H3G12323   1.856   4.672  10.414  0.0792  0.2447 -0.1100
  117OSM    C4F12324   2.029   4.785  10.360  0.9187  0.1961  0.0697
  117OSM    H4F12325   2.108   4.709  10.375  0.4601 -0.1689  0.6623
  117OSM    H4G12326   2.069   4.888  10.375  1.0777 -0.0443  1.4102
  117OSM    C5F12327   1.988   4.767  10.212  0.0002 -0.6721 -0.3668
  117OSM    H5F12328   1.936   4.862  10.186  1.0394  0.5521  1.7293
  117OSM    H5G12329   1.925   4.677  10.203 -1.3374  0.4670 -4.0127
  117OSM    C6F12330   2.108   4.751  10.123 -0.4688  0.0090 -0.1231
  117OSM    H6F12331   2.150   4.648  10.126  0.8239  0.5176 -0.2590
  117OSM    H6G12332   2.186   4.828  10.145  1.4527 -0.8389 -3.3747
  117OSM    C7F12333   2.061   4.783   9.980  0.0983 -0.2272  0.3723
  117OSM    H7F12334   2.021   4.886   9.964  0.3933 -0.2390 -0.4523
  117OSM    H7G12335   1.983   4.710   9.951 -0.3857  0.5133 -0.2611
  117OSM    C8F12336   2.174   4.790   9.878  0.1891 -0.3587 -0.2451
  117OSM    H8F12337   2.248   4.871   9.894 -1.9873  1.3492  1.9798
  117OSM    H8G12338   2.119   4.820   9.786 -1.1999 -0.3491  0.5495
  117OSM    C9F12339   2.236   4.665   9.849 -0.6135  0.2204 -0.2779
  117OSM    H9F12340   2.189   4.579   9.899  1.5087 -0.9979 -0.2856
  117OSM   C10F12341   2.338   4.647   9.767  0.3355 -0.0175  0.0501
  117OSM   H10F12342   2.389   4.550   9.764  0.5091 -0.0621  2.4213
  117OSM   C11F12343   2.402   4.747   9.680  0.9255  0.7296  0.1861
  117OSM   H11F12344   2.512   4.742   9.692  0.9568 -0.1205 -0.3117
  117OSM   H11G12345   2.366   4.851   9.695  2.5542  1.1168  1.7284
  117OSM   C12F12346   2.379   4.705   9.530  0.1728  0.5150  0.7352
  117OSM   H12F12347   2.273   4.709   9.499  0.3624  0.8038  0.1176
  117OSM   H12G12348   2.415   4.600   9.525  0.9224  0.8011 -0.1970
  117OSM   C13F12349   2.474   4.785   9.439 -0.2949 -0.4360  0.0274
  117OSM   H13F12350   2.575   4.791   9.486 -0.6134 -0.5998  0.7419
  117OSM   H13G12351   2.437   4.890   9.443  1.1681  0.1341 -0.5554
  117OSM   C14F12352   2.460   4.736   9.288 -0.2342 -0.0665 -0.2493
  117OSM   H14F12353   2.459   4.625   9.291  0.9336 -0.0558  1.3044
  117OSM   H14G12354   2.542   4.784   9.230  1.6714 -1.5006  1.1177
  117OSM   C15F12355   2.327   4.787   9.225  0.2183  0.0615 -0.4639
  117OSM   H15F12356   2.325   4.898   9.231 -1.4122  0.0601 -0.7065
  117OSM   H15G12357   2.246   4.751   9.291  0.2886 -0.3636 -0.6085
  117OSM   C16F12358   2.313   4.723   9.086  0.6364  1.2996  0.6191
  117OSM   H16F12359   2.295   4.616   9.109  1.8322  1.2723  1.5160
  117OSM   H16G12360   2.411   4.728   9.034  2.4769  1.7577  3.8103
  117OSM   C17F12361   2.193   4.785   9.014  0.4551 -0.1906  0.2044
  117OSM   H17F12362   2.114   4.809   9.087  0.8292  0.1588  0.4984
  117OSM   H17G12363   2.151   4.718   8.936 -0.2727  1.1602 -0.6160
  117OSM   C18F12364   2.212   4.919   8.939 -0.0765 -0.1535 -1.2082
  117OSM   H18F12365   2.306   4.908   8.880  0.7272  1.5018 -0.3057
  117OSM   H18G12366   2.216   5.006   9.008  0.6110 -0.4773 -0.8298
  117OSM   H18H12367   2.122   4.936   8.876 -1.9887 -0.7694  1.1871
  118OSM      N12368   1.107   6.519  11.108  0.5653  0.0852  0.3996
  118OSM    C1512369   1.042   6.649  11.110  0.8555  0.0710  0.3825
  118OSM   H15A12370   1.024   6.687  11.011 -1.6339 -2.8769 -0.4300
  118OSM   H15B12371   1.103   6.717  11.167  4.5144 -2.9548  0.4495
  118OSM   H15C12372   0.949   6.645  11.165  1.1406  1.8128  1.0597
  118OSM    C1412373   1.120   6.477  11.255 -1.0481 -0.2413  0.1231
  118OSM   H14A12374   1.138   6.371  11.266  1.0556 -0.0458 -1.0706
  118OSM   H14B12375   1.022   6.486  11.299 -0.9932  0.9912  0.0276
  118OSM   H14C12376   1.188   6.539  11.310  0.6162  0.1030 -2.1871
  118OSM    C1312377   1.022   6.427  11.028  1.2061  0.3052  0.0752
  118OSM   H13A12378   0.922   6.416  11.068  0.8204 -2.7618 -1.3985
  118OSM   H13B12379   1.059   6.326  11.019  3.3378  1.0170  0.3880
  118OSM   H13C12380   1.016   6.475  10.931 -0.2557 -0.7831 -0.4268
  118OSM    C1212381   1.246   6.529  11.043 -0.1264 -0.3384  0.7743
  118OSM   H12A12382   1.222   6.590  10.957 -1.3527 -2.1635 -0.2467
  118OSM   H12B12383   1.283   6.439  10.997  0.1110 -0.3102  0.9101
  118OSM    C1112384   1.360   6.593  11.122  0.3367 -0.4993  0.1349
  118OSM   H11A12385   1.454   6.606  11.064 -0.9860  3.6218 -1.4239
  118OSM   H11B12386   1.380   6.518  11.202 -1.3952  1.1781  2.2442
  118OSM      P12387   1.347   6.850  11.124 -0.7895  0.0241  0.0238
  118OSM    O1312388   1.262   6.954  11.186  0.2992  0.0073 -0.1281
  118OSM    O1412389   1.496   6.868  11.129  0.4676 -0.0613  0.2694
  118OSM    O1112390   1.288   6.839  10.976  0.7270 -0.1903  0.0733
  118OSM    O1212391   1.315   6.711  11.190  0.6687  0.0302  0.6010
  118OSM    C1S12392   1.346   6.923  10.880 -0.2431 -0.6706  0.5131
  118OSM    H1S12393   1.450   6.891  10.862 -0.4509 -1.1084  0.0697
  118OSM    H1T12394   1.337   7.026  10.920 -1.6915 -0.2814 -0.7138
  118OSM     NF12395   1.329   6.985  10.637 -0.2585 -0.5399  0.6362
  118OSM    HNF12396   1.299   7.075  10.608 -1.0305 -0.7636  0.7154
  118OSM    C2S12397   1.265   6.911  10.748 -1.0819 -0.0380  0.5508
  118OSM    H2S12398   1.263   6.804  10.719  1.0571  0.5193 -2.1145
  118OSM    C3S12399   1.119   6.955  10.768  0.2437 -0.0556 -0.0398
  118OSM    H3S12400   1.097   7.049  10.822 -1.9815 -0.8085  0.4613
  118OSM     O312401   1.059   6.864  10.859  0.4392 -0.2469 -0.9826
  118OSM    HO312402   1.135   6.821  10.899 -0.1833 -1.4264 -1.0147
  118OSM    C4S12403   1.047   6.939  10.638  0.0206  0.2574 -0.7273
  118OSM    H4S12404   0.998   6.840  10.632  0.1136 -0.0782  2.3450
  118OSM    C5S12405   1.024   7.021  10.545  0.4900  0.0969  0.0870
  118OSM    H5S12406   1.040   7.130  10.554  0.1815  0.1089  0.5032
  118OSM    C6S12407   0.952   6.993  10.415 -0.4776 -0.5537  0.4487
  118OSM    H6S12408   0.852   7.040  10.428  0.9524  2.3588  1.9161
  118OSM    H6T12409   0.956   6.885  10.389  1.9704  0.0865 -2.3359
  118OSM    C7S12410   1.023   7.066  10.304 -0.4262 -0.3882 -0.8784
  118OSM    H7S12411   1.129   7.085  10.331 -0.6470  0.1151 -0.3560
  118OSM    H7T12412   0.978   7.167  10.287  1.4076  0.5004 -0.7080
  118OSM    C8S12413   1.024   6.999  10.169 -0.5210 -0.6317  0.5726
  118OSM    H8S12414   1.066   6.896  10.165  0.1607 -0.3251 -1.1974
  118OSM    H8T12415   1.075   7.060  10.092 -1.2449 -0.8988 -0.1351
  118OSM    C9S12416   0.876   7.005  10.109 -0.7777  0.3359  0.4891
  118OSM    H9S12417   0.845   7.112  10.113 -0.3180  0.6378 -2.1016
  118OSM    H9T12418   0.800   6.944  10.162 -1.9785  0.7925 -0.6495
  118OSM   C10S12419   0.865   6.960   9.959 -0.0004 -0.0106  0.3581
  118OSM   H10S12420   0.886   6.851   9.953  1.5349  0.3410 -1.1159
  118OSM   H10T12421   0.942   7.010   9.897  0.1882 -0.9867 -0.2246
  118OSM   C11S12422   0.729   6.979   9.904  0.8254 -0.5046 -0.1205
  118OSM   H11S12423   0.705   7.087   9.894  1.3608 -0.5190 -1.8689
  118OSM   H11T12424   0.649   6.934   9.967 -0.0322  3.1013  1.6776
  118OSM   C12S12425   0.723   6.927   9.761  0.1249  0.4945 -0.1765
  118OSM   H12S12426   0.707   6.817   9.752 -1.3730  0.6466  0.3907
  118OSM   H12T12427   0.815   6.954   9.705  1.5116 -1.4863  1.0011
  118OSM   C13S12428   0.604   6.983   9.688 -0.3175 -0.0976 -0.1485
  118OSM   H13S12429   0.619   7.093   9.692  1.0780 -0.2243 -1.1326
  118OSM   H13T12430   0.510   6.957   9.740  0.0517 -1.6079 -0.1693
  118OSM   C14S12431   0.592   6.938   9.550  0.0308 -0.3035 -0.2600
  118OSM   H14S12432   0.493   6.968   9.509 -1.4892 -1.4294  2.3141
  118OSM   H14T12433   0.594   6.827   9.543  2.3560 -0.5693  2.7409
  118OSM   C15S12434   0.707   6.983   9.452 -0.0908  0.8383  0.2115
  118OSM   H15S12435   0.808   6.971   9.497 -1.0183  0.6170  2.3812
  118OSM   H15T12436   0.696   7.093   9.450  0.7960  0.9998  2.0150
  118OSM   C16S12437   0.685   6.920   9.310  0.8439 -0.4009  0.4601
  118OSM   H16S12438   0.578   6.923   9.279  1.0612  1.4811 -0.2812
  118OSM   H16T12439   0.714   6.813   9.316 -2.0571 -1.4528 -1.7201
  118OSM   C17S12440   0.767   6.990   9.204 -0.0472  0.0942 -0.2131
  118OSM   H17S12441   0.866   6.975   9.253 -0.7220 -1.4120  0.7720
  118OSM   H17T12442   0.752   7.098   9.185  0.7537  0.9388  3.1550
  118OSM   C18S12443   0.751   6.918   9.065  0.4869  0.4466  0.6971
  118OSM   H18S12444   0.841   6.934   9.002  0.6441  0.9883  1.0486
  118OSM   H18T12445   0.659   6.957   9.017  0.8483 -1.2692 -1.5847
  118OSM   H18U12446   0.735   6.809   9.075 -0.0461  0.3681 -0.7589
  118OSM    C1F12447   1.438   6.924  10.594 -0.4704  0.1976 -0.6728
  118OSM     OF12448   1.472   6.813  10.631 -0.4715  0.6013  0.2176
  118OSM    C2F12449   1.526   7.000  10.494  0.4041  0.2046 -1.2674
  118OSM    H2F12450   1.568   7.087  10.548 -0.1501  0.5173 -1.3279
  118OSM    H2G12451   1.460   7.038  10.413  1.0858  0.9277 -1.4938
  118OSM    C3F12452   1.643   6.919  10.431 -0.4156 -0.2231 -0.3876
  118OSM    H3F12453   1.606   6.825  10.385 -0.2268 -0.2209 -0.5503
  118OSM    H3G12454   1.720   6.887  10.505  0.7837  1.4694 -0.8370
  118OSM    C4F12455   1.700   7.002  10.318  0.0046  0.2367  0.2930
  118OSM    H4F12456   1.752   7.091  10.359  1.1432  1.3717 -3.2585
  118OSM    H4G12457   1.621   7.037  10.248  1.2327 -2.1619 -2.4930
  118OSM    C5F12458   1.802   6.926  10.243  0.3531  0.2637 -0.2187
  118OSM    H5F12459   1.766   6.839  10.184  1.4365 -0.6003  0.3424
  118OSM    H5G12460   1.866   6.887  10.325 -1.3900  1.2362  1.6912
  118OSM    C6F12461   1.886   7.009  10.145 -0.2092 -0.1037  0.4294
  118OSM    H6F12462   1.968   7.044  10.211 -0.9753 -2.5153  2.8441
  118OSM    H6G12463   1.830   7.096  10.105 -1.4645 -0.5439  1.1567
  118OSM    C7F12464   1.945   6.924  10.024 -0.4735  0.1585  0.2051
  118OSM    H7F12465   1.983   6.835  10.078  0.0211  0.7023  0.7737
  118OSM    H7G12466   2.024   6.987   9.978  0.2307  0.4254  1.7085
  118OSM    C8F12467   1.849   6.874   9.909  0.3554 -0.1995 -0.1988
  118OSM    H8F12468   1.765   6.823   9.961 -0.7346 -0.1537 -1.8108
  118OSM    H8G12469   1.910   6.796   9.858 -1.2854 -2.5023  1.1607
  118OSM    C9F12470   1.815   6.995   9.822  0.1749  0.8754  0.6680
  118OSM    H9F12471   1.753   7.070   9.873 -0.6947  0.1108  0.7737
  118OSM   C10F12472   1.843   7.020   9.692 -0.3249  0.2278  0.0669
  118OSM   H10F12473   1.804   7.115   9.653  0.6711  1.2294  1.4545
  118OSM   C11F12474   1.919   6.929   9.587  0.4155 -0.3610  0.1479
  118OSM   H11F12475   1.994   6.863   9.636  0.6144  0.8370  1.5405
  118OSM   H11G12476   1.965   6.997   9.512 -1.5259  1.9147  0.8795
  118OSM   C12F12477   1.814   6.840   9.520  0.5611  0.1331 -0.2055
  118OSM   H12F12478   1.762   6.779   9.597  0.0919 -0.6288 -1.1028
  118OSM   H12G12479   1.870   6.770   9.455 -1.6633  0.1484 -2.3058
  118OSM   C13F12480   1.713   6.914   9.423 -0.6235  0.9908  0.0652
  118OSM   H13F12481   1.756   6.962   9.332 -0.1527 -1.4575 -1.0873
  118OSM   H13G12482   1.671   6.987   9.496  2.5668  3.5115 -0.4015
  118OSM   C14F12483   1.613   6.809   9.376 -0.4524 -0.6030  0.1081
  118OSM   H14F12484   1.541   6.860   9.308 -1.9717 -0.5073  1.7280
  118OSM   H14G12485   1.559   6.751   9.454 -0.5165  0.2048  0.6728
  118OSM   C15F12486   1.686   6.716   9.283  0.1190 -0.3862 -0.1666
  118OSM   H15F12487   1.749   6.650   9.346 -0.3017 -0.1123  0.5678
  118OSM   H15G12488   1.748   6.769   9.208  1.5905 -0.1095  1.1867
  118OSM   C16F12489   1.586   6.635   9.190 -0.0948 -0.7466  0.3690
  118OSM   H16F12490   1.551   6.715   9.121  0.4850 -0.5532  0.2889
  118OSM   H16G12491   1.499   6.602   9.251  0.2453 -0.2654  1.1305
  118OSM   C17F12492   1.653   6.522   9.110 -0.0767  0.1468 -0.0312
  118OSM   H17F12493   1.742   6.549   9.049  1.1926  0.6645  1.9726
  118OSM   H17G12494   1.577   6.483   9.039  0.3206 -0.8474  0.0616
  118OSM   C18F12495   1.690   6.410   9.204 -0.1569  0.4834 -0.9034
  118OSM   H18F12496   1.594   6.393   9.259  0.0679 -1.0804 -0.9448
  118OSM   H18G12497   1.760   6.452   9.279 -0.4781  0.8817 -0.8251
  118OSM   H18H12498   1.734   6.324   9.149 -0.3953  1.3153 -2.4745
  119OSM      N12499   1.710   5.946  10.934  0.2185 -0.5452 -0.6301
  119OSM    C1512500   1.785   5.895  11.048  0.0785  0.2702  0.9059
  119OSM   H15A12501   1.775   5.787  11.047 -0.7752  0.2661 -2.4898
  119OSM   H15B12502   1.740   5.929  11.140 -0.6507 -1.6196  1.2979
  119OSM   H15C12503   1.887   5.927  11.035 -0.3614  0.4000 -3.8193
  119OSM    C1412504   1.731   6.095  10.933 -0.7237 -0.0035  0.6282
  119OSM   H14A12505   1.829   6.116  10.893 -0.9506 -1.5070 -0.8348
  119OSM   H14B12506   1.723   6.140  11.031  0.5510  1.7563 -0.0260
  119OSM   H14C12507   1.656   6.144  10.872  0.8813  0.7764 -0.8021
  119OSM    C1312508   1.757   5.889  10.812 -0.4333 -0.1795  0.1201
  119OSM   H13A12509   1.715   5.925  10.720  2.1966  1.9791 -0.3628
  119OSM   H13B12510   1.733   5.784  10.805 -0.0366 -0.1860 -1.5062
  119OSM   H13C12511   1.864   5.901  10.799 -0.6211 -0.1034 -1.4270
  119OSM    C1212512   1.564   5.915  10.973  0.0189  0.2852  0.2719
  119OSM   H12A12513   1.536   5.962  11.066  0.8420 -1.0699  1.2364
  119OSM   H12B12514   1.550   5.810  10.994  1.7123  0.4927  2.8746
  119OSM    C1112515   1.450   5.953  10.870  0.2575 -0.2072 -0.0615
  119OSM   H11A12516   1.355   5.907  10.904  0.7118 -0.3123  1.1145
  119OSM   H11B12517   1.473   5.899  10.775 -1.6316 -2.4449  0.6893
  119OSM      P12518   1.364   6.186  10.964 -0.0243 -0.3755  0.5494
  119OSM    O1312519   1.247   6.118  11.027  0.1121  0.0951  0.3296
  119OSM    O1412520   1.476   6.233  11.050 -0.1505  0.4932  0.8202
  119OSM    O1112521   1.323   6.306  10.876 -0.5819  0.1957  0.5251
  119OSM    O1212522   1.426   6.098  10.846  0.7566 -0.2127 -0.1818
  119OSM    C1S12523   1.426   6.379  10.807 -0.1627 -0.5985  0.1751
  119OSM    H1S12524   1.522   6.326  10.791  1.2357  2.0887 -1.0837
  119OSM    H1T12525   1.463   6.468  10.863 -0.5000 -0.2098 -0.2221
  119OSM     NF12526   1.506   6.514  10.621  0.5365  0.5593 -1.1468
  119OSM    HNF12527   1.491   6.611  10.636 -0.7708  0.4404 -1.5003
  119OSM    C2S12528   1.389   6.419  10.663  0.0448  0.1521  0.9681
  119OSM    H2S12529   1.385   6.329  10.598  0.7684  1.9072 -1.6692
  119OSM    C3S12530   1.246   6.491  10.653  0.6395 -0.3597  0.2402
  119OSM    H3S12531   1.247   6.581  10.718  1.3004  1.1747 -1.8060
  119OSM     O312532   1.143   6.413  10.704 -0.3905  0.4125 -0.2418
  119OSM    HO312533   1.191   6.363  10.771 -1.6401 -1.1811 -0.4917
  119OSM    C4S12534   1.217   6.531  10.505 -0.3300  0.5454  0.2885
  119OSM    H4S12535   1.254   6.625  10.461  2.0153 -0.5483 -0.1976
  119OSM    C5S12536   1.143   6.462  10.417  0.1963  0.1462 -0.6847
  119OSM    H5S12537   1.100   6.363  10.435 -3.0996  1.3619 -1.0474
  119OSM    C6S12538   1.118   6.521  10.284  0.4883 -0.1008  0.1982
  119OSM    H6S12539   1.136   6.434  10.216 -0.0505  0.3180 -0.4990
  119OSM    H6T12540   1.168   6.616  10.258 -0.3054  0.3489  0.2948
  119OSM    C7S12541   0.965   6.548  10.266 -0.9043  0.4314 -0.1818
  119OSM    H7S12542   0.946   6.620  10.348 -0.2297  0.4153 -0.0008
  119OSM    H7T12543   0.897   6.465  10.295 -0.6332  0.6637  1.1945
  119OSM    C8S12544   0.936   6.608  10.128 -0.1695 -0.2846 -0.4367
  119OSM    H8S12545   0.974   6.711  10.116  0.0249 -0.2765  0.2131
  119OSM    H8T12546   0.825   6.614  10.128 -0.0895  2.3148 -0.6215
  119OSM    C9S12547   0.984   6.516  10.011 -0.9495  0.0276 -0.7933
  119OSM    H9S12548   0.942   6.416  10.036 -0.2440 -0.1903 -0.4549
  119OSM    H9T12549   1.095   6.510  10.016 -0.9641  0.2194 -0.1771
  119OSM   C10S12550   0.943   6.579   9.882 -0.2972  0.3044  0.8148
  119OSM   H10S12551   0.989   6.681   9.879 -1.8894  1.0513 -2.0479
  119OSM   H10T12552   0.834   6.598   9.894 -0.0873  1.0433  1.6947
  119OSM   C11S12553   0.968   6.499   9.756 -0.3674  0.4919  0.0968
  119OSM   H11S12554   0.917   6.401   9.766  0.8481 -0.3321 -1.3646
  119OSM   H11T12555   1.078   6.487   9.751 -0.5957 -2.3192  0.2328
  119OSM   C12S12556   0.917   6.568   9.628 -0.4925  0.3669 -0.2156
  119OSM   H12S12557   0.940   6.676   9.622 -0.9787  0.4632 -0.4324
  119OSM   H12T12558   0.806   6.561   9.637 -0.4614  0.9914  0.7659
  119OSM   C13S12559   0.962   6.509   9.494 -0.7207 -0.0836  0.3475
  119OSM   H13S12560   0.936   6.401   9.497  1.3259 -0.7087 -1.6392
  119OSM   H13T12561   1.072   6.517   9.486 -0.7117  0.4753  0.9350
  119OSM   C14S12562   0.899   6.580   9.372  0.2652 -0.3610  0.3630
  119OSM   H14S12563   0.806   6.628   9.409 -0.2328 -1.1092  0.0841
  119OSM   H14T12564   0.876   6.504   9.296 -0.5877  0.3695 -0.1231
  119OSM   C15S12565   0.988   6.691   9.308  0.1020 -0.1859  0.2266
  119OSM   H15S12566   0.997   6.771   9.385 -0.1484 -0.2880  0.3610
  119OSM   H15T12567   0.944   6.746   9.222  0.5764  1.0335  0.7277
  119OSM   C16S12568   1.140   6.647   9.260  0.3661 -0.0275 -0.3622
  119OSM   H16S12569   1.191   6.601   9.348  1.2547 -1.7060 -1.6895
  119OSM   H16T12570   1.196   6.741   9.239  0.0717  0.3626  0.5418
  119OSM   C17S12571   1.158   6.545   9.149  0.3006 -0.2941 -0.4326
  119OSM   H17S12572   1.109   6.452   9.186 -1.9617  0.5093 -1.2062
  119OSM   H17T12573   1.265   6.531   9.124  0.5214 -0.1827  0.4450
  119OSM   C18S12574   1.090   6.593   9.017  0.0115 -0.8236 -0.3883
  119OSM   H18S12575   0.981   6.578   9.028  0.1123 -1.7660 -0.5832
  119OSM   H18T12576   1.134   6.527   8.939  2.2043 -0.6830  0.6537
  119OSM   H18U12577   1.107   6.702   9.008  0.4719 -1.0277 -2.4656
  119OSM    C1F12578   1.613   6.451  10.573 -0.1929 -0.1999  0.1004
  119OSM     OF12579   1.629   6.331  10.573 -0.0337  0.1594 -0.1549
  119OSM    C2F12580   1.722   6.541  10.527  0.0904  0.1408 -0.1188
  119OSM    H2F12581   1.791   6.551  10.614 -0.4872 -3.7404  0.9503
  119OSM    H2G12582   1.684   6.643  10.506  0.0222 -0.2557 -2.0918
  119OSM    C3F12583   1.796   6.489  10.402 -0.5969 -0.5006 -0.4011
  119OSM    H3F12584   1.843   6.391  10.423  0.7836  0.1794 -0.2531
  119OSM    H3G12585   1.876   6.565  10.393 -0.4038 -0.3983  1.6841
  119OSM    C4F12586   1.711   6.485  10.276 -0.5068 -0.4127 -0.5460
  119OSM    H4F12587   1.652   6.578  10.291 -0.2314 -0.6010  2.1666
  119OSM    H4G12588   1.635   6.403  10.280  0.1695 -1.1955 -2.5812
  119OSM    C5F12589   1.786   6.471  10.144 -0.7652  0.2416  0.5656
  119OSM    H5F12590   1.868   6.396  10.148 -0.4356  0.4138 -1.8049
  119OSM    H5G12591   1.839   6.565  10.119 -2.0661  1.0675  0.8690
  119OSM    C6F12592   1.705   6.409  10.030  0.3786  0.1664  0.2444
  119OSM    H6F12593   1.598   6.432  10.051 -0.2766 -1.8537 -0.6360
  119OSM    H6G12594   1.722   6.300  10.018 -1.8035 -0.0774 -1.1522
  119OSM    C7F12595   1.739   6.472   9.896  0.0480  0.4332  0.0007
  119OSM    H7F12596   1.842   6.441   9.868 -0.7431 -0.6752 -1.9055
  119OSM    H7G12597   1.725   6.582   9.896  1.6173  0.7712 -3.4723
  119OSM    C8F12598   1.645   6.412   9.788 -0.5366 -1.4263  0.1442
  119OSM    H8F12599   1.541   6.451   9.797 -0.0414 -0.4918  2.4816
  119OSM    H8G12600   1.647   6.302   9.805  0.7279 -1.4384  0.0027
  119OSM    C9F12601   1.693   6.439   9.645 -0.0513  0.8591 -0.3010
  119OSM    H9F12602   1.639   6.511   9.582 -0.5726  1.3909  0.7247
  119OSM   C10F12603   1.791   6.364   9.591 -1.0317 -0.0969  0.9546
  119OSM   H10F12604   1.830   6.392   9.492  2.1426 -0.7799  1.8773
  119OSM   C11F12605   1.868   6.246   9.649  0.4119  0.4446  0.0464
  119OSM   H11F12606   1.848   6.241   9.758 -0.7064 -1.2674 -0.2105
  119OSM   H11G12607   1.977   6.262   9.638  0.8053 -0.0278  2.5641
  119OSM   C12F12608   1.813   6.115   9.586  0.1975 -0.4229  0.3831
  119OSM   H12F12609   1.707   6.087   9.606  0.0506 -1.0246 -1.1080
  119OSM   H12G12610   1.870   6.028   9.624 -0.3072 -1.0366 -0.2514
  119OSM   C13F12611   1.828   6.109   9.436  0.5662  0.6642 -0.0767
  119OSM   H13F12612   1.933   6.121   9.403  1.5704 -0.4863  2.4279
  119OSM   H13G12613   1.755   6.183   9.397  2.5268  1.9243 -1.5144
  119OSM   C14F12614   1.792   5.969   9.392 -0.3478 -0.8276  0.2964
  119OSM   H14F12615   1.731   5.919   9.470 -1.9295  0.3685 -0.1185
  119OSM   H14G12616   1.890   5.916   9.386 -0.3030 -0.6484 -0.8132
  119OSM   C15F12617   1.738   5.970   9.245 -0.0398  0.2504 -0.5132
  119OSM   H15F12618   1.645   6.030   9.246  1.0170  2.0247  2.3980
  119OSM   H15G12619   1.707   5.870   9.208  0.6508  0.2651 -1.1728
  119OSM   C16F12620   1.825   6.027   9.135  0.2851  0.2363  0.5278
  119OSM   H16F12621   1.908   5.957   9.110 -0.4690 -0.2381 -0.7575
  119OSM   H16G12622   1.872   6.121   9.171  0.8893  0.5345 -0.9736
  119OSM   C17F12623   1.756   6.052   8.997  0.2484 -0.0843 -0.2565
  119OSM   H17F12624   1.667   6.113   9.024  0.1733 -1.5911  3.5761
  119OSM   H17G12625   1.730   5.951   8.960 -1.4773 -0.0965  0.8886
  119OSM   C18F12626   1.859   6.107   8.894  0.7061  0.4224 -0.4260
  119OSM   H18F12627   1.801   6.118   8.800 -1.9177 -1.6874  0.8338
  119OSM   H18G12628   1.936   6.027   8.885  0.2621 -0.3156  1.6920
  119OSM   H18H12629   1.915   6.199   8.920 -1.0610  0.6217  3.1740
  120OSM      N12630   6.375   2.608  10.858  0.4682  0.8791 -0.1847
  120OSM    C1512631   6.252   2.580  10.929  0.6407  0.4950 -0.8405
  120OSM   H15A12632   6.251   2.586  11.037  0.6235 -0.7514 -0.7571
  120OSM   H15B12633   6.220   2.479  10.906 -3.5575  1.2154  0.9336
  120OSM   H15C12634   6.163   2.637  10.906 -0.9612 -1.4245  0.2486
  120OSM    C1412635   6.349   2.611  10.709  0.3647 -0.2826  0.9054
  120OSM   H14A12636   6.265   2.674  10.685  0.8893  1.3098  2.9593
  120OSM   H14B12637   6.324   2.510  10.679 -0.2655  0.3852 -0.9056
  120OSM   H14C12638   6.437   2.642  10.656 -0.2520 -0.9073 -0.5473
  120OSM    C1312639   6.418   2.743  10.901 -0.2994  0.7127  0.4251
  120OSM   H13A12640   6.354   2.824  10.869 -0.0834  0.4348 -0.7750
  120OSM   H13B12641   6.513   2.777  10.862  0.1999 -1.6168 -0.5061
  120OSM   H13C12642   6.413   2.754  11.008 -0.7671  1.9121  0.2975
  120OSM    C1212643   6.486   2.508  10.895  0.3054  0.2328  0.7033
  120OSM   H12A12644   6.452   2.406  10.884  1.7271 -0.1112 -0.9739
  120OSM   H12B12645   6.509   2.521  10.999 -1.1764  0.8597  0.9749
  120OSM    C1112646   6.614   2.506  10.803 -0.8533  0.0401  0.0205
  120OSM   H11A12647   6.584   2.499  10.696  1.2705  1.5615 -0.7454
  120OSM   H11B12648   6.661   2.413  10.841  0.9116  0.7785 -0.2702
  120OSM      P12649   6.814   2.649  10.739  0.1783 -0.0160  0.0162
  120OSM    O1312650   6.923   2.704  10.820 -0.5839 -0.1398 -0.8294
  120OSM    O1412651   6.852   2.528  10.662  0.4909 -0.7831 -0.2934
  120OSM    O1112652   6.762   2.761  10.639  0.0845  0.2037 -1.3160
  120OSM    O1212653   6.697   2.615  10.837 -0.2898  0.2072  0.1627
  120OSM    C1S12654   6.827   2.797  10.526 -0.4772  0.4332  0.3279
  120OSM    H1S12655   6.935   2.819  10.538 -0.4308 -0.5359  1.8856
  120OSM    H1T12656   6.794   2.897  10.488 -1.5810  0.0454  0.2242
  120OSM     NF12657   6.896   2.711  10.302  0.8759 -0.3114  0.3997
  120OSM    HNF12658   6.860   2.752  10.218  0.8301 -0.4605  0.3464
  120OSM    C2S12659   6.801   2.697  10.412 -0.1266 -0.5437 -0.0331
  120OSM    H2S12660   6.813   2.593  10.448  2.7968  0.5291  2.6092
  120OSM    C3S12661   6.649   2.699  10.381  0.1545 -0.4694  0.9274
  120OSM    H3S12662   6.617   2.802  10.355 -0.8941 -1.5251 -2.5229
  120OSM     O312663   6.569   2.668  10.486  1.0932 -0.2103 -0.5186
  120OSM    HO312664   6.622   2.627  10.553  0.8358 -1.9388 -1.3264
  120OSM    C4S12665   6.626   2.601  10.261  0.5027 -0.7006  0.0157
  120OSM    H4S12666   6.635   2.649  10.162  0.3416 -1.6721 -0.4820
  120OSM    C5S12667   6.589   2.473  10.268  0.9093  0.5538 -0.7239
  120OSM    H5S12668   6.555   2.439  10.367  1.5785 -2.9588 -1.5469
  120OSM    C6S12669   6.555   2.382  10.155 -0.8826  0.4073  0.3058
  120OSM    H6S12670   6.458   2.337  10.187 -0.3909  0.1234  1.4374
  120OSM    H6T12671   6.624   2.295  10.159 -1.3540  0.0364  0.5641
  120OSM    C7S12672   6.548   2.442  10.012  0.3837 -0.0182 -0.1648
  120OSM    H7S12673   6.546   2.358   9.938 -2.2298  0.4246 -0.6965
  120OSM    H7T12674   6.639   2.503   9.991  0.2287  0.9530  1.8214
  120OSM    C8S12675   6.416   2.510   9.982  0.1306  0.4638 -0.2158
  120OSM    H8S12676   6.405   2.589  10.059 -1.0313 -1.8322  2.1267
  120OSM    H8T12677   6.328   2.444   9.997  0.3655 -0.4235 -2.2874
  120OSM    C9S12678   6.420   2.575   9.839  0.5078 -0.1522 -0.3062
  120OSM    H9S12679   6.515   2.632   9.826  0.0420  0.7190 -0.0093
  120OSM    H9T12680   6.335   2.647   9.838  0.3396 -0.3364 -1.4893
  120OSM   C10S12681   6.391   2.474   9.732  0.3911 -0.1058  0.5608
  120OSM   H10S12682   6.309   2.402   9.756  0.0720  0.7414  2.1888
  120OSM   H10T12683   6.477   2.404   9.724 -2.7100 -4.1830 -0.9794
  120OSM   C11S12684   6.377   2.529   9.587  0.3930 -0.1491 -0.6939
  120OSM   H11S12685   6.464   2.578   9.539  1.8356 -0.7617  1.1680
  120OSM   H11T12686   6.282   2.587   9.594  0.0164 -0.4192 -2.8784
  120OSM   C12S12687   6.338   2.417   9.488  0.5342 -0.3544 -0.1695
  120OSM   H12S12688   6.261   2.353   9.536  1.1561 -0.8202  0.2282
  120OSM   H12T12689   6.432   2.360   9.475  1.7727  1.6986 -0.7120
  120OSM   C13S12690   6.305   2.471   9.351  0.0406  0.0239 -0.2470
  120OSM   H13S12691   6.375   2.556   9.336  0.9231 -0.2641  1.8257
  120OSM   H13T12692   6.201   2.511   9.361 -0.0944  0.1642 -2.0324
  120OSM   C14S12693   6.319   2.369   9.236  0.7143 -0.1151 -0.2706
  120OSM   H14S12694   6.250   2.286   9.264 -0.7084  1.6162  1.6293
  120OSM   H14T12695   6.426   2.340   9.222  0.8889 -0.2878  1.2880
  120OSM   C15S12696   6.245   2.422   9.105 -0.7194  0.0111 -0.1765
  120OSM   H15S12697   6.312   2.502   9.066  1.4179  0.3096  3.5253
  120OSM   H15T12698   6.146   2.464   9.134 -0.5230  1.4511 -1.4558
  120OSM   C16S12699   6.226   2.315   9.001 -0.0326  0.6732  0.0343
  120OSM   H16S12700   6.168   2.370   8.923 -0.3309 -0.9433 -0.9410
  120OSM   H16T12701   6.163   2.229   9.030  1.3620 -0.9499 -1.5426
  120OSM   C17S12702   6.356   2.278   8.938  0.0813  0.3050  0.3923
  120OSM   H17S12703   6.434   2.247   9.011  0.7507 -1.4071 -0.9733
  120OSM   H17T12704   6.413   2.362   8.894 -0.0282 -0.2739 -0.9019
  120OSM   C18S12705   6.343   2.168   8.829 -0.0504  0.4599  0.2936
  120OSM   H18S12706   6.293   2.208   8.738  1.6703 -2.7206 -2.2747
  120OSM   H18T12707   6.278   2.083   8.860  1.3346 -0.7556  0.0100
  120OSM   H18U12708   6.442   2.139   8.789  0.8646  0.6380  2.2868
  120OSM    C1F12709   7.032   2.691  10.308 -0.2646  0.1206 -0.2322
  120OSM     OF12710   7.086   2.634  10.406 -0.3164  0.9269 -0.0188
  120OSM    C2F12711   7.111   2.751  10.194  0.1528  0.0544 -0.6187
  120OSM    H2F12712   7.142   2.853  10.226 -1.1078 -0.2866  2.0195
  120OSM    H2G12713   7.047   2.746  10.103  1.3398  0.5883 -1.5020
  120OSM    C3F12714   7.236   2.672  10.164 -0.1005  0.9944 -0.2438
  120OSM    H3F12715   7.201   2.568  10.144 -1.7819  1.4413  0.2194
  120OSM    H3G12716   7.304   2.666  10.252 -1.0342 -0.6055  0.4163
  120OSM    C4F12717   7.298   2.712  10.026  0.3472 -0.2998  0.2741
  120OSM    H4F12718   7.381   2.639  10.015  3.4261  3.0970 -1.0226
  120OSM    H4G12719   7.344   2.812  10.045 -1.2243  0.3137  1.0679
  120OSM    C5F12720   7.213   2.708   9.904 -0.1085 -0.6109  0.8532
  120OSM    H5F12721   7.153   2.801   9.903  2.4926  1.1967  0.9423
  120OSM    H5G12722   7.140   2.625   9.914  0.8937 -1.6665 -0.3159
  120OSM    C6F12723   7.293   2.706   9.776  0.1535  0.0646  0.3415
  120OSM    H6F12724   7.380   2.638   9.783  0.7042  0.7116 -0.0656
  120OSM    H6G12725   7.346   2.804   9.767 -0.5093  0.3178 -0.9721
  120OSM    C7F12726   7.210   2.671   9.655 -0.0204  0.4538 -0.2103
  120OSM    H7F12727   7.121   2.734   9.633 -0.1701  0.1104 -0.6049
  120OSM    H7G12728   7.159   2.573   9.658 -0.6428  0.7511 -0.7331
  120OSM    C8F12729   7.300   2.671   9.530 -0.0718 -0.7548  0.1961
  120OSM    H8F12730   7.391   2.608   9.541  0.2652 -0.4683 -0.8322
  120OSM    H8G12731   7.328   2.778   9.515 -1.2055 -0.4850 -0.0344
  120OSM    C9F12732   7.235   2.622   9.402  0.6383 -0.9424  0.2490
  120OSM    H9F12733   7.135   2.577   9.414  0.6881 -1.6345 -1.5420
  120OSM   C10F12734   7.282   2.628   9.280 -0.3587 -0.5182 -0.7387
  120OSM   H10F12735   7.208   2.587   9.210 -1.4423 -1.4268  0.8713
  120OSM   C11F12736   7.414   2.675   9.216  0.1452  0.5345 -0.5845
  120OSM   H11F12737   7.481   2.606   9.270  0.3926  0.4946 -0.9384
  120OSM   H11G12738   7.434   2.782   9.240 -0.6609  0.1337  2.1463
  120OSM   C12F12739   7.414   2.657   9.061  0.0701 -0.2251 -0.0773
  120OSM   H12F12740   7.366   2.747   9.017  2.5500  0.3324 -1.9098
  120OSM   H12G12741   7.361   2.565   9.029 -1.5500  1.2709 -1.9738
  120OSM   C13F12742   7.552   2.662   9.003  0.1627  0.0647 -0.0252
  120OSM   H13F12743   7.625   2.599   9.059  1.1111  2.0217  1.0757
  120OSM   H13G12744   7.595   2.764   9.015 -2.2895  0.9486  2.1002
  120OSM   C14F12745   7.550   2.642   8.851 -0.2445  0.2307  0.1073
  120OSM   H14F12746   7.492   2.710   8.785 -2.0420 -0.9202  0.4392
  120OSM   H14G12747   7.503   2.542   8.843  1.8710 -0.9312  1.2442
  120OSM   C15F12748   7.695   2.630   8.800  0.5408  0.4008  0.2430
  120OSM   H15F12749   7.733   2.541   8.855 -1.2919 -0.5727  0.0211
  120OSM   H15G12750   7.751   2.720   8.832  0.4686  0.4205  0.3150
  120OSM   C16F12751   7.703   2.602   8.652  0.5884  0.2543  0.6639
  120OSM   H16F12752   7.647   2.680   8.597  0.1275 -0.1472  0.5585
  120OSM   H16G12753   7.668   2.501   8.620  2.0511 -0.4919  1.3169
  120OSM   C17F12754   7.847   2.618   8.592 -0.0096 -0.0641  0.1692
  120OSM   H17F12755   7.902   2.538   8.647 -1.1417 -0.8389  0.2095
  120OSM   H17G12756   7.902   2.710   8.622  1.2822 -1.1704  1.3744
  120OSM   C18F12757   7.865   2.594   8.442  1.0569 -0.0807 -0.2759
  120OSM   H18F12758   7.880   2.486   8.423  0.2737 -0.5186  1.4208
  120OSM   H18G12759   7.941   2.657   8.391 -0.0244 -0.7012 -2.8270
  120OSM   H18H12760   7.768   2.616   8.392  0.1027 -0.6115  1.2842
  121OSM      N12761   0.134   6.385  10.978  0.5329  0.4244 -0.3556
  121OSM    C1512762   0.063   6.281  10.896  0.5481  0.0048 -0.2498
  121OSM   H15A12763  -0.023   6.237  10.945 -0.2873  2.5843  0.8464
  121OSM   H15B12764   0.130   6.202  10.866  2.3373  0.1640  2.8172
  121OSM   H15C12765   0.034   6.324  10.801  1.0437 -0.5954 -0.6751
  121OSM    C1412766   0.033   6.493  11.017  0.1577  0.7061  0.0646
  121OSM   H14A12767   0.080   6.567  11.079 -1.5744  1.3020  0.7200
  121OSM   H14B12768  -0.060   6.464  11.063  0.4254  0.9888  0.7880
  121OSM   H14C12769  -0.004   6.546  10.930  0.5767 -1.4954 -1.5365
  121OSM    C1312770   0.183   6.324  11.104 -0.2908  0.5462  0.4175
  121OSM   H13A12771   0.097   6.306  11.166  1.0642 -0.6764  2.0183
  121OSM   H13B12772   0.254   6.386  11.158  0.7421  0.8800 -1.2126
  121OSM   H13C12773   0.232   6.232  11.077 -1.0254 -0.1992  1.5697
  121OSM    C1212774   0.245   6.444  10.894 -0.1455 -0.1024 -0.3761
  121OSM   H12A12775   0.302   6.523  10.941  0.2353 -0.6911  0.1622
  121OSM   H12B12776   0.204   6.495  10.808 -0.1314 -0.6061 -0.6839
  121OSM    C1112777   0.339   6.338  10.834  0.1712 -0.0731  0.5804
  121OSM   H11A12778   0.280   6.281  10.758 -0.0649  1.2962 -0.3029
  121OSM   H11B12779   0.375   6.265  10.910 -1.5971 -2.2477 -0.5594
  121OSM      P12780   0.599   6.395  10.812  0.1050  0.2116 -0.1903
  121OSM    O1312781   0.671   6.471  10.711 -0.2274  0.2792  0.5510
  121OSM    O1412782   0.600   6.438  10.954 -0.7423 -0.0433  0.1808
  121OSM    O1112783   0.621   6.238  10.805  0.2638 -0.2799 -0.2049
  121OSM    O1212784   0.445   6.404  10.770  0.7061  0.9234  0.3812
  121OSM    C1S12785   0.581   6.158  10.690 -0.5441 -0.1014 -0.0230
  121OSM    H1S12786   0.508   6.217  10.631 -0.4790  0.5399  0.5229
  121OSM    H1T12787   0.535   6.062  10.721 -1.3292  0.7516  1.6249
  121OSM     NF12788   0.666   6.077  10.478  0.2578  0.0597 -0.3946
  121OSM    HNF12789   0.676   5.978  10.468  1.8750  0.2918 -1.5455
  121OSM    C2S12790   0.707   6.128  10.597 -0.2724  0.2933 -0.2016
  121OSM    H2S12791   0.764   6.220  10.575 -0.4324  0.5982  0.6045
  121OSM    C3S12792   0.803   6.034  10.676  0.0255  0.8544  0.0597
  121OSM    H3S12793   0.749   5.940  10.703  0.8079  0.0380 -1.1096
  121OSM     O312794   0.851   6.083  10.799  0.0578 -0.2770  0.1574
  121OSM    HO312795   0.787   6.152  10.819 -1.9668 -1.2960 -2.2734
  121OSM    C4S12796   0.930   5.998  10.603  0.6441 -0.5697  0.1358
  121OSM    H4S12797   0.989   6.088  10.580 -1.3771  1.2519  1.7131
  121OSM    C5S12798   0.976   5.877  10.576 -0.0200  0.0551 -0.7840
  121OSM    H5S12799   0.902   5.800  10.598  1.1521 -1.4319 -1.8443
  121OSM    C6S12800   1.105   5.843  10.504 -0.0627 -1.0021  1.0318
  121OSM    H6S12801   1.081   5.765  10.428  3.0783 -0.7203 -0.4202
  121OSM    H6T12802   1.173   5.803  10.582 -1.8008  0.4814  3.4534
  121OSM    C7S12803   1.189   5.955  10.432  0.5010 -0.0615  0.2282
  121OSM    H7S12804   1.294   5.918  10.431  0.4126 -0.3456 -1.4850
  121OSM    H7T12805   1.186   6.045  10.497  2.2343 -1.3499  2.2140
  121OSM    C8S12806   1.138   5.983  10.288 -0.9567  0.8015  0.2552
  121OSM    H8S12807   1.027   5.993  10.294 -0.9686 -0.0486  3.2181
  121OSM    H8T12808   1.165   5.901  10.219  0.3410  1.8200 -0.4894
  121OSM    C9S12809   1.205   6.110  10.227 -0.0985  0.0858  0.2268
  121OSM    H9S12810   1.312   6.096  10.256 -0.0073 -1.5889 -0.7638
  121OSM    H9T12811   1.171   6.201  10.280  0.3125 -0.1853  0.9887
  121OSM   C10S12812   1.188   6.129  10.073 -0.4654  0.3950 -0.4181
  121OSM   H10S12813   1.080   6.154  10.075 -1.1305 -2.1516 -0.1052
  121OSM   H10T12814   1.204   6.042  10.005 -0.3496  0.4747 -0.4927
  121OSM   C11S12815   1.283   6.243  10.027  0.2663  0.4472  0.4037
  121OSM   H11S12816   1.390   6.215  10.037  0.5713  1.6748  0.7262
  121OSM   H11T12817   1.257   6.320  10.102 -2.4420 -0.7395  0.7914
  121OSM   C12S12818   1.244   6.301   9.891 -0.0176 -0.1521 -0.4612
  121OSM   H12S12819   1.284   6.404   9.884 -1.8121  0.7550  1.4743
  121OSM   H12T12820   1.133   6.303   9.890 -0.0189 -0.3326 -1.1658
  121OSM   C13S12821   1.315   6.232   9.777 -0.6725  0.3350 -0.2671
  121OSM   H13S12822   1.295   6.123   9.783 -2.3303  0.6762  0.9672
  121OSM   H13T12823   1.425   6.247   9.785 -0.6240 -0.6117  1.5556
  121OSM   C14S12824   1.265   6.274   9.637  0.0480  0.0037 -0.6093
  121OSM   H14S12825   1.302   6.379   9.636  2.6124 -0.7872  1.3180
  121OSM   H14T12826   1.154   6.266   9.633  0.0085  0.5997 -0.7857
  121OSM   C15S12827   1.330   6.195   9.519 -0.3490  0.2790  0.3926
  121OSM   H15S12828   1.273   6.100   9.515  1.1413 -0.6087 -0.8613
  121OSM   H15T12829   1.439   6.178   9.529 -0.4113 -1.2195 -1.0815
  121OSM   C16S12830   1.299   6.258   9.386 -0.2966 -0.1588  0.2084
  121OSM   H16S12831   1.338   6.362   9.391 -1.0810  0.2030 -0.7376
  121OSM   H16T12832   1.190   6.277   9.380 -0.1788  0.3421 -0.5648
  121OSM   C17S12833   1.362   6.176   9.271  0.1239 -0.4584  0.7640
  121OSM   H17S12834   1.309   6.079   9.260 -0.1244 -0.0678 -2.4626
  121OSM   H17T12835   1.469   6.160   9.294  0.2151  1.3726  1.8275
  121OSM   C18S12836   1.350   6.241   9.133  0.5120  0.7117  0.3491
  121OSM   H18S12837   1.394   6.161   9.069 -0.3496 -1.9256  2.8124
  121OSM   H18T12838   1.411   6.333   9.141 -1.2482  1.7633  3.1402
  121OSM   H18U12839   1.244   6.261   9.104  0.5296  2.2092  1.2104
  121OSM    C1F12840   0.595   6.145  10.385 -0.2025  0.8611 -0.3803
  121OSM     OF12841   0.565   6.262  10.392 -0.6029  0.1487 -0.5450
  121OSM    C2F12842   0.544   6.064  10.277 -0.2789 -0.2238  0.4411
  121OSM    H2F12843   0.468   6.121  10.219  2.3374  0.1375 -2.9898
  121OSM    H2G12844   0.493   5.976  10.322  1.5873 -1.8166 -0.4110
  121OSM    C3F12845   0.656   6.022  10.174  0.8227 -0.0078  0.0725
  121OSM    H3F12846   0.635   5.922  10.131  1.0956 -0.9632  2.0213
  121OSM    H3G12847   0.744   5.984  10.231  0.2277 -2.9781 -0.7961
  121OSM    C4F12848   0.684   6.120  10.064  0.2442  0.5562 -0.0596
  121OSM    H4F12849   0.732   6.211  10.105  0.7970  0.6356 -0.8488
  121OSM    H4G12850   0.582   6.143  10.027 -0.5080  0.2136  1.7017
  121OSM    C5F12851   0.768   6.046   9.966 -0.9908  0.0390  0.0673
  121OSM    H5F12852   0.714   5.962   9.918 -0.6742 -2.6845  4.0098
  121OSM    H5G12853   0.851   5.984  10.006 -1.2458 -1.9999 -2.3297
  121OSM    C6F12854   0.840   6.143   9.869 -0.2079  0.0757 -0.2581
  121OSM    H6F12855   0.893   6.210   9.941 -0.3698 -0.3758  0.2861
  121OSM    H6G12856   0.775   6.202   9.801  0.3144 -0.3183 -1.1117
  121OSM    C7F12857   0.927   6.063   9.779  0.0561  0.6770  0.2348
  121OSM    H7F12858   0.995   6.001   9.841 -1.9662  0.2914  2.2191
  121OSM    H7G12859   1.000   6.130   9.730 -1.4096  2.0172 -0.1670
  121OSM    C8F12860   0.849   5.991   9.667 -0.1843  0.1071 -0.1507
  121OSM    H8F12861   0.796   5.903   9.710  0.1625  1.2546  2.8421
  121OSM    H8G12862   0.929   5.937   9.611  0.2592  0.1362  0.4446
  121OSM    C9F12863   0.771   6.083   9.575  0.0240  0.2982  0.0741
  121OSM    H9F12864   0.667   6.088   9.611 -0.9506 -2.1176 -2.0450
  121OSM   C10F12865   0.811   6.141   9.457  0.0701 -0.3867 -0.0512
  121OSM   H10F12866   0.741   6.200   9.396  0.7355  0.4553 -0.0117
  121OSM   C11F12867   0.943   6.127   9.395 -0.4942  0.1937 -0.3682
  121OSM   H11F12868   0.975   6.021   9.392 -0.6542  0.0858  1.0998
  121OSM   H11G12869   1.019   6.181   9.456 -2.0293  1.1830  0.7385
  121OSM   C12F12870   0.945   6.186   9.259  0.5435  0.2409  0.0181
  121OSM   H12F12871   1.054   6.194   9.236  0.4851  2.6481  0.2757
  121OSM   H12G12872   0.893   6.284   9.263 -2.6949 -1.2586 -1.4202
  121OSM   C13F12873   0.858   6.105   9.155 -0.3050 -0.9407  0.0447
  121OSM   H13F12874   0.750   6.112   9.178 -0.5461 -2.7981 -0.4096
  121OSM   H13G12875   0.889   6.002   9.182 -0.0347 -1.1176 -0.8892
  121OSM   C14F12876   0.875   6.159   9.011  0.4395  0.5771 -0.2322
  121OSM   H14F12877   0.904   6.266   9.020  0.8616  0.4066  0.5355
  121OSM   H14G12878   0.787   6.136   8.947 -1.7548 -1.4485  3.1875
  121OSM   C15F12879   0.992   6.087   8.940  0.2056 -0.5177  0.1817
  121OSM   H15F12880   0.954   5.984   8.923 -1.7781  0.5274 -2.3381
  121OSM   H15G12881   1.088   6.090   8.996  0.0869  0.3604  0.3450
  121OSM   C16F12882   1.001   6.141   8.793 -0.6698  0.2691  0.1796
  121OSM   H16F12883   0.912   6.119   8.730  1.4067  0.4084 -3.0314
  121OSM   H16G12884   1.072   6.072   8.743 -1.5604 -0.8218  0.3610
  121OSM   C17F12885   1.046   6.282   8.775  0.8316 -0.3416  0.4694
  121OSM   H17F12886   1.116   6.304   8.859 -1.1851  0.4816  2.0157
  121OSM   H17G12887   0.961   6.353   8.784  0.0415 -0.9962 -1.4168
  121OSM   C18F12888   1.112   6.298   8.633  0.0006 -0.4500  0.6329
  121OSM   H18F12889   1.095   6.400   8.592  0.1267 -1.4319 -2.0482
  121OSM   H18G12890   1.061   6.233   8.559  1.0093  1.0196 -1.4423
  121OSM   H18H12891   1.217   6.267   8.652 -0.1271 -0.2213  1.7613
  122OSM      N12892   0.623   3.068  10.939  0.5305  0.0852  0.1003
  122OSM    C1512893   0.764   3.107  10.923 -0.2232  0.5310  0.2788
  122OSM   H15A12894   0.783   3.194  10.985  2.9716  0.8420 -0.9588
  122OSM   H15B12895   0.784   3.126  10.819 -2.4834 -0.8096 -0.4631
  122OSM   H15C12896   0.833   3.029  10.950  0.6581  1.0359 -0.4439
  122OSM    C1412897   0.575   2.975  10.827  0.3622 -0.5574  0.0406
  122OSM   H14A12898   0.473   2.951  10.852  0.5139 -0.8784  0.3519
  122OSM   H14B12899   0.642   2.891  10.829 -0.3065 -1.1120  2.4564
  122OSM   H14C12900   0.567   3.022  10.730  1.8315  0.6104  0.4406
  122OSM    C1312901   0.606   2.989  11.070 -0.2515 -0.1574  0.4534
  122OSM   H13A12902   0.502   2.967  11.088 -0.6099  1.1890  0.1724
  122OSM   H13B12903   0.644   3.053  11.148 -0.4360  0.2602  0.2070
  122OSM   H13C12904   0.663   2.899  11.082 -0.6119 -0.3217  0.9883
  122OSM    C1212905   0.536   3.196  10.935  1.0789  0.4890 -0.1076
  122OSM   H12A12906   0.432   3.167  10.935  0.0757  3.2519  3.5028
  122OSM   H12B12907   0.558   3.248  10.843  0.0098  0.3731 -0.4454
  122OSM    C1112908   0.540   3.294  11.056  0.1439  0.5195  0.2032
  122OSM   H11A12909   0.516   3.232  11.146  1.0986 -0.3368 -0.1197
  122OSM   H11B12910   0.469   3.378  11.040 -1.2788 -0.9856 -1.7433
  122OSM      P12911   0.728   3.466  11.005 -0.3280 -0.0151 -0.3526
  122OSM    O1312912   0.673   3.586  11.071 -0.1732  0.4590  0.8408
  122OSM    O1412913   0.876   3.457  11.006 -0.3170  0.1173 -0.4036
  122OSM    O1112914   0.672   3.483  10.860  0.0831  0.2686  0.4465
  122OSM    O1212915   0.673   3.344  11.073  0.2818 -0.4695 -0.5851
  122OSM    C1S12916   0.759   3.431  10.753  0.2099  0.2084 -0.4351
  122OSM    H1S12917   0.817   3.343  10.788 -1.7416 -0.1894  2.1260
  122OSM    H1T12918   0.823   3.519  10.731 -0.8949  1.0513 -0.3775
  122OSM     NF12919   0.804   3.359  10.530 -0.9102 -0.5142 -0.3506
  122OSM    HNF12920   0.850   3.432  10.480  1.2455 -0.3695  1.6481
  122OSM    C2S12921   0.697   3.398  10.618  0.2955  0.1753  0.2336
  122OSM    H2S12922   0.626   3.312  10.622  1.6820 -1.0505 -0.4985
  122OSM    C3S12923   0.615   3.518  10.567  0.4434 -0.1093 -0.4130
  122OSM    H3S12924   0.686   3.603  10.557 -0.1499  0.7876  2.2265
  122OSM     O312925   0.509   3.550  10.656  0.2855  0.9754  0.5430
  122OSM    HO312926   0.499   3.471  10.709  0.9528 -0.1797 -0.9385
  122OSM    C4S12927   0.549   3.504  10.435 -0.3340  0.3639  0.2304
  122OSM    H4S12928   0.492   3.410  10.433 -1.2578  0.7705  2.8370
  122OSM    C5S12929   0.581   3.572  10.321 -0.1075 -0.5298 -0.5465
  122OSM    H5S12930   0.656   3.651  10.332 -0.7226  0.1254 -1.0230
  122OSM    C6S12931   0.537   3.543  10.183  0.7067  0.1315 -0.1414
  122OSM    H6S12932   0.467   3.457  10.184  0.3485  0.4194  1.6241
  122OSM    H6T12933   0.621   3.509  10.117  0.5562  0.2471 -0.3940
  122OSM    C7S12934   0.465   3.658  10.121  0.4830 -0.2196  0.5878
  122OSM    H7S12935   0.545   3.734  10.106  0.3754 -0.3731 -0.8851
  122OSM    H7T12936   0.398   3.706  10.195 -0.2868 -0.2369 -0.0865
  122OSM    C8S12937   0.387   3.627   9.991 -0.6083  0.5148 -0.3064
  122OSM    H8S12938   0.312   3.709   9.988 -1.1528 -0.0122 -1.6813
  122OSM    H8T12939   0.333   3.530  10.004 -0.0086  0.1942 -0.1852
  122OSM    C9S12940   0.466   3.637   9.862 -0.3687  0.6592 -0.1728
  122OSM    H9S12941   0.546   3.561   9.881  0.8461  2.6835  3.9053
  122OSM    H9T12942   0.508   3.740   9.865  0.9246  0.1881  3.3274
  122OSM   C10S12943   0.384   3.594   9.732 -0.1817 -0.1517  0.2297
  122OSM   H10S12944   0.296   3.658   9.708 -0.3469 -0.5285 -0.1799
  122OSM   H10T12945   0.349   3.490   9.743  1.2783 -0.6444  0.5216
  122OSM   C11S12946   0.474   3.597   9.607  0.3088  0.7376 -0.6008
  122OSM   H11S12947   0.558   3.527   9.625 -0.2521 -0.0635 -1.0683
  122OSM   H11T12948   0.515   3.700   9.593  0.7431  0.6167 -0.2705
  122OSM   C12S12949   0.399   3.555   9.478 -0.6644  0.3508  0.0586
  122OSM   H12S12950   0.312   3.625   9.477 -0.9254  0.0381 -1.7130
  122OSM   H12T12951   0.350   3.458   9.501 -0.6170  0.5334  1.0001
  122OSM   C13S12952   0.487   3.568   9.350 -0.4743 -0.2804 -0.1683
  122OSM   H13S12953   0.567   3.492   9.366  0.1468  0.0148 -1.7582
  122OSM   H13T12954   0.521   3.674   9.340  0.2375 -0.6365 -1.8521
  122OSM   C14S12955   0.414   3.528   9.222  0.0636  0.0864 -0.0525
  122OSM   H14S12956   0.336   3.606   9.207 -0.6980 -0.3938  1.1717
  122OSM   H14T12957   0.371   3.426   9.229 -1.7089  0.5485 -2.8863
  122OSM   C15S12958   0.508   3.512   9.104  0.0797 -0.0300  0.6481
  122OSM   H15S12959   0.576   3.425   9.119 -0.1663 -1.1802 -3.5788
  122OSM   H15T12960   0.581   3.596   9.098  0.1872 -0.0680  1.3887
  122OSM   C16S12961   0.443   3.488   8.958 -0.0254  0.4337 -0.1935
  122OSM   H16S12962   0.415   3.590   8.924  1.9138  0.8625 -0.6220
  122OSM   H16T12963   0.348   3.430   8.955 -0.4930  1.2387 -1.7013
  122OSM   C17S12964   0.541   3.413   8.867  0.3402 -0.2772  0.2643
  122OSM   H17S12965   0.500   3.386   8.768  4.8137  1.1686 -2.2851
  122OSM   H17T12966   0.559   3.326   8.934 -0.7453 -0.0540  0.8640
  122OSM   C18S12967   0.677   3.475   8.841  0.1569 -0.1362 -0.3267
  122OSM   H18S12968   0.763   3.404   8.850  0.4757  0.3842  1.0178
  122OSM   H18T12969   0.699   3.547   8.922  0.4676 -0.7454  0.1472
  122OSM   H18U12970   0.679   3.528   8.744  1.3690 -0.1593 -0.3398
  122OSM    C1F12971   0.855   3.238  10.536  0.1674 -1.1340 -0.6064
  122OSM     OF12972   0.799   3.157  10.611 -0.4126 -0.0897  0.2476
  122OSM    C2F12973   0.979   3.210  10.461  0.3226  0.2752  0.2369
  122OSM    H2F12974   1.054   3.181  10.538  1.3091  1.4901 -0.2373
  122OSM    H2G12975   1.025   3.305  10.427 -1.6786  0.7541 -1.3224
  122OSM    C3F12976   0.972   3.119  10.338 -0.0215  0.3951 -0.7336
  122OSM    H3F12977   0.937   3.016  10.357 -1.6694  0.9512 -0.5843
  122OSM    H3G12978   1.079   3.104  10.314  0.4669  1.3537  0.7198
  122OSM    C4F12979   0.914   3.200  10.217  0.0232  0.0893 -0.7562
  122OSM    H4F12980   0.935   3.309  10.228 -1.8349  0.4614 -0.6267
  122OSM    H4G12981   0.803   3.198  10.218 -0.0398  1.7158  0.8123
  122OSM    C5F12982   0.976   3.154  10.081 -0.4637 -0.3266  0.1076
  122OSM    H5F12983   0.955   3.045  10.066 -3.3351  0.1401  0.1053
  122OSM    H5G12984   1.086   3.164  10.084 -0.4754  0.1208 -0.7034
  122OSM    C6F12985   0.921   3.223   9.955  1.0032  0.2346 -0.4620
  122OSM    H6F12986   0.937   3.332   9.963 -0.3495  0.4142  0.1314
  122OSM    H6G12987   0.813   3.198   9.954  1.3676 -1.6505 -2.9408
  122OSM    C7F12988   0.977   3.169   9.821  0.0412  0.5478 -0.1442
  122OSM    H7F12989   0.896   3.184   9.746  1.3317  1.9979 -1.3335
  122OSM    H7G12990   0.997   3.060   9.827  0.4673  0.5182 -1.5495
  122OSM    C8F12991   1.105   3.229   9.768 -0.1042 -0.3936 -0.3574
  122OSM    H8F12992   1.186   3.215   9.842 -0.0160 -2.7301 -0.8230
  122OSM    H8G12993   1.094   3.338   9.747  0.1664  0.6143  3.7175
  122OSM    C9F12994   1.150   3.158   9.645  0.5615 -0.1254 -0.1567
  122OSM    H9F12995   1.085   3.070   9.630 -2.5349  2.2917 -2.1302
  122OSM   C10F12996   1.237   3.190   9.551 -0.5341  0.1332  0.0142
  122OSM   H10F12997   1.254   3.122   9.466  3.4315 -0.5234  1.1442
  122OSM   C11F12998   1.316   3.318   9.535 -0.6496  0.2401  0.3915
  122OSM   H11F12999   1.301   3.390   9.618  0.3525 -0.5027  1.2401
  122OSM   H11G13000   1.293   3.375   9.443 -1.0048 -1.7781 -0.8229
  122OSM   C12F13001   1.464   3.296   9.546 -1.3250  0.5974 -0.6087
  122OSM   H12F13002   1.507   3.394   9.517  0.1990  0.3818  0.7974
  122OSM   H12G13003   1.499   3.215   9.477 -3.1130  0.1564 -1.0631
  122OSM   C13F13004   1.514   3.252   9.688  0.7774  0.2353 -0.6076
  122OSM   H13F13005   1.459   3.164   9.729  1.7666 -0.0852  0.0862
  122OSM   H13G13006   1.477   3.334   9.754 -3.0335 -0.9184 -1.0883
  122OSM   C14F13007   1.664   3.235   9.705  0.1213  0.2050  0.3043
  122OSM   H14F13008   1.707   3.258   9.606 -1.1589 -3.8452 -1.3949
  122OSM   H14G13009   1.681   3.127   9.724 -0.2249  0.1641  0.3812
  122OSM   C15F13010   1.733   3.295   9.818  0.3608  0.3265  0.5487
  122OSM   H15F13011   1.699   3.247   9.912  1.2500 -0.6882  0.3649
  122OSM   H15G13012   1.707   3.403   9.830 -0.6856  0.3680 -1.5911
  122OSM   C16F13013   1.890   3.281   9.811  0.5105 -0.0844  0.1364
  122OSM   H16F13014   1.901   3.170   9.803 -0.1385 -0.0824 -1.0288
  122OSM   H16G13015   1.942   3.313   9.904  0.8625  0.5240 -0.2679
  122OSM   C17F13016   1.959   3.340   9.693  0.5737 -0.5437  1.3160
  122OSM   H17F13017   1.921   3.444   9.684  0.8696 -0.6262 -1.7436
  122OSM   H17G13018   1.924   3.286   9.603  0.8765 -0.2758  1.0359
  122OSM   C18F13019   2.110   3.333   9.687  0.5752  0.4557  0.6966
  122OSM   H18F13020   2.154   3.397   9.608  0.2499  0.6784  0.6967
  122OSM   H18G13021   2.157   3.234   9.666  3.4321  2.1732 -1.7451
  122OSM   H18H13022   2.138   3.355   9.792 -2.1373 -2.2778  2.1693
  123OSM      N13023   5.444   2.867   5.748  0.0742  0.0149 -0.3655
  123OSM    C1513024   5.315   2.866   5.676  0.3164  0.5343 -0.0268
  123OSM   H15A13025   5.253   2.942   5.720  0.9153 -0.1780  2.1891
  123OSM   H15B13026   5.271   2.767   5.684  2.1172 -0.2449  0.9399
  123OSM   H15C13027   5.329   2.883   5.571  2.4556  2.0984  0.4344
  123OSM    C1413028   5.531   2.756   5.712 -0.6101  0.4828  0.4597
  123OSM   H14A13029   5.637   2.761   5.736 -0.1694 -0.7578 -1.0366
  123OSM   H14B13030   5.519   2.738   5.606 -0.7419  1.0510  0.3716
  123OSM   H14C13031   5.505   2.666   5.765 -2.6977 -0.3938 -1.8765
  123OSM    C1313032   5.506   2.999   5.700  0.7225  0.7718 -0.5591
  123OSM   H13A13033   5.589   3.023   5.765 -0.9316  2.3364  1.1136
  123OSM   H13B13034   5.439   3.084   5.711 -0.9012 -0.3306 -1.4853
  123OSM   H13C13035   5.542   2.991   5.599  0.1942  2.1516 -0.8798
  123OSM    C1213036   5.424   2.873   5.896  1.1703 -0.4252  0.0368
  123OSM   H12A13037   5.347   2.802   5.921  0.2174  1.1252  1.6818
  123OSM   H12B13038   5.377   2.968   5.912 -2.0599 -1.6379 -1.1687
  123OSM    C1113039   5.546   2.855   5.988 -0.0181  0.1610  0.5910
  123OSM   H11A13040   5.535   2.915   6.081  0.9926  3.1540 -1.0929
  123OSM   H11B13041   5.624   2.910   5.930 -0.1278  3.0410  2.9424
  123OSM      P13042   5.700   2.649   6.020 -0.1762  0.1209  0.0320
  123OSM    O1313043   5.704   2.522   5.951  0.6921  0.2056  0.0877
  123OSM    O1413044   5.799   2.747   5.982  0.7732  0.5777  0.2694
  123OSM    O1113045   5.734   2.638   6.173 -0.8317 -0.1245 -0.5863
  123OSM    O1213046   5.555   2.708   6.007  0.4992  0.5320 -0.3387
  123OSM    C1S13047   5.624   2.639   6.264 -0.0343 -0.4358  0.2405
  123OSM    H1S13048   5.560   2.553   6.234  1.9741 -1.1773 -2.3032
  123OSM    H1T13049   5.558   2.728   6.254  2.2948  1.2574 -0.7987
  123OSM     NF13050   5.559   2.622   6.509 -0.5779  1.0060  0.1377
  123OSM    HNF13051   5.559   2.689   6.582  1.2713  0.7138  0.4654
  123OSM    C2S13052   5.671   2.633   6.415  0.1471  0.5164  0.4338
  123OSM    H2S13053   5.721   2.534   6.422 -3.3777 -1.7065 -2.0628
  123OSM    C3S13054   5.772   2.743   6.453 -0.1182  0.0133 -0.6557
  123OSM    H3S13055   5.726   2.844   6.453 -1.2582 -0.4175 -3.2999
  123OSM     O313056   5.880   2.756   6.364 -0.3263 -0.1742  0.2631
  123OSM    HO313057   5.849   2.724   6.279  0.9728 -1.0676  0.0989
  123OSM    C4S13058   5.827   2.715   6.594  0.5967  0.0322 -0.2498
  123OSM    H4S13059   5.754   2.730   6.676  1.6479 -0.3164  0.7850
  123OSM    C5S13060   5.949   2.680   6.641  0.1196 -0.4938  0.8541
  123OSM    H5S13061   6.032   2.666   6.571 -0.8863  0.5969 -0.6207
  123OSM    C6S13062   5.977   2.667   6.791 -0.2419 -0.4564  0.2544
  123OSM    H6S13063   6.084   2.698   6.795 -0.6102  1.1118 -1.0075
  123OSM    H6T13064   5.967   2.566   6.835 -0.4331 -0.7148 -0.3758
  123OSM    C7S13065   5.903   2.764   6.884 -0.5054  0.1873  0.0982
  123OSM    H7S13066   5.795   2.738   6.891 -0.8318  1.5885  0.4628
  123OSM    H7T13067   5.903   2.863   6.833 -0.8664  0.4606  0.6192
  123OSM    C8S13068   5.944   2.766   7.028  0.3211 -0.3784  0.1156
  123OSM    H8S13069   6.043   2.812   7.043 -1.0469  2.6281  0.6821
  123OSM    H8T13070   5.929   2.666   7.075 -0.9202 -0.5399 -0.5634
  123OSM    C9S13071   5.851   2.852   7.115 -0.0537 -0.0953  0.0951
  123OSM    H9S13072   5.745   2.835   7.088 -0.5152 -0.1088  1.8347
  123OSM    H9T13073   5.875   2.958   7.092 -1.9814  0.0930 -1.2675
  123OSM   C10S13074   5.878   2.815   7.263 -0.3994  0.3005  0.2366
  123OSM   H10S13075   5.987   2.809   7.285  0.3956 -0.3530 -3.2715
  123OSM   H10T13076   5.833   2.714   7.274 -2.4906  1.0563 -0.8195
  123OSM   C11S13077   5.810   2.907   7.360  0.1254  0.5613 -0.1478
  123OSM   H11S13078   5.703   2.926   7.334 -0.0791  0.3796  0.5471
  123OSM   H11T13079   5.853   3.008   7.342  1.8950 -0.2863 -0.9029
  123OSM   C12S13080   5.823   2.873   7.509 -0.3565 -0.4629  0.3998
  123OSM   H12S13081   5.929   2.888   7.538 -0.4554 -0.2554  0.6549
  123OSM   H12T13082   5.800   2.766   7.531 -2.0950  0.2449  2.2835
  123OSM   C13S13083   5.731   2.965   7.582  0.6923 -0.4286 -0.5013
  123OSM   H13S13084   5.625   2.951   7.551  1.1806 -1.8817 -1.6327
  123OSM   H13T13085   5.756   3.072   7.563  1.1919 -0.2683  0.9973
  123OSM   C14S13086   5.742   2.956   7.737  0.5133 -0.0656  0.8328
  123OSM   H14S13087   5.822   3.027   7.769  1.2751 -0.0243 -1.0615
  123OSM   H14T13088   5.766   2.850   7.758 -0.4215 -0.3028  0.7505
  123OSM   C15S13089   5.610   2.979   7.808  0.1387  0.3375  0.1358
  123OSM   H15S13090   5.532   2.920   7.754  0.5063  1.6210 -1.8872
  123OSM   H15T13091   5.577   3.084   7.798  0.6114  0.6718  1.6951
  123OSM   C16S13092   5.610   2.943   7.957 -0.1936 -1.0740 -0.4978
  123OSM   H16S13093   5.608   2.833   7.946  1.3952 -1.1057 -0.7325
  123OSM   H16T13094   5.511   2.965   8.003  0.4646  0.3190  0.3147
  123OSM   C17S13095   5.721   3.001   8.040  0.4673 -0.0951 -0.0860
  123OSM   H17S13096   5.740   3.108   8.018 -2.2376  0.6378  0.8167
  123OSM   H17T13097   5.799   2.923   8.023 -1.0129 -1.3467 -1.4489
  123OSM   C18S13098   5.680   2.990   8.184  0.4730 -0.3505 -0.4835
  123OSM   H18S13099   5.633   2.890   8.195 -0.5551  0.2676  1.0040
  123OSM   H18T13100   5.607   3.061   8.228  1.2006 -1.8449  3.5366
  123OSM   H18U13101   5.775   2.987   8.242  0.2973  0.7452 -0.1301
  123OSM    C1F13102   5.461   2.526   6.509 -0.1088 -0.2439  0.5148
  123OSM     OF13103   5.447   2.442   6.420 -0.1220  0.1758 -0.2212
  123OSM    C2F13104   5.364   2.540   6.623  0.4797  0.1300  0.4498
  123OSM    H2F13105   5.257   2.534   6.594  1.1569 -1.5386 -2.0164
  123OSM    H2G13106   5.381   2.624   6.694  0.6815  1.3156 -0.9539
  123OSM    C3F13107   5.387   2.413   6.710  0.5053 -0.1679 -0.5108
  123OSM    H3F13108   5.491   2.429   6.745 -0.8225  4.7631  2.1918
  123OSM    H3G13109   5.359   2.335   6.636 -2.0329  1.1325 -1.0277
  123OSM    C4F13110   5.291   2.409   6.831 -0.7099  0.4310  0.0580
  123OSM    H4F13111   5.184   2.410   6.800 -0.2095  2.7275 -1.8718
  123OSM    H4G13112   5.303   2.502   6.890  0.5107  0.6132 -0.4463
  123OSM    C5F13113   5.303   2.287   6.918  0.5583 -0.4187 -0.6103
  123OSM    H5F13114   5.410   2.282   6.945  0.2832 -0.7124  0.5266
  123OSM    H5G13115   5.276   2.193   6.865  1.2624 -0.1078 -1.5366
  123OSM    C6F13116   5.213   2.302   7.039  0.1860 -0.4178  0.4987
  123OSM    H6F13117   5.107   2.309   7.009  0.6241 -1.4758 -1.4579
  123OSM    H6G13118   5.247   2.392   7.095 -1.8066 -0.3092  1.6191
  123OSM    C7F13119   5.232   2.193   7.140 -0.0606 -0.8211  0.0708
  123OSM    H7F13120   5.340   2.183   7.164 -0.0608 -1.0483 -0.0250
  123OSM    H7G13121   5.205   2.099   7.088 -2.7544 -0.2257  0.2372
  123OSM    C8F13122   5.158   2.206   7.268 -0.5034 -0.4897  0.6585
  123OSM    H8F13123   5.057   2.239   7.236 -0.8016 -2.5207 -0.7284
  123OSM    H8G13124   5.199   2.295   7.321  0.1748  0.6319 -1.6172
  123OSM    C9F13125   5.131   2.081   7.341  0.2159  0.7304  0.4121
  123OSM    H9F13126   5.100   1.998   7.275  2.8843  0.5780 -0.7999
  123OSM   C10F13127   5.165   2.053   7.463  0.3634 -0.3633 -0.5785
  123OSM   H10F13128   5.129   1.962   7.514 -0.9819  1.0883  1.2119
  123OSM   C11F13129   5.214   2.163   7.564 -0.1965 -0.0576  0.8406
  123OSM   H11F13130   5.213   2.267   7.526 -0.5074 -1.3273 -3.1212
  123OSM   H11G13131   5.319   2.134   7.587 -0.1177 -2.0302 -1.5585
  123OSM   C12F13132   5.139   2.152   7.697  0.9638 -0.5965  0.0748
  123OSM   H12F13133   5.166   2.056   7.747  3.2853  0.7312  1.5606
  123OSM   H12G13134   5.029   2.154   7.684  0.9600 -0.6155  0.1031
  123OSM   C13F13135   5.174   2.265   7.795 -0.4023  0.0258 -0.6106
  123OSM   H13F13136   5.102   2.350   7.795 -2.0274 -1.2137  1.6107
  123OSM   H13G13137   5.278   2.300   7.782  0.7604 -2.4362  1.2457
  123OSM   C14F13138   5.168   2.213   7.938  0.6629  0.5003  0.0276
  123OSM   H14F13139   5.259   2.149   7.944 -0.5596 -1.4155 -0.6620
  123OSM   H14G13140   5.075   2.153   7.950  0.8992  0.3143  1.0126
  123OSM   C15F13141   5.168   2.317   8.044  0.2872 -0.1107 -0.4727
  123OSM   H15F13142   5.091   2.390   8.013 -0.5702 -0.5050  0.6273
  123OSM   H15G13143   5.264   2.372   8.056 -0.4033  1.0664 -0.2369
  123OSM   C16F13144   5.126   2.274   8.185 -0.5765  0.1525  0.1744
  123OSM   H16F13145   5.072   2.177   8.183 -2.5560  1.2089 -1.9503
  123OSM   H16G13146   5.064   2.358   8.223  1.8153  1.6151  1.1156
  123OSM   C17F13147   5.246   2.250   8.280  0.5457 -0.1722 -0.8943
  123OSM   H17F13148   5.291   2.348   8.306 -0.6129 -0.0251  0.7459
  123OSM   H17G13149   5.328   2.184   8.247 -0.3723 -2.0844  0.4789
  123OSM   C18F13150   5.202   2.200   8.417  0.4172  0.5555 -0.0366
  123OSM   H18F13151   5.142   2.278   8.468 -1.1363 -0.8260  0.3175
  123OSM   H18G13152   5.293   2.169   8.474 -0.4111 -0.3436  0.8201
  123OSM   H18H13153   5.137   2.111   8.401  1.3431 -0.4875  1.6718
  124OSM      N13154   1.634   6.577   6.147 -0.0286  0.0952 -0.8241
  124OSM    C1513155   1.708   6.518   6.029 -0.1663 -0.5525  0.4720
  124OSM   H15A13156   1.807   6.492   6.062 -0.5343  2.0194  4.3107
  124OSM   H15B13157   1.726   6.591   5.951  0.9108 -2.2363 -0.9230
  124OSM   H15C13158   1.654   6.440   5.977 -0.4475  0.5685 -0.9716
  124OSM    C1413159   1.718   6.689   6.211 -0.4682 -0.5514 -0.5653
  124OSM   H14A13160   1.681   6.702   6.312  0.4897  1.0607 -0.3773
  124OSM   H14B13161   1.725   6.782   6.156  0.7295 -1.4984 -2.0919
  124OSM   H14C13162   1.823   6.666   6.213  1.0385  4.8828  0.2480
  124OSM    C1313163   1.500   6.631   6.100  0.4494 -0.2106 -0.8917
  124OSM   H13A13164   1.510   6.726   6.050 -1.6636 -0.2373 -1.4348
  124OSM   H13B13165   1.445   6.661   6.188  2.9611 -4.5355  2.5883
  124OSM   H13C13166   1.438   6.561   6.046 -1.3000  0.7054 -0.1290
  124OSM    C1213167   1.612   6.459   6.254  0.0891  0.0870  0.3579
  124OSM   H12A13168   1.711   6.419   6.270 -0.6035 -1.6605  0.4036
  124OSM   H12B13169   1.557   6.383   6.201  0.1331  0.2428  0.0848
  124OSM    C1113170   1.550   6.493   6.391 -0.1035  0.0079  0.2914
  124OSM   H11A13171   1.622   6.551   6.453 -0.0918  0.4368 -0.1181
  124OSM   H11B13172   1.522   6.398   6.441 -0.6979 -0.9315 -1.6929
  124OSM      P13173   1.286   6.501   6.378 -0.1539 -0.0851 -0.4441
  124OSM    O1313174   1.174   6.598   6.371 -0.0562  0.2373 -0.4271
  124OSM    O1413175   1.281   6.396   6.273  0.0936 -0.0912  0.3467
  124OSM    O1113176   1.284   6.434   6.519  0.4128 -0.6103 -0.6485
  124OSM    O1213177   1.432   6.571   6.383  0.0567 -0.0635  0.3542
  124OSM    C1S13178   1.318   6.519   6.625  0.4340 -0.4045 -0.5393
  124OSM    H1S13179   1.270   6.619   6.620 -0.5552 -0.8056  0.4143
  124OSM    H1T13180   1.428   6.532   6.624  0.3338  0.6770 -2.2177
  124OSM     NF13181   1.342   6.556   6.869 -0.5149  0.6962 -0.0997
  124OSM    HNF13182   1.421   6.516   6.916  0.4516 -0.6049 -2.6398
  124OSM    C2S13183   1.286   6.463   6.771  0.4285 -0.1838  0.0279
  124OSM    H2S13184   1.175   6.459   6.783  0.4571 -1.2551  0.0106
  124OSM    C3S13185   1.334   6.319   6.787 -0.0538 -0.3261 -0.0331
  124OSM    H3S13186   1.444   6.325   6.803 -0.2449  1.3845  0.9385
  124OSM     O313187   1.313   6.226   6.677 -0.2058 -0.1436 -0.4076
  124OSM    HO313188   1.297   6.289   6.607  1.4483  0.0397 -0.6477
  124OSM    C4S13189   1.282   6.263   6.918 -0.1530  0.6614 -0.4602
  124OSM    H4S13190   1.172   6.255   6.924  0.0007 -0.5844  1.5894
  124OSM    C5S13191   1.348   6.198   7.014 -0.0119  0.5745 -0.8434
  124OSM    H5S13192   1.457   6.193   7.013  0.0141 -0.4958  1.4130
  124OSM    C6S13193   1.288   6.137   7.136 -0.4419 -0.0291  0.0269
  124OSM    H6S13194   1.361   6.147   7.220 -0.9333 -1.4133  0.6504
  124OSM    H6T13195   1.286   6.026   7.129  1.4169 -0.1218  0.4368
  124OSM    C7S13196   1.157   6.180   7.194 -0.1767  0.1667  0.2680
  124OSM    H7S13197   1.084   6.167   7.111  1.2141  1.8311 -1.2874
  124OSM    H7T13198   1.174   6.289   7.208 -0.0181  0.3163 -0.9598
  124OSM    C8S13199   1.109   6.110   7.323  0.7693 -1.1915 -0.0450
  124OSM    H8S13200   1.100   6.001   7.303  1.0256 -1.1218 -0.5814
  124OSM    H8T13201   1.005   6.146   7.339  0.6912  0.2773 -3.0911
  124OSM    C9S13202   1.209   6.136   7.436 -0.1295 -1.2439  0.1669
  124OSM    H9S13203   1.253   6.237   7.419 -2.4068  0.3794  3.0284
  124OSM    H9T13204   1.286   6.056   7.423 -1.7293 -2.7228 -0.6051
  124OSM   C10S13205   1.150   6.138   7.575 -0.1588  0.0910 -0.0550
  124OSM   H10S13206   1.122   6.037   7.611 -1.1194  0.3831  0.0684
  124OSM   H10T13207   1.067   6.212   7.585 -0.6361 -0.6635  2.2667
  124OSM   C11S13208   1.252   6.182   7.682 -0.5705 -0.6343  0.0225
  124OSM   H11S13209   1.267   6.287   7.651 -2.3595 -1.2932 -3.6492
  124OSM   H11T13210   1.351   6.138   7.662  0.4346  1.6419 -0.2901
  124OSM   C12S13211   1.202   6.174   7.826  0.0450 -0.3076  0.5717
  124OSM   H12S13212   1.284   6.195   7.899  1.8200 -1.5726 -0.9691
  124OSM   H12T13213   1.172   6.068   7.841  0.4678 -0.7268 -1.3170
  124OSM   C13S13214   1.097   6.264   7.881  0.0867 -0.3473 -0.6363
  124OSM   H13S13215   1.006   6.252   7.820 -0.2772 -0.4339 -0.0818
  124OSM   H13T13216   1.128   6.370   7.867  2.9864 -0.9869  0.2090
  124OSM   C14S13217   1.067   6.249   8.030 -0.7328  0.0412 -0.3675
  124OSM   H14S13218   1.154   6.269   8.097 -2.2861  0.6939  1.5391
  124OSM   H14T13219   1.030   6.148   8.058  0.7500 -0.5606 -0.4605
  124OSM   C15S13220   0.965   6.350   8.086  1.0525  0.3224  0.1483
  124OSM   H15S13221   0.864   6.325   8.046  2.0537 -1.6079 -1.3670
  124OSM   H15T13222   0.990   6.452   8.051  1.6345 -0.1965 -1.0158
  124OSM   C16S13223   0.974   6.342   8.243 -0.1549 -0.6246 -0.3964
  124OSM   H16S13224   1.078   6.360   8.278 -0.3347  1.0985 -0.6867
  124OSM   H16T13225   0.945   6.243   8.287 -0.2524 -0.4934 -0.1619
  124OSM   C17S13226   0.876   6.446   8.310  0.1213  0.2620 -0.1354
  124OSM   H17S13227   0.778   6.429   8.260  0.3116 -2.3658  0.2588
  124OSM   H17T13228   0.927   6.544   8.295 -0.5613  1.0980  2.5515
  124OSM   C18S13229   0.847   6.428   8.457 -0.0588  0.7245 -0.2850
  124OSM   H18S13230   0.741   6.456   8.470 -0.5699 -0.7717 -0.9756
  124OSM   H18T13231   0.922   6.483   8.518 -0.9065  1.3783  0.1704
  124OSM   H18U13232   0.840   6.318   8.475 -2.5742  0.5080 -2.1665
  124OSM    C1F13233   1.295   6.676   6.901 -0.3745  0.4271  0.2137
  124OSM     OF13234   1.199   6.723   6.843  0.3702 -0.7729  0.6663
  124OSM    C2F13235   1.356   6.745   7.023  0.7767  0.2703  0.3243
  124OSM    H2F13236   1.399   6.837   6.978 -2.5326  0.9781 -1.7258
  124OSM    H2G13237   1.432   6.676   7.065 -0.5371  0.6665  3.6507
  124OSM    C3F13238   1.244   6.782   7.121 -0.1780 -0.4619 -0.4205
  124OSM    H3F13239   1.183   6.691   7.140 -0.2171 -0.0988  1.3709
  124OSM    H3G13240   1.178   6.854   7.069 -2.2858 -2.3595 -0.5408
  124OSM    C4F13241   1.289   6.850   7.252  0.5797 -0.2235 -0.4005
  124OSM    H4F13242   1.210   6.899   7.313  0.6751  0.8877 -1.1371
  124OSM    H4G13243   1.355   6.931   7.216  0.6937 -1.3875 -3.0257
  124OSM    C5F13244   1.368   6.759   7.351 -0.1512 -0.0354  0.5567
  124OSM    H5F13245   1.467   6.804   7.372 -1.5560  3.4524  0.2572
  124OSM    H5G13246   1.374   6.658   7.304  0.5890  0.9630 -1.6347
  124OSM    C6F13247   1.291   6.747   7.483 -0.5257  0.2942 -0.4250
  124OSM    H6F13248   1.184   6.726   7.461 -0.0014 -1.6801 -1.3797
  124OSM    H6G13249   1.299   6.829   7.558 -2.9787 -1.6346  2.1877
  124OSM    C7F13250   1.331   6.621   7.565  0.1943 -0.6958  0.0772
  124OSM    H7F13251   1.438   6.642   7.584  0.4657 -0.8018 -1.2326
  124OSM    H7G13252   1.330   6.526   7.507  1.4810 -2.1520  2.3045
  124OSM    C8F13253   1.269   6.590   7.700  0.3293  0.2353  0.6469
  124OSM    H8F13254   1.322   6.502   7.743 -1.1400 -1.2480 -0.4031
  124OSM    H8G13255   1.168   6.546   7.685  0.7751 -0.7877  0.5123
  124OSM    C9F13256   1.252   6.705   7.788  0.7144 -0.5410 -0.3650
  124OSM    H9F13257   1.209   6.799   7.749  0.9248 -0.3021 -0.0331
  124OSM   C10F13258   1.287   6.703   7.918 -0.7311 -0.4619  0.3332
  124OSM   H10F13259   1.268   6.796   7.974 -1.9726  1.4318 -2.9328
  124OSM   C11F13260   1.350   6.583   7.984  0.0777  0.1664  0.0559
  124OSM   H11F13261   1.437   6.543   7.928  2.0837  2.1687  1.6120
  124OSM   H11G13262   1.269   6.506   7.986 -1.7259  1.9341  3.4473
  124OSM   C12F13263   1.402   6.605   8.123 -0.5569  0.5897 -0.7804
  124OSM   H12F13264   1.484   6.679   8.130 -0.1890  0.0357  2.6706
  124OSM   H12G13265   1.460   6.516   8.154 -2.9872 -0.6737  0.5105
  124OSM   C13F13266   1.305   6.633   8.240 -0.1559  0.5916 -0.2732
  124OSM   H13F13267   1.232   6.553   8.265 -0.0245  0.6474  0.3142
  124OSM   H13G13268   1.250   6.724   8.208  1.0189  1.1348 -0.8158
  124OSM   C14F13269   1.381   6.646   8.368  0.6166  0.2180 -0.0253
  124OSM   H14F13270   1.447   6.736   8.360 -0.5213  1.0897  0.1270
  124OSM   H14G13271   1.440   6.553   8.377 -1.1886 -1.0103 -0.4268
  124OSM   C15F13272   1.303   6.664   8.495  0.6484 -0.0804  0.5095
  124OSM   H15F13273   1.242   6.572   8.507 -0.0893  0.3906  0.4606
  124OSM   H15G13274   1.224   6.742   8.489 -0.2042 -1.0275 -1.5790
  124OSM   C16F13275   1.381   6.690   8.626  0.1569 -0.5518 -0.3934
  124OSM   H16F13276   1.457   6.771   8.621  1.0654 -1.3725 -0.1401
  124OSM   H16G13277   1.445   6.602   8.648  0.8197 -0.0290 -0.1734
  124OSM   C17F13278   1.279   6.723   8.744  0.0433  0.4194  0.4448
  124OSM   H17F13279   1.306   6.689   8.847  0.1301 -0.8647  0.0138
  124OSM   H17G13280   1.183   6.672   8.724 -1.2541  2.2757  1.5784
  124OSM   C18F13281   1.245   6.868   8.751  0.1335 -0.1021  0.6733
  124OSM   H18F13282   1.164   6.887   8.825 -1.3019 -1.6330 -0.4282
  124OSM   H18G13283   1.215   6.905   8.650  0.5425 -0.1289  0.5388
  124OSM   H18H13284   1.338   6.927   8.765  1.8973 -2.5872  0.0996
  125OSM      N13285   0.296   0.708   6.026 -0.4540 -0.5879 -0.9516
  125OSM    C1513286   0.402   0.808   5.999 -0.7164  0.0761  0.7005
  125OSM   H15A13287   0.467   0.822   6.084 -1.7585 -0.4074  1.6023
  125OSM   H15B13288   0.373   0.909   5.972  0.6796 -0.1273 -1.9318
  125OSM   H15C13289   0.473   0.768   5.929 -1.1220  1.0589 -0.3098
  125OSM    C1413290   0.224   0.664   5.900  0.3674 -0.2776  0.4246
  125OSM   H14A13291   0.193   0.751   5.843 -1.8138 -1.9041 -1.0401
  125OSM   H14B13292   0.143   0.604   5.939 -0.5266 -0.0139 -0.9556
  125OSM   H14C13293   0.285   0.599   5.840 -1.6041 -0.8303 -1.1110
  125OSM    C1313294   0.358   0.588   6.092 -0.0482  0.4193 -0.2150
  125OSM   H13A13295   0.283   0.528   6.140  1.2640 -0.6202  0.5890
  125OSM   H13B13296   0.437   0.614   6.161 -0.2723  1.6660 -0.3909
  125OSM   H13C13297   0.404   0.528   6.015 -2.2618 -0.4336 -0.9542
  125OSM    C1213298   0.207   0.768   6.123 -0.7241 -0.1363  0.0247
  125OSM   H12A13299   0.179   0.867   6.090 -1.3990 -1.1538 -2.7182
  125OSM   H12B13300   0.254   0.783   6.219  0.9244 -1.9456 -0.4524
  125OSM    C1113301   0.073   0.692   6.156  0.1438 -0.5877  0.9744
  125OSM   H11A13302   0.017   0.683   6.061  0.7362 -0.1686  0.5724
  125OSM   H11B13303   0.022   0.773   6.212  1.4154  1.2647 -0.3985
  125OSM      P13304   0.093   0.559   6.379 -0.1092  0.1498 -0.4511
  125OSM    O1313305  -0.035   0.623   6.415  1.0790  0.1499 -0.2998
  125OSM    O1413306   0.113   0.423   6.421  0.1464  0.3012 -0.1663
  125OSM    O1113307   0.225   0.641   6.431 -0.2521 -0.1263 -0.0608
  125OSM    O1213308   0.092   0.568   6.224 -0.1394 -0.4749  0.0204
  125OSM    C1S13309   0.210   0.710   6.554 -0.8666  0.1759 -0.1405
  125OSM    H1S13310   0.122   0.778   6.555  1.3021  3.2292  1.6096
  125OSM    H1T13311   0.299   0.775   6.561 -0.5592 -0.0324 -1.7980
  125OSM     NF13312   0.191   0.701   6.801 -0.3046 -0.2457  0.1803
  125OSM    HNF13313   0.271   0.713   6.860  0.2101 -0.5178 -0.4538
  125OSM    C2S13314   0.200   0.621   6.685 -0.3258 -0.2644  0.3627
  125OSM    H2S13315   0.113   0.554   6.673 -2.1528  1.9605  0.3804
  125OSM    C3S13316   0.326   0.528   6.690 -0.4006 -0.0992 -0.8805
  125OSM    H3S13317   0.413   0.597   6.686 -0.1977 -0.3155 -0.3464
  125OSM     O313318   0.333   0.437   6.581 -0.2680 -0.0525 -0.3190
  125OSM    HO313319   0.246   0.433   6.542 -0.7225 -0.6061  0.7124
  125OSM    C4S13320   0.333   0.457   6.826 -0.3101 -0.3981  0.3004
  125OSM    H4S13321   0.242   0.403   6.859  0.5189 -2.4643 -0.6086
  125OSM    C5S13322   0.428   0.452   6.917  0.3132 -0.2361  0.3375
  125OSM    H5S13323   0.516   0.517   6.903  1.7129 -1.7848  1.4350
  125OSM    C6S13324   0.417   0.390   7.049 -0.1783  0.4212  0.5812
  125OSM    H6S13325   0.498   0.317   7.069  0.5254  1.1020  0.2635
  125OSM    H6T13326   0.326   0.330   7.071 -0.1242  0.9409  2.4058
  125OSM    C7S13327   0.433   0.470   7.186 -0.1706 -0.5657 -0.2598
  125OSM    H7S13328   0.540   0.480   7.214 -0.6622  2.2419  0.8888
  125OSM    H7T13329   0.382   0.404   7.259  0.7385 -1.7607 -0.6474
  125OSM    C8S13330   0.372   0.616   7.183  0.9536  0.4421  1.5499
  125OSM    H8S13331   0.266   0.600   7.153  1.2749  2.2288 -0.8289
  125OSM    H8T13332   0.420   0.682   7.107  1.2876 -1.4210  0.0664
  125OSM    C9S13333   0.394   0.691   7.315  0.3088  0.0055 -0.3005
  125OSM    H9S13334   0.503   0.700   7.339  1.0330 -0.3700 -3.1245
  125OSM    H9T13335   0.333   0.632   7.386  1.7253 -0.6873  0.3896
  125OSM   C10S13336   0.339   0.838   7.317 -0.1058 -0.4651  0.1517
  125OSM   H10S13337   0.231   0.832   7.291 -0.0629 -0.0131 -0.1369
  125OSM   H10T13338   0.386   0.892   7.232  1.7026 -1.3910  0.5232
  125OSM   C11S13339   0.380   0.929   7.439  0.3169  0.4599  0.9009
  125OSM   H11S13340   0.354   1.037   7.433  1.0060  0.5448 -1.1678
  125OSM   H11T13341   0.490   0.937   7.441  0.4630 -1.1237  0.3359
  125OSM   C12S13342   0.334   0.877   7.575 -0.0357  0.3804  0.0611
  125OSM   H12S13343   0.370   0.776   7.600  1.2292  1.0868  1.2509
  125OSM   H12T13344   0.223   0.875   7.583 -0.1249  3.5376  1.4576
  125OSM   C13S13345   0.392   0.972   7.682 -0.0677  0.6234 -0.5431
  125OSM   H13S13346   0.360   1.076   7.658 -1.3745  0.2098 -0.6532
  125OSM   H13T13347   0.501   0.957   7.670  0.0386  0.5821  0.4183
  125OSM   C14S13348   0.338   0.931   7.820  0.0264 -0.0378 -0.1702
  125OSM   H14S13349   0.415   0.891   7.889  0.0776  2.5082  1.3735
  125OSM   H14T13350   0.256   0.859   7.799  0.1224  0.1308 -1.1672
  125OSM   C15S13351   0.280   1.051   7.890 -0.1229 -0.3177  0.4686
  125OSM   H15S13352   0.216   1.112   7.822  1.5513 -0.9499 -1.8174
  125OSM   H15T13353   0.357   1.120   7.932 -1.0448  0.6261  0.6591
  125OSM   C16S13354   0.181   1.011   8.000 -0.7798  0.2280 -0.1585
  125OSM   H16S13355   0.098   0.958   7.949 -1.6029  0.8607  0.4964
  125OSM   H16T13356   0.140   1.103   8.047  0.2507  1.5783 -1.7924
  125OSM   C17S13357   0.241   0.924   8.116  0.1390 -0.0467  0.6779
  125OSM   H17S13358   0.332   0.985   8.134 -0.1242  1.4061 -2.2840
  125OSM   H17T13359   0.269   0.824   8.077 -1.0388  0.1116 -0.6513
  125OSM   C18S13360   0.162   0.915   8.246  0.2110  0.5718 -0.2035
  125OSM   H18S13361   0.133   1.008   8.299  2.0645  0.9510  0.2313
  125OSM   H18T13362   0.217   0.845   8.312  0.7675  1.4043  0.2376
  125OSM   H18U13363   0.068   0.862   8.220  1.6387 -1.2293 -2.0642
  125OSM    C1F13364   0.077   0.760   6.834 -0.2053 -0.5113  0.0692
  125OSM     OF13365  -0.021   0.749   6.757 -0.4028 -0.1230  0.2512
  125OSM    C2F13366   0.084   0.848   6.954 -0.8685 -0.2949 -0.7315
  125OSM    H2F13367   0.125   0.949   6.930  1.9345 -1.7699 -2.6283
  125OSM    H2G13368   0.159   0.816   7.030 -2.9899  0.2985  1.7793
  125OSM    C3F13369  -0.057   0.869   7.019  0.2522  0.4014 -0.2480
  125OSM    H3F13370  -0.087   0.770   7.059 -0.7370  0.3861 -0.9823
  125OSM    H3G13371  -0.139   0.905   6.953 -0.8077 -0.4551  0.5606
  125OSM    C4F13372  -0.040   0.957   7.146 -0.1344  0.1828 -0.2076
  125OSM    H4F13373  -0.064   1.060   7.112  0.0274  0.0971 -0.5846
  125OSM    H4G13374   0.066   0.960   7.180 -0.1928  0.7468 -0.0545
  125OSM    C5F13375  -0.124   0.904   7.265 -0.6785 -0.3542 -0.4514
  125OSM    H5F13376  -0.092   0.799   7.282  1.1290 -0.3760 -3.4013
  125OSM    H5G13377  -0.233   0.906   7.241 -0.5957 -0.9119 -0.8931
  125OSM    C6F13378  -0.128   0.981   7.394  0.0062  0.1866 -0.9527
  125OSM    H6F13379  -0.143   1.085   7.359  3.2279  0.8305 -0.7477
  125OSM    H6G13380  -0.028   0.975   7.442 -0.5926  0.1233  0.3375
  125OSM    C7F13381  -0.225   0.940   7.507  0.2225  0.1455 -0.4235
  125OSM    H7F13382  -0.186   0.852   7.563 -1.9040 -0.6432 -0.1099
  125OSM    H7G13383  -0.316   0.892   7.466 -0.8370  0.1903  1.7527
  125OSM    C8F13384  -0.271   1.064   7.598  0.2855 -0.1298 -0.1538
  125OSM    H8F13385  -0.356   1.024   7.658  0.0646 -3.0055 -2.1927
  125OSM    H8G13386  -0.316   1.130   7.522 -1.0223 -0.4682  0.2935
  125OSM    C9F13387  -0.169   1.130   7.687 -0.2612  0.5867  0.2703
  125OSM    H9F13388  -0.117   1.214   7.639 -0.0623  1.0924  1.3314
  125OSM   C10F13389  -0.142   1.089   7.814 -0.4445 -0.5788 -0.2471
  125OSM   H10F13390  -0.051   1.129   7.862 -0.3279 -1.5917  0.4106
  125OSM   C11F13391  -0.206   0.974   7.885  0.0903  1.0441 -0.1354
  125OSM   H11F13392  -0.168   0.875   7.854 -1.3414  0.6071 -0.5597
  125OSM   H11G13393  -0.310   0.974   7.847 -0.9680  0.2308  2.5238
  125OSM   C12F13394  -0.209   0.971   8.034 -0.5519  0.1425 -0.4219
  125OSM   H12F13395  -0.108   0.993   8.073 -0.5934 -0.2722 -0.0749
  125OSM   H12G13396  -0.223   0.862   8.051 -1.5916  0.3793  0.3975
  125OSM   C13F13397  -0.316   1.044   8.111  0.2698 -0.0225 -0.5570
  125OSM   H13F13398  -0.412   1.010   8.068  0.5371  0.8585 -1.9349
  125OSM   H13G13399  -0.309   1.155   8.098 -1.7004  0.1476 -0.4208
  125OSM   C14F13400  -0.298   1.016   8.259 -0.2167 -0.4622 -0.0863
  125OSM   H14F13401  -0.192   1.017   8.292 -0.2225  1.0574 -0.0440
  125OSM   H14G13402  -0.338   0.912   8.270  1.2259 -1.0617 -0.3247
  125OSM   C15F13403  -0.376   1.114   8.350 -0.0784 -0.8061  0.3912
  125OSM   H15F13404  -0.474   1.135   8.304  0.6696  1.1832 -0.3942
  125OSM   H15G13405  -0.326   1.212   8.364 -0.4864 -0.7757  1.7837
  125OSM   C16F13406  -0.405   1.062   8.491 -0.1050 -0.1012  0.2408
  125OSM   H16F13407  -0.448   0.960   8.483  1.0898 -0.7527  1.6209
  125OSM   H16G13408  -0.478   1.137   8.529  0.0299 -0.5675  1.4373
  125OSM   C17F13409  -0.288   1.053   8.584 -0.1440 -0.6006  0.4490
  125OSM   H17F13410  -0.322   1.060   8.690  1.6991  2.6120  0.9828
  125OSM   H17G13411  -0.232   1.145   8.555 -1.8428  0.5825  0.7714
  125OSM   C18F13412  -0.201   0.925   8.560  0.4172  0.1814 -0.3348
  125OSM   H18F13413  -0.092   0.947   8.566  0.8240 -0.9408 -2.5469
  125OSM   H18G13414  -0.232   0.883   8.462 -0.4346  1.1943 -0.5053
  125OSM   H18H13415  -0.229   0.855   8.641  0.2459  1.1142  0.4273
  126OSM      N13416   4.881   1.736   6.282 -0.5369 -0.4031  0.0269
  126OSM    C1513417   4.973   1.808   6.188 -0.0763  0.5438 -0.5456
  126OSM   H15A13418   5.078   1.798   6.209  0.0441  1.9612 -0.3712
  126OSM   H15B13419   4.957   1.913   6.205  0.5436  0.4078  1.0663
  126OSM   H15C13420   4.958   1.776   6.086  0.8468  2.6114 -1.3744
  126OSM    C1413421   4.742   1.759   6.231 -0.3331  0.0061  0.8690
  126OSM   H14A13422   4.731   1.713   6.134  1.0232 -0.2567  0.8142
  126OSM   H14B13423   4.731   1.867   6.233  0.1879  0.0749  3.2331
  126OSM   H14C13424   4.671   1.716   6.299  0.3689  0.7809  2.1287
  126OSM    C1313425   4.908   1.594   6.277  0.1824  0.5917 -0.2609
  126OSM   H13A13426   5.014   1.575   6.280  0.2936  1.3040  0.6188
  126OSM   H13B13427   4.867   1.546   6.189 -0.0994 -1.4825  0.9298
  126OSM   H13C13428   4.870   1.540   6.362  0.3204 -0.8409 -1.0799
  126OSM    C1213429   4.893   1.792   6.419 -0.0888  0.6976  0.0811
  126OSM   H12A13430   4.849   1.890   6.436 -2.0279  0.2402 -1.7814
  126OSM   H12B13431   4.997   1.805   6.442 -0.8125  1.0734  3.8035
  126OSM    C1113432   4.844   1.698   6.533  0.0062 -0.4202 -0.2324
  126OSM   H11A13433   4.837   1.756   6.628 -1.7761 -2.1084  0.7481
  126OSM   H11B13434   4.914   1.612   6.542 -2.4454 -2.5360 -0.0346
  126OSM      P13435   4.662   1.502   6.527  0.2041 -0.0584  0.3336
  126OSM    O1313436   4.533   1.484   6.453 -0.1355  0.1156 -0.4070
  126OSM    O1413437   4.774   1.414   6.481  0.2793  0.2163  0.0513
  126OSM    O1113438   4.645   1.482   6.677  0.4701 -0.1485 -0.5768
  126OSM    O1213439   4.712   1.649   6.509 -0.0408 -0.3859 -0.3953
  126OSM    C1S13440   4.585   1.566   6.769 -0.0185  0.2657  0.6719
  126OSM    H1S13441   4.476   1.546   6.773 -0.5759  2.2650 -1.8437
  126OSM    H1T13442   4.590   1.673   6.738  2.4499  0.2495  0.8161
  126OSM     NF13443   4.567   1.682   6.999  0.1967 -0.3202  1.0496
  126OSM    HNF13444   4.621   1.764   7.018 -1.3907  1.1759 -0.4771
  126OSM    C2S13445   4.633   1.574   6.916 -0.4115  0.6547  0.1628
  126OSM    H2S13446   4.605   1.476   6.960  3.1995 -0.6267 -0.0465
  126OSM    C3S13447   4.782   1.566   6.933 -0.1204 -0.2724  0.1605
  126OSM    H3S13448   4.836   1.659   6.907 -2.1586  0.8201 -0.3456
  126OSM     O313449   4.841   1.466   6.849  0.0165  0.1456  0.1991
  126OSM    HO313450   4.779   1.467   6.775  0.1420  0.2695  0.0944
  126OSM    C4S13451   4.822   1.533   7.076  0.7974 -0.0860  0.8316
  126OSM    H4S13452   4.774   1.440   7.109 -0.0209 -0.5973 -1.6209
  126OSM    C5S13453   4.900   1.612   7.150  0.5312  0.5338 -1.1077
  126OSM    H5S13454   4.926   1.710   7.107  2.6571 -0.1985 -1.5800
  126OSM    C6S13455   4.939   1.575   7.294 -0.7244 -0.2823 -0.7452
  126OSM    H6S13456   5.049   1.558   7.294  0.4065  5.0615  0.7666
  126OSM    H6T13457   4.896   1.481   7.334  0.3503 -1.2531 -1.7712
  126OSM    C7S13458   4.915   1.684   7.399  0.3682 -0.3451 -0.0913
  126OSM    H7S13459   4.807   1.712   7.406  0.4589  1.0668 -2.9677
  126OSM    H7T13460   4.960   1.780   7.368  1.0306 -1.1418 -1.6906
  126OSM    C8S13461   4.980   1.650   7.537 -0.4223  0.9571 -0.3014
  126OSM    H8S13462   5.089   1.650   7.520 -0.4078 -0.0254 -0.2376
  126OSM    H8T13463   4.966   1.543   7.563  1.5042  0.5476 -0.8122
  126OSM    C9S13464   4.943   1.750   7.646  0.0506  0.5315 -0.6947
  126OSM    H9S13465   4.832   1.754   7.652  0.1271  0.9057  0.8463
  126OSM    H9T13466   4.975   1.853   7.621  0.9199  0.8368  1.4400
  126OSM   C10S13467   5.000   1.704   7.780  0.9161  0.0099 -0.3119
  126OSM   H10S13468   5.110   1.697   7.769  0.8019 -2.6293 -0.2438
  126OSM   H10T13469   4.948   1.608   7.799 -0.4442  1.1575  2.4797
  126OSM   C11S13470   4.971   1.797   7.893  0.0881 -0.2696  0.1098
  126OSM   H11S13471   4.866   1.830   7.905 -0.0817 -1.1629  1.3472
  126OSM   H11T13472   5.040   1.882   7.878  2.3192 -2.0346 -0.2165
  126OSM   C12S13473   5.015   1.737   8.033 -0.6013  0.7210 -0.2637
  126OSM   H12S13474   5.123   1.711   8.034 -0.6654  0.2347 -2.4858
  126OSM   H12T13475   4.960   1.640   8.039  0.2301  0.1502 -1.5122
  126OSM   C13S13476   4.970   1.835   8.135 -0.2691 -0.7774 -0.3846
  126OSM   H13S13477   4.859   1.837   8.141 -0.2486  0.8715 -0.2626
  126OSM   H13T13478   5.016   1.933   8.112 -0.3022 -0.5755  0.4121
  126OSM   C14S13479   5.024   1.793   8.273  0.7155 -0.4297 -0.2033
  126OSM   H14S13480   5.039   1.883   8.335  0.1411  1.0839 -2.1655
  126OSM   H14T13481   5.127   1.754   8.263  1.5307  1.5299  0.2770
  126OSM   C15S13482   4.943   1.690   8.348  0.4657  0.3186 -0.3693
  126OSM   H15S13483   4.927   1.596   8.290  3.2256 -1.0525  0.9279
  126OSM   H15T13484   4.837   1.718   8.367 -0.5817 -3.1764 -0.4647
  126OSM   C16S13485   5.010   1.648   8.480  1.1941  0.1822  0.0385
  126OSM   H16S13486   5.087   1.570   8.464  1.3417  0.4308 -0.5147
  126OSM   H16T13487   4.926   1.596   8.531 -0.8585 -0.1999 -3.4357
  126OSM   C17S13488   5.039   1.760   8.578  0.1995 -0.0885 -0.6857
  126OSM   H17S13489   4.962   1.838   8.558  0.8124  1.1385  1.3430
  126OSM   H17T13490   5.133   1.809   8.544 -0.5850  3.0191  1.1946
  126OSM   C18S13491   5.059   1.716   8.722  0.0728  0.1809 -0.3179
  126OSM   H18S13492   4.972   1.675   8.779  0.7336 -0.3815  0.3152
  126OSM   H18T13493   5.082   1.809   8.777  0.0648  0.0773 -0.1374
  126OSM   H18U13494   5.139   1.640   8.736 -1.7772 -1.5856  1.5856
  126OSM    C1F13495   4.437   1.677   7.010  0.6693 -0.5409 -0.1450
  126OSM     OF13496   4.386   1.566   6.988 -0.2029 -0.4594  0.0898
  126OSM    C2F13497   4.360   1.797   7.047  0.0260  0.1606  0.2172
  126OSM    H2F13498   4.308   1.832   6.956 -1.8798 -1.0631  0.7714
  126OSM    H2G13499   4.425   1.879   7.084 -0.1569  0.3731  0.0653
  126OSM    C3F13500   4.252   1.756   7.154  0.1050  0.7468  0.5342
  126OSM    H3F13501   4.300   1.716   7.246 -0.4495 -2.3297 -0.3738
  126OSM    H3G13502   4.184   1.683   7.106  0.0024  1.1296  0.0933
  126OSM    C4F13503   4.158   1.870   7.199  0.0146 -0.4548  0.2098
  126OSM    H4F13504   4.127   1.925   7.107  1.4271  0.3651  0.1961
  126OSM    H4G13505   4.217   1.943   7.259  1.1585  0.7282 -2.2309
  126OSM    C5F13506   4.024   1.827   7.266 -0.1729  0.3654  0.2514
  126OSM    H5F13507   3.985   1.917   7.318 -0.3124  0.7012 -0.4350
  126OSM    H5G13508   4.039   1.748   7.343  0.5085 -0.9025 -1.1372
  126OSM    C6F13509   3.919   1.780   7.162  0.3779 -0.1488 -0.6276
  126OSM    H6F13510   3.957   1.686   7.116  1.7980 -1.8694  3.5230
  126OSM    H6G13511   3.893   1.856   7.086 -1.0971 -3.3955 -3.6982
  126OSM    C7F13512   3.786   1.742   7.226  0.6005 -0.5445  0.1467
  126OSM    H7F13513   3.719   1.737   7.138  0.8347  1.3496 -0.1799
  126OSM    H7G13514   3.756   1.816   7.303 -0.4844 -1.1287  0.2916
  126OSM    C8F13515   3.804   1.607   7.294  0.4384 -0.4631 -0.5799
  126OSM    H8F13516   3.863   1.621   7.387  0.9177 -1.6720 -0.6768
  126OSM    H8G13517   3.866   1.535   7.236  1.0268  0.2143 -0.8067
  126OSM    C9F13518   3.665   1.550   7.331  0.6064  0.1227 -0.1385
  126OSM    H9F13519   3.590   1.532   7.253  1.7144 -0.1389 -1.1766
  126OSM   C10F13520   3.630   1.520   7.461 -0.1568 -0.2202  0.2276
  126OSM   H10F13521   3.537   1.462   7.468 -0.4622  0.4058  1.5783
  126OSM   C11F13522   3.697   1.532   7.589  0.0670  0.5103  0.0842
  126OSM   H11F13523   3.776   1.611   7.591 -1.0023  1.6556 -1.0983
  126OSM   H11G13524   3.743   1.435   7.615  0.1891  1.0419  1.9437
  126OSM   C12F13525   3.603   1.564   7.707 -0.6649  0.8303 -0.1204
  126OSM   H12F13526   3.520   1.492   7.723  1.1616 -0.8148  2.9982
  126OSM   H12G13527   3.555   1.661   7.681 -0.9902  1.5226  2.7429
  126OSM   C13F13528   3.680   1.585   7.842 -0.0268  0.4956  0.1909
  126OSM   H13F13529   3.758   1.661   7.825  0.2065  0.4874  1.1705
  126OSM   H13G13530   3.734   1.491   7.867 -0.7386 -0.3903 -1.4789
  126OSM   C14F13531   3.596   1.631   7.955  0.2300  0.5677 -0.0480
  126OSM   H14F13532   3.525   1.547   7.972  0.0317  0.5646 -0.8792
  126OSM   H14G13533   3.547   1.723   7.915 -0.0561  0.4320 -0.0165
  126OSM   C15F13534   3.670   1.664   8.084  0.5194 -0.2980 -0.4820
  126OSM   H15F13535   3.759   1.726   8.064  0.2744  0.3322  0.3333
  126OSM   H15G13536   3.698   1.567   8.131 -0.9055  0.7309  2.7880
  126OSM   C16F13537   3.575   1.722   8.188  0.3358 -0.3059  0.4618
  126OSM   H16F13538   3.495   1.650   8.215 -0.3488  1.2149  2.8453
  126OSM   H16G13539   3.524   1.806   8.137  1.8112  0.4384  0.1468
  126OSM   C17F13540   3.651   1.778   8.309 -0.1677  0.0923 -0.8307
  126OSM   H17F13541   3.707   1.870   8.280 -0.5819  1.7959  3.1899
  126OSM   H17G13542   3.724   1.699   8.335  2.0402  1.6312 -1.9808
  126OSM   C18F13543   3.558   1.832   8.426  0.2083  0.0686  0.0332
  126OSM   H18F13544   3.503   1.746   8.468 -2.4127  0.1594 -2.8891
  126OSM   H18G13545   3.475   1.881   8.371  0.1954  0.2436  0.2084
  126OSM   H18H13546   3.618   1.889   8.500  1.5663 -0.0087 -0.9705
  127OSM      N13547   6.082   6.266   5.898  0.0345 -1.1426  0.7195
  127OSM    C1513548   6.190   6.315   5.988 -0.4503 -0.0320 -0.2879
  127OSM   H15A13549   6.145   6.324   6.085  1.9828  1.9060  0.7706
  127OSM   H15B13550   6.222   6.417   5.970 -0.9573  0.0944 -0.5000
  127OSM   H15C13551   6.278   6.254   5.998 -0.5592 -0.3273 -1.0763
  127OSM    C1413552   5.959   6.347   5.882  0.2966  0.1280  0.0771
  127OSM   H14A13553   5.901   6.356   5.972 -2.9192  0.8796 -1.9034
  127OSM   H14B13554   5.889   6.298   5.816 -0.1865 -1.0837  1.4670
  127OSM   H14C13555   5.976   6.450   5.854  1.2258  0.0136  0.1945
  127OSM    C1313556   6.148   6.243   5.759  0.1161  0.3592  0.5154
  127OSM   H13A13557   6.255   6.231   5.769  0.1360  0.3553  0.2958
  127OSM   H13B13558   6.138   6.333   5.700  0.9894  1.3754  1.8611
  127OSM   H13C13559   6.117   6.152   5.710 -1.6052  1.1131  0.1170
  127OSM    C1213560   6.041   6.129   5.953 -0.6158 -0.3045 -0.0665
  127OSM   H12A13561   6.117   6.054   5.935 -0.9900 -0.4414 -1.1588
  127OSM   H12B13562   5.963   6.099   5.885 -0.1012  1.1176 -1.3440
  127OSM    C1113563   5.994   6.125   6.104  0.3699  0.5250 -0.5866
  127OSM   H11A13564   6.076   6.150   6.174 -1.1164  3.0027  0.4174
  127OSM   H11B13565   5.969   6.020   6.132  0.5188  1.2752  2.8244
  127OSM      P13566   5.739   6.185   6.116  0.0110 -0.0598  0.0769
  127OSM    O1313567   5.693   6.257   5.988  0.0694  0.7336 -0.1691
  127OSM    O1413568   5.718   6.043   6.130 -0.1767 -0.0431 -0.0935
  127OSM    O1113569   5.670   6.262   6.240  0.0322  0.3620 -0.0361
  127OSM    O1213570   5.891   6.221   6.136 -0.8089  0.4286 -0.1129
  127OSM    C1S13571   5.714   6.222   6.371 -0.1855  0.6200  0.2196
  127OSM    H1S13572   5.823   6.242   6.374 -0.1210  1.6399 -3.7539
  127OSM    H1T13573   5.701   6.115   6.400  0.1336  0.3149 -0.7147
  127OSM     NF13574   5.706   6.278   6.611  0.5392 -0.5429 -0.0873
  127OSM    HNF13575   5.662   6.216   6.675  0.2426 -0.2870 -0.0388
  127OSM    C2S13576   5.643   6.297   6.484 -0.1202 -0.2367  0.0608
  127OSM    H2S13577   5.644   6.407   6.472 -1.1886 -0.0101  1.7849
  127OSM    C3S13578   5.488   6.258   6.480  0.0359 -0.1628 -0.6009
  127OSM    H3S13579   5.479   6.147   6.486  0.4405 -0.1045  2.3924
  127OSM     O313580   5.422   6.302   6.365 -0.2021 -0.4677  0.3958
  127OSM    HO313581   5.495   6.322   6.306 -0.8929  1.4230  0.1146
  127OSM    C4S13582   5.416   6.311   6.596 -0.2579 -0.2167 -0.3366
  127OSM    H4S13583   5.372   6.411   6.589  0.7299  0.1904 -0.8804
  127OSM    C5S13584   5.402   6.247   6.714  0.0880 -0.0671 -0.1598
  127OSM    H5S13585   5.438   6.144   6.726 -1.7732 -0.7752 -0.2255
  127OSM    C6S13586   5.321   6.303   6.830 -0.2638 -0.4188 -0.4664
  127OSM    H6S13587   5.238   6.241   6.869 -0.1100 -1.0301 -1.0946
  127OSM    H6T13588   5.286   6.406   6.807 -0.5301 -0.1053  1.2276
  127OSM    C7S13589   5.415   6.329   6.957  0.5078 -0.5607  0.3491
  127OSM    H7S13590   5.463   6.428   6.946 -1.2674  0.6080  2.3170
  127OSM    H7T13591   5.495   6.252   6.957  3.2770  2.0369 -3.1348
  127OSM    C8S13592   5.334   6.324   7.093  0.5610  0.8199  0.3343
  127OSM    H8S13593   5.296   6.220   7.089  0.0364  1.0446 -1.3322
  127OSM    H8T13594   5.245   6.390   7.087  1.4794  2.1684  0.8816
  127OSM    C9S13595   5.409   6.347   7.221 -0.7585 -0.0380  0.4013
  127OSM    H9S13596   5.469   6.440   7.214 -1.1220  0.0696 -1.8459
  127OSM    H9T13597   5.481   6.263   7.229 -0.4285  0.1835 -0.2157
  127OSM   C10S13598   5.317   6.359   7.347  0.2509  0.2997  0.4644
  127OSM   H10S13599   5.273   6.260   7.373  1.3803 -0.1943  0.5256
  127OSM   H10T13600   5.239   6.436   7.328 -1.4075 -1.1433  1.1388
  127OSM   C11S13601   5.393   6.400   7.476  0.3407 -0.2449  0.1533
  127OSM   H11S13602   5.446   6.497   7.464 -1.9429  1.3239  1.8383
  127OSM   H11T13603   5.461   6.317   7.508  0.9802  0.9050  1.9364
  127OSM   C12S13604   5.290   6.424   7.593  0.1446 -0.0581  0.1082
  127OSM   H12S13605   5.251   6.324   7.621  0.2859 -0.4615 -1.1087
  127OSM   H12T13606   5.209   6.493   7.560  1.8846  1.1431 -1.8578
  127OSM   C13S13607   5.365   6.471   7.716  1.3906 -0.3754 -0.4937
  127OSM   H13S13608   5.369   6.580   7.736  0.7531 -0.5930  0.9977
  127OSM   H13T13609   5.472   6.442   7.721  1.7268  0.9170  0.4576
  127OSM   C14S13610   5.321   6.403   7.848  0.5195  0.7443  0.4899
  127OSM   H14S13611   5.409   6.419   7.914  2.9139 -2.7632 -1.5549
  127OSM   H14T13612   5.305   6.294   7.833 -2.0102  1.0587  0.4037
  127OSM   C15S13613   5.194   6.449   7.917  0.5768 -0.6058 -0.2351
  127OSM   H15S13614   5.110   6.446   7.844 -0.7975 -0.3246  1.2830
  127OSM   H15T13615   5.225   6.553   7.943  2.6312 -1.3016  0.2956
  127OSM   C16S13616   5.164   6.371   8.045 -0.4095 -0.2227  0.1966
  127OSM   H16S13617   5.244   6.376   8.121 -0.0936 -0.1186 -0.1409
  127OSM   H16T13618   5.144   6.264   8.022 -1.1773 -0.1727  0.5833
  127OSM   C17S13619   5.036   6.422   8.117 -0.0156  1.1033  0.7628
  127OSM   H17S13620   4.993   6.342   8.181  0.3469  1.1672  1.0918
  127OSM   H17T13621   4.962   6.431   8.035 -1.4006 -0.2294  1.7947
  127OSM   C18S13622   5.029   6.549   8.198 -0.2498 -0.2806 -0.8880
  127OSM   H18S13623   5.073   6.530   8.299 -1.4986 -4.3716 -0.9354
  127OSM   H18T13624   4.921   6.574   8.201 -0.1702  0.1124  2.0907
  127OSM   H18U13625   5.083   6.630   8.145  0.8438 -0.7201 -0.4702
  127OSM    C1F13626   5.817   6.343   6.648 -0.0669  0.1442 -0.5887
  127OSM     OF13627   5.879   6.412   6.577  0.4145 -0.2444  0.5554
  127OSM    C2F13628   5.853   6.326   6.791 -0.0643 -0.4165 -0.1873
  127OSM    H2F13629   5.955   6.283   6.800  0.0759 -0.2114 -0.7403
  127OSM    H2G13630   5.782   6.257   6.841 -0.6082  0.7135  0.6355
  127OSM    C3F13631   5.852   6.463   6.862 -0.6705  0.6569 -0.4139
  127OSM    H3F13632   5.752   6.507   6.846 -0.9358 -0.7034 -3.1153
  127OSM    H3G13633   5.930   6.530   6.820 -0.7918  1.8254  1.1473
  127OSM    C4F13634   5.875   6.454   7.015  0.4050  0.6409  0.3691
  127OSM    H4F13635   5.878   6.551   7.068 -1.4080  0.8826  0.0859
  127OSM    H4G13636   5.974   6.404   7.023 -0.1720 -0.6920 -0.3691
  127OSM    C5F13637   5.765   6.357   7.090 -0.2767 -0.9118 -0.4859
  127OSM    H5F13638   5.783   6.255   7.049  1.4942 -1.3678  1.2916
  127OSM    H5G13639   5.668   6.392   7.049  0.1726 -1.8174 -2.4018
  127OSM    C6F13640   5.770   6.362   7.243  0.4314  0.4811 -0.2580
  127OSM    H6F13641   5.708   6.280   7.285  1.2831  0.2845  0.6479
  127OSM    H6G13642   5.736   6.459   7.284  0.1001 -0.0397  0.7087
  127OSM    C7F13643   5.910   6.330   7.307  0.1112 -0.4695 -0.1467
  127OSM    H7F13644   5.986   6.398   7.262  1.0314 -2.5133 -1.9018
  127OSM    H7G13645   5.927   6.225   7.273 -0.2757 -1.8218  3.4860
  127OSM    C8F13646   5.922   6.299   7.458  0.4923  0.1685  0.1257
  127OSM    H8F13647   6.023   6.255   7.470  0.3648  0.1060  0.9958
  127OSM    H8G13648   5.838   6.231   7.486 -1.0735  1.9433 -0.1169
  127OSM    C9F13649   5.911   6.428   7.532  0.0079 -0.3756  0.3977
  127OSM    H9F13650   5.831   6.497   7.499  1.7424  0.9722 -1.1774
  127OSM   C10F13651   5.983   6.479   7.636 -0.2045  0.4187  0.4038
  127OSM   H10F13652   5.962   6.575   7.686  0.8358  0.1209  1.4531
  127OSM   C11F13653   6.101   6.416   7.701 -0.0303 -0.1460  0.0157
  127OSM   H11F13654   6.119   6.309   7.675  0.8039  0.3712 -1.7454
  127OSM   H11G13655   6.087   6.421   7.811 -1.9004  0.4897 -0.2159
  127OSM   C12F13656   6.230   6.482   7.666 -0.1284 -0.2257  0.1194
  127OSM   H12F13657   6.214   6.591   7.660 -0.5545 -0.0463  2.9639
  127OSM   H12G13658   6.255   6.454   7.561 -1.6391  2.6677 -1.0966
  127OSM   C13F13659   6.342   6.470   7.768  0.4143  0.0052 -0.6186
  127OSM   H13F13660   6.355   6.372   7.818 -0.8066 -0.2576 -0.7967
  127OSM   H13G13661   6.322   6.542   7.851  1.5148  0.2925 -0.5743
  127OSM   C14F13662   6.480   6.514   7.712 -0.1097  0.8532 -0.3516
  127OSM   H14F13663   6.470   6.619   7.679  0.3180  0.6263 -1.2215
  127OSM   H14G13664   6.504   6.452   7.623 -2.1262  0.6968 -0.8400
  127OSM   C15F13665   6.595   6.510   7.819 -0.4289 -0.1219 -0.4413
  127OSM   H15F13666   6.680   6.571   7.783  1.9508  1.2923  6.1971
  127OSM   H15G13667   6.624   6.404   7.830  0.8161  0.2387 -0.0553
  127OSM   C16F13668   6.576   6.558   7.965 -0.5200 -0.3719  0.2978
  127OSM   H16F13669   6.490   6.504   8.011 -0.3898  0.5977  1.7465
  127OSM   H16G13670   6.553   6.667   7.968 -0.6183 -0.2980 -1.5929
  127OSM   C17F13671   6.702   6.538   8.055  0.2175  0.0277 -0.1519
  127OSM   H17F13672   6.772   6.619   8.025  0.3755 -0.5446 -1.3908
  127OSM   H17G13673   6.744   6.436   8.043 -0.6365 -0.3399 -0.1007
  127OSM   C18F13674   6.679   6.557   8.205 -0.1670 -0.5989 -0.2930
  127OSM   H18F13675   6.615   6.472   8.240 -0.5650  0.2922  1.2769
  127OSM   H18G13676   6.641   6.659   8.229  0.8344 -0.2142 -0.2890
  127OSM   H18H13677   6.772   6.554   8.266 -2.5367  1.3280  3.8679
  128OSM      N13678   1.557   2.489   5.978 -0.1150  0.1002 -0.1762
  128OSM    C1513679   1.591   2.495   6.132  0.1794  0.1651  0.4944
  128OSM   H15A13680   1.552   2.406   6.179 -1.6530 -0.5072 -2.0900
  128OSM   H15B13681   1.555   2.579   6.190 -0.3834  0.5465 -0.3857
  128OSM   H15C13682   1.699   2.499   6.140  0.4148  0.4916 -2.0625
  128OSM    C1413683   1.606   2.620   5.919 -0.4471  1.1917 -0.2903
  128OSM   H14A13684   1.583   2.707   5.978  0.8071  0.5086  1.2967
  128OSM   H14B13685   1.575   2.620   5.815 -1.3516 -0.3340 -0.0531
  128OSM   H14C13686   1.713   2.613   5.937 -0.7385  0.0310  1.1986
  128OSM    C1313687   1.642   2.384   5.920 -0.0677  0.1327  0.3642
  128OSM   H13A13688   1.612   2.361   5.819  0.7747 -0.4804  0.2371
  128OSM   H13B13689   1.647   2.288   5.970  0.9639 -0.4947 -0.8791
  128OSM   H13C13690   1.742   2.423   5.911 -0.3971  0.7206 -0.9711
  128OSM    C1213691   1.407   2.475   5.942  0.7181 -0.7733  0.2724
  128OSM   H12A13692   1.370   2.395   6.004 -1.2800  0.1069  0.2626
  128OSM   H12B13693   1.396   2.431   5.844 -3.4161  2.3947 -0.9191
  128OSM    C1113694   1.305   2.589   5.965 -0.3394 -0.1143  0.0236
  128OSM   H11A13695   1.205   2.570   5.922  0.1817 -0.8295 -0.9061
  128OSM   H11B13696   1.334   2.680   5.910 -2.3260  1.0167  0.7373
  128OSM      P13697   1.321   2.764   6.160  0.3229  0.0415  0.1090
  128OSM    O1313698   1.467   2.787   6.199 -0.4636  0.0470 -0.2842
  128OSM    O1413699   1.271   2.877   6.079  0.1733 -0.4952 -0.2656
  128OSM    O1113700   1.239   2.772   6.302 -0.3377 -0.0365  0.5109
  128OSM    O1213701   1.286   2.620   6.108  0.2493  0.5385 -0.0409
  128OSM    C1S13702   1.241   2.661   6.388 -0.3514  0.7409  0.2284
  128OSM    H1S13703   1.343   2.615   6.395 -1.0828 -0.8281  1.1345
  128OSM    H1T13704   1.175   2.578   6.356  1.2580 -0.1391 -1.0039
  128OSM     NF13705   1.238   2.570   6.620  0.0269 -0.5740 -0.3903
  128OSM    HNF13706   1.162   2.505   6.619 -1.9624  1.5872  0.8262
  128OSM    C2S13707   1.212   2.690   6.541  0.0174 -0.7268  0.6315
  128OSM    H2S13708   1.281   2.773   6.564  0.5600 -1.1495  0.5545
  128OSM    C3S13709   1.061   2.746   6.552 -0.2710 -0.1931 -0.5765
  128OSM    H3S13710   0.995   2.657   6.549 -0.1204 -0.4313  1.4596
  128OSM     O313711   1.022   2.838   6.446 -0.1539  0.3940 -0.9282
  128OSM    HO313712   1.087   2.816   6.379  0.6878  0.0398 -0.0172
  128OSM    C4S13713   1.054   2.814   6.688  0.8569  0.2985  0.3447
  128OSM    H4S13714   1.021   2.750   6.772 -0.9545 -0.5058 -0.9201
  128OSM    C5S13715   1.077   2.944   6.717  0.5801  0.2446 -0.9768
  128OSM    H5S13716   1.107   3.013   6.638  0.1924  0.6636 -0.7628
  128OSM    C6S13717   1.059   3.013   6.853 -0.5055  0.1018 -0.0845
  128OSM    H6S13718   0.962   2.989   6.902  0.8603  0.5467  3.0657
  128OSM    H6T13719   1.051   3.124   6.848  0.9641  0.1811 -1.2988
  128OSM    C7S13720   1.179   2.998   6.946 -0.1717 -0.4728 -0.1872
  128OSM    H7S13721   1.156   3.057   7.037 -0.2961 -0.4970 -0.2022
  128OSM    H7T13722   1.271   3.046   6.907  0.1384 -0.5778  0.4110
  128OSM    C8S13723   1.198   2.855   6.998  0.0596 -0.0005  0.1845
  128OSM    H8S13724   1.239   2.799   6.911 -0.9239  0.9549 -0.9295
  128OSM    H8T13725   1.102   2.807   7.028  0.1236 -1.1115 -1.2502
  128OSM    C9S13726   1.288   2.851   7.119  0.3079 -0.4317  0.4166
  128OSM    H9S13727   1.356   2.938   7.107  0.3731 -0.1753  2.4100
  128OSM    H9T13728   1.350   2.759   7.126  0.5945 -0.4940 -2.0171
  128OSM   C10S13729   1.222   2.876   7.253 -0.4290 -0.5223  0.4572
  128OSM   H10S13730   1.167   2.972   7.247  0.0167 -0.2676  0.3847
  128OSM   H10T13731   1.304   2.888   7.328  1.5263  3.0128 -1.9643
  128OSM   C11S13732   1.124   2.767   7.297 -0.3502  0.6314  0.2027
  128OSM   H11S13733   1.186   2.677   7.318 -0.2268  0.2139 -1.7617
  128OSM   H11T13734   1.049   2.745   7.219 -0.0922  2.0000 -0.4688
  128OSM   C12S13735   1.038   2.818   7.417 -0.1175  0.4654 -0.1987
  128OSM   H12S13736   0.960   2.743   7.439  0.4743  0.3738  1.7762
  128OSM   H12T13737   0.999   2.919   7.390 -0.8909  0.5305  1.0919
  128OSM   C13S13738   1.117   2.821   7.548 -0.6843  0.3508 -0.3862
  128OSM   H13S13739   1.194   2.901   7.549 -0.4535  0.1732  2.1005
  128OSM   H13T13740   1.158   2.720   7.569 -1.2772  0.3235  0.6968
  128OSM   C14S13741   1.021   2.838   7.670  0.2174  0.2252 -0.1457
  128OSM   H14S13742   0.918   2.796   7.658  0.8330 -1.8990  1.3282
  128OSM   H14T13743   1.022   2.948   7.679 -0.4017  0.2511 -0.2932
  128OSM   C15S13744   1.070   2.787   7.802  0.2869 -0.0247  0.3281
  128OSM   H15S13745   1.174   2.824   7.813 -0.6037  2.9185 -0.4363
  128OSM   H15T13746   1.075   2.676   7.789  2.9283  0.0878 -0.2751
  128OSM   C16S13747   0.988   2.836   7.920  0.0766 -0.1272 -0.0722
  128OSM   H16S13748   0.885   2.859   7.884 -0.4414  0.4915  1.6887
  128OSM   H16T13749   1.034   2.923   7.972  1.8234 -1.7991  1.3341
  128OSM   C17S13750   0.984   2.722   8.022 -0.1933  0.6607  0.7030
  128OSM   H17S13751   0.901   2.651   7.997 -0.5059  0.5472  2.0026
  128OSM   H17T13752   0.947   2.772   8.114 -0.8496  1.3228  0.0956
  128OSM   C18S13753   1.118   2.652   8.056  0.8072 -1.0740  0.6609
  128OSM   H18S13754   1.096   2.555   8.107  0.1327 -1.6587 -0.7083
  128OSM   H18T13755   1.179   2.713   8.127  0.3605  0.2221 -0.0466
  128OSM   H18U13756   1.192   2.632   7.975 -0.1115  1.4539 -0.9123
  128OSM    C1F13757   1.353   2.543   6.666 -0.5060  0.2631 -0.8910
  128OSM     OF13758   1.441   2.628   6.653 -0.2169 -0.1754 -0.0697
  128OSM    C2F13759   1.382   2.400   6.717  0.0682 -0.4611 -0.6547
  128OSM    H2F13760   1.491   2.384   6.704  0.6406  3.6797 -2.6138
  128OSM    H2G13761   1.333   2.343   6.636  0.9275 -0.1705 -1.3884
  128OSM    C3F13762   1.337   2.359   6.857 -0.6748  0.3370  0.8990
  128OSM    H3F13763   1.357   2.250   6.872  1.9443  0.6805  0.4114
  128OSM    H3G13764   1.227   2.366   6.858 -0.6020  3.0798 -1.0491
  128OSM    C4F13765   1.413   2.439   6.961 -0.5216 -0.0697 -0.0681
  128OSM    H4F13766   1.401   2.544   6.926  0.6860  0.2169  0.3050
  128OSM    H4G13767   1.522   2.416   6.968 -0.4899  0.0691 -0.0992
  128OSM    C5F13768   1.345   2.447   7.104 -0.0016 -0.3508  0.7167
  128OSM    H5F13769   1.240   2.483   7.097  0.6809  1.4760 -0.9916
  128OSM    H5G13770   1.407   2.529   7.146  0.7025  0.1392 -1.1810
  128OSM    C6F13771   1.353   2.315   7.172  0.0567  0.1853 -0.0932
  128OSM    H6F13772   1.455   2.295   7.210 -0.2315  0.0415  0.6274
  128OSM    H6G13773   1.328   2.236   7.098  1.6771 -0.5619  0.1047
  128OSM    C7F13774   1.273   2.316   7.301 -0.8502 -0.1732  0.0398
  128OSM    H7F13775   1.238   2.212   7.316 -2.0757 -0.4678 -3.8849
  128OSM    H7G13776   1.180   2.366   7.265 -0.2783 -0.5436 -2.0660
  128OSM    C8F13777   1.345   2.383   7.418  0.6633 -0.4599 -0.0262
  128OSM    H8F13778   1.395   2.471   7.373 -1.7253  0.6458 -0.7048
  128OSM    H8G13779   1.416   2.312   7.464 -0.0349 -0.6202  0.8360
  128OSM    C9F13780   1.236   2.438   7.520 -0.0118  0.2197  0.0072
  128OSM    H9F13781   1.156   2.495   7.472 -0.3075  1.2546  1.6540
  128OSM   C10F13782   1.235   2.418   7.648  0.3999  0.6356  0.2658
  128OSM   H10F13783   1.155   2.470   7.702  0.7639 -0.7079  2.2007
  128OSM   C11F13784   1.338   2.343   7.720  0.1334  0.2505  0.5269
  128OSM   H11F13785   1.440   2.373   7.686  0.4341 -0.4976  0.7382
  128OSM   H11G13786   1.326   2.234   7.701 -0.2675  0.1796  1.1707
  128OSM   C12F13787   1.345   2.350   7.873  0.7364  0.2530  0.6522
  128OSM   H12F13788   1.263   2.296   7.924  1.4857  0.1599  1.7827
  128OSM   H12G13789   1.322   2.456   7.899  2.0135  0.4542  1.0375
  128OSM   C13F13790   1.478   2.315   7.934 -0.4293  0.0075  0.0789
  128OSM   H13F13791   1.563   2.369   7.887  0.9587 -1.5171  0.7179
  128OSM   H13G13792   1.490   2.206   7.918 -0.3080 -0.2934  2.0296
  128OSM   C14F13793   1.486   2.341   8.090 -0.2929  0.6001  0.2523
  128OSM   H14F13794   1.480   2.447   8.122 -0.7990  0.4263  0.7595
  128OSM   H14G13795   1.589   2.308   8.117 -0.0163  0.9002 -0.4246
  128OSM   C15F13796   1.383   2.264   8.170 -0.4073 -0.1135  0.5520
  128OSM   H15F13797   1.384   2.156   8.143  1.3280  0.6166 -2.7553
  128OSM   H15G13798   1.282   2.307   8.163 -0.3750  0.2659  2.0298
  128OSM   C16F13799   1.398   2.282   8.329 -0.7473  0.5296  0.4596
  128OSM   H16F13800   1.481   2.215   8.359 -2.7273 -1.5825  1.5634
  128OSM   H16G13801   1.309   2.235   8.378 -2.6493  1.2603 -2.0684
  128OSM   C17F13802   1.418   2.422   8.377  0.1110 -0.0628 -0.5735
  128OSM   H17F13803   1.316   2.468   8.380 -0.8504 -2.0968 -0.1652
  128OSM   H17G13804   1.493   2.486   8.326 -0.5502 -1.2332 -3.1523
  128OSM   C18F13805   1.462   2.423   8.527 -0.7681 -0.1355  0.0853
  128OSM   H18F13806   1.394   2.370   8.597 -1.3285 -0.5794 -0.7804
  128OSM   H18G13807   1.476   2.530   8.557  2.7979 -0.8664  1.5219
  128OSM   H18H13808   1.566   2.385   8.529 -0.2927  0.8507 -2.2129
  129OSM      N13809   5.758   0.146   6.223 -0.2814  0.5647  0.9936
  129OSM    C1513810   5.669   0.046   6.141  0.0022  0.3085 -0.2607
  129OSM   H15A13811   5.662  -0.042   6.203 -1.7934  2.5830  3.0741
  129OSM   H15B13812   5.717   0.021   6.047  1.6095 -0.4025  0.7000
  129OSM   H15C13813   5.567   0.081   6.141 -0.8314 -1.7371  2.9284
  129OSM    C1413814   5.905   0.097   6.223  0.9388  0.4625 -0.6644
  129OSM   H14A13815   5.942   0.096   6.122 -0.1592 -0.4293 -1.0701
  129OSM   H14B13816   5.914  -0.003   6.263  1.0633  0.1473 -1.4644
  129OSM   H14C13817   5.963   0.166   6.283  1.7047  0.0828 -0.9581
  129OSM    C1313818   5.754   0.281   6.159 -0.7181 -0.2256 -0.5347
  129OSM   H13A13819   5.795   0.275   6.060 -0.4616  2.1648 -0.6209
  129OSM   H13B13820   5.801   0.355   6.222 -1.9385 -0.1038  0.2790
  129OSM   H13C13821   5.655   0.321   6.144 -0.6206 -0.2632 -1.3362
  129OSM    C1213822   5.713   0.159   6.367 -0.7141  0.8929  0.2522
  129OSM   H12A13823   5.769   0.233   6.422 -1.0885  0.8382  0.7078
  129OSM   H12B13824   5.735   0.070   6.423 -2.2705 -0.1110 -0.6328
  129OSM    C1113825   5.563   0.196   6.393 -0.2601 -0.0210  0.6345
  129OSM   H11A13826   5.532   0.291   6.345 -1.8030  0.7240  2.9270
  129OSM   H11B13827   5.545   0.217   6.501 -0.7771 -0.4692  0.6413
  129OSM      P13828   5.461  -0.051   6.411  0.2526  0.3658 -0.1798
  129OSM    O1313829   5.332  -0.114   6.376  0.5309 -0.4171  0.4487
  129OSM    O1413830   5.583  -0.119   6.373 -0.1878  0.7760  0.4937
  129OSM    O1113831   5.462  -0.026   6.569 -0.5537 -0.8150  0.6382
  129OSM    O1213832   5.471   0.097   6.344 -0.4734  0.0973 -0.0521
  129OSM    C1S13833   5.357   0.049   6.636 -0.0859  0.4399  0.4538
  129OSM    H1S13834   5.259   0.003   6.614 -0.4250  0.5430  1.7025
  129OSM    H1T13835   5.347   0.157   6.610 -0.3558  0.6713  1.4948
  129OSM     NF13836   5.283   0.101   6.867  0.3163  0.4984 -0.3632
  129OSM    HNF13837   5.280   0.199   6.884 -0.7714  0.4625 -0.2591
  129OSM    C2S13838   5.391   0.043   6.782  0.1730  0.1746 -0.8365
  129OSM    H2S13839   5.402  -0.063   6.814  1.8379  0.7470  0.6059
  129OSM    C3S13840   5.520   0.122   6.804 -0.0059  0.1734 -0.9496
  129OSM    H3S13841   5.507   0.232   6.800  1.1252  0.3122 -1.2116
  129OSM     O313842   5.633   0.103   6.715 -0.4424  0.1752 -0.1220
  129OSM    HO313843   5.599   0.044   6.647 -1.6533 -0.3471  0.8824
  129OSM    C4S13844   5.558   0.083   6.948 -0.1334  0.7025 -0.1304
  129OSM    H4S13845   5.566  -0.026   6.960 -0.8144 -0.0804 -4.7821
  129OSM    C5S13846   5.566   0.178   7.045  0.8616  0.3353 -0.3770
  129OSM    H5S13847   5.559   0.285   7.022  2.0588  0.5854  0.2992
  129OSM    C6S13848   5.598   0.155   7.194  0.2488  0.4099  0.0628
  129OSM    H6S13849   5.517   0.182   7.264 -0.6124  0.6238 -0.9963
  129OSM    H6T13850   5.680   0.222   7.229  2.1479 -1.1888 -1.1391
  129OSM    C7S13851   5.630   0.009   7.219  0.1362 -0.0062 -0.3325
  129OSM    H7S13852   5.710  -0.034   7.155 -0.3110 -0.9190 -0.2929
  129OSM    H7T13853   5.543  -0.058   7.201 -0.3564  0.4100  0.4818
  129OSM    C8S13854   5.660  -0.015   7.373 -0.2212  0.6951  0.0817
  129OSM    H8S13855   5.762   0.021   7.394  0.8164  0.2620 -3.4643
  129OSM    H8T13856   5.657  -0.125   7.386 -2.4250  0.7528  0.4605
  129OSM    C9S13857   5.552   0.036   7.471 -0.3222 -0.4356  0.5326
  129OSM    H9S13858   5.449   0.025   7.431 -0.1739  0.2307 -0.0651
  129OSM    H9T13859   5.573   0.144   7.487 -1.8594  0.0276 -0.3644
  129OSM   C10S13860   5.557  -0.024   7.613 -0.0952  0.0199  0.0167
  129OSM   H10S13861   5.543  -0.134   7.606 -0.4822  0.1425 -1.3909
  129OSM   H10T13862   5.472   0.010   7.675 -2.2560 -1.6002 -1.8691
  129OSM   C11S13863   5.693   0.017   7.677  0.6035 -0.3612  0.2317
  129OSM   H11S13864   5.719   0.119   7.640 -0.1228 -1.2264 -2.9413
  129OSM   H11T13865   5.773  -0.043   7.629 -0.4577 -0.6473 -1.2470
  129OSM   C12S13866   5.709   0.014   7.831 -0.2881  0.3666 -0.0527
  129OSM   H12S13867   5.612   0.044   7.876 -0.2112 -1.2105  1.2661
  129OSM   H12T13868   5.796   0.079   7.852  1.1341 -1.3897 -0.2506
  129OSM   C13S13869   5.738  -0.126   7.884 -0.6266 -0.1222  0.6598
  129OSM   H13S13870   5.844  -0.157   7.879 -0.1913  0.9344  2.5375
  129OSM   H13T13871   5.673  -0.192   7.822  0.1330 -0.5318  0.2899
  129OSM   C14S13872   5.692  -0.131   8.033 -0.3898  0.5633 -0.3955
  129OSM   H14S13873   5.584  -0.103   8.031 -0.1726  2.1773  3.2131
  129OSM   H14T13874   5.736  -0.052   8.097 -0.7399  1.2951 -1.0475
  129OSM   C15S13875   5.728  -0.266   8.094 -0.8887  0.3353 -0.0246
  129OSM   H15S13876   5.700  -0.343   8.019  1.8024  0.7094 -1.5343
  129OSM   H15T13877   5.664  -0.297   8.179 -1.3782 -1.2196 -0.9367
  129OSM   C16S13878   5.883  -0.280   8.113  0.0403  0.0989  0.1874
  129OSM   H16S13879   5.939  -0.232   8.029 -1.1446 -1.6635 -1.6971
  129OSM   H16T13880   5.916  -0.385   8.125  3.1941  1.1288  1.6287
  129OSM   C17S13881   5.923  -0.202   8.238  0.7599  0.2163  0.1863
  129OSM   H17S13882   5.882  -0.262   8.321 -2.2378  0.4754 -0.9681
  129OSM   H17T13883   5.878  -0.100   8.243  1.8054  0.8989 -2.4625
  129OSM   C18S13884   6.074  -0.186   8.266  0.2617  0.1027  0.2017
  129OSM   H18S13885   6.118  -0.131   8.180 -1.3711 -0.1706 -0.8465
  129OSM   H18T13886   6.125  -0.284   8.272  2.5703  1.3018  1.6020
  129OSM   H18U13887   6.097  -0.134   8.362  2.6150 -0.0771 -0.1934
  129OSM    C1F13888   5.171   0.035   6.881 -0.0506  0.0761  0.2534
  129OSM     OF13889   5.155  -0.071   6.822  0.3582  0.0533 -0.3006
  129OSM    C2F13890   5.053   0.102   6.949  0.2706 -0.5398 -0.0763
  129OSM    H2F13891   4.980   0.135   6.873  0.9267  1.5177  0.1281
  129OSM    H2G13892   5.090   0.193   7.003 -2.3372 -0.7864  2.3316
  129OSM    C3F13893   4.998   0.009   7.058  0.1339  0.3312 -0.0036
  129OSM    H3F13894   4.989  -0.097   7.027 -0.3768  0.1629  0.6947
  129OSM    H3G13895   4.902   0.052   7.093  1.8385  2.0352  2.9876
  129OSM    C4F13896   5.103   0.001   7.178  0.6637  0.2009  0.1068
  129OSM    H4F13897   5.207  -0.015   7.143  0.4046  1.2145 -1.2012
  129OSM    H4G13898   5.077  -0.090   7.237 -0.0127  0.2324 -0.1259
  129OSM    C5F13899   5.107   0.121   7.272  0.3012  0.0803  0.1304
  129OSM    H5F13900   5.002   0.142   7.303 -0.0607  0.6537 -1.3701
  129OSM    H5G13901   5.138   0.218   7.227  4.4385 -1.9679 -2.0500
  129OSM    C6F13902   5.199   0.115   7.396  0.5387  0.5531  1.0305
  129OSM    H6F13903   5.298   0.163   7.380  1.2299 -0.9474  0.6026
  129OSM    H6G13904   5.202   0.007   7.424  0.0237 -0.0635 -1.1182
  129OSM    C7F13905   5.138   0.181   7.524  0.3193  0.4617  0.8123
  129OSM    H7F13906   5.071   0.108   7.574 -1.2033 -0.4360 -2.2318
  129OSM    H7G13907   5.077   0.259   7.473 -2.0299 -2.1723 -0.7536
  129OSM    C8F13908   5.250   0.238   7.611  0.0229  0.1772 -0.1018
  129OSM    H8F13909   5.335   0.266   7.546  0.7227 -0.1108  0.6710
  129OSM    H8G13910   5.287   0.157   7.678 -1.7211 -1.1873 -0.7276
  129OSM    C9F13911   5.199   0.356   7.684  0.0956 -0.2342  0.3596
  129OSM    H9F13912   5.188   0.449   7.626 -2.7428 -0.1376  0.9099
  129OSM   C10F13913   5.162   0.356   7.812  0.1509 -0.1353  0.6658
  129OSM   H10F13914   5.124   0.450   7.856 -0.0387 -0.6865  1.7191
  129OSM   C11F13915   5.161   0.239   7.910  0.3651  0.5594 -0.0613
  129OSM   H11F13916   5.226   0.150   7.898  2.6951  1.9809  1.2595
  129OSM   H11G13917   5.054   0.211   7.917 -0.4410  3.1367 -1.0024
  129OSM   C12F13918   5.199   0.290   8.057 -0.2820  0.4818  0.4648
  129OSM   H12F13919   5.137   0.376   8.091  0.3440  0.3681  1.9882
  129OSM   H12G13920   5.307   0.319   8.063 -0.1525 -0.2350  2.9925
  129OSM   C13F13921   5.176   0.179   8.161 -0.4165  0.3989  0.8434
  129OSM   H13F13922   5.235   0.089   8.131 -0.4827 -0.0251  1.9244
  129OSM   H13G13923   5.068   0.153   8.157 -0.8706  2.0574  1.7031
  129OSM   C14F13924   5.214   0.212   8.300 -1.0025  0.5565 -0.4291
  129OSM   H14F13925   5.128   0.276   8.331 -1.3059 -0.6114  1.2498
  129OSM   H14G13926   5.298   0.284   8.295 -0.1038 -0.4930 -1.0160
  129OSM   C15F13927   5.246   0.093   8.397  0.3936 -0.0292 -1.1465
  129OSM   H15F13928   5.317   0.019   8.356 -0.7280 -0.6809 -1.9821
  129OSM   H15G13929   5.155   0.038   8.427  2.7922 -3.4908  0.3329
  129OSM   C16F13930   5.312   0.152   8.524 -0.9533  0.5977 -0.0660
  129OSM   H16F13931   5.385   0.227   8.485 -0.3315  0.1362  0.1842
  129OSM   H16G13932   5.361   0.061   8.565 -0.1083  1.0313 -0.0840
  129OSM   C17F13933   5.218   0.218   8.627 -0.4387  0.0991  0.9296
  129OSM   H17F13934   5.133   0.147   8.636  2.0710 -3.0793  1.9158
  129OSM   H17G13935   5.181   0.315   8.588 -3.6837 -1.7888 -1.0845
  129OSM   C18F13936   5.271   0.233   8.769 -0.7529  0.1510  0.4810
  129OSM   H18F13937   5.197   0.270   8.844 -0.2419  0.3354  0.8968
  129OSM   H18G13938   5.359   0.299   8.778 -2.0307  2.0749 -0.5728
  129OSM   H18H13939   5.307   0.133   8.802  0.4712 -0.4237 -2.3229
  130OSM      N13940   1.455   1.326   6.281  0.2769 -0.3936  0.1137
  130OSM    C1513941   1.475   1.226   6.381 -0.4946  0.2368 -0.3681
  130OSM   H15A13942   1.453   1.126   6.347  1.9767 -0.3203 -0.5756
  130OSM   H15B13943   1.418   1.246   6.470  0.2906  1.5694 -0.1317
  130OSM   H15C13944   1.580   1.221   6.407 -0.3399 -1.5477 -1.1606
  130OSM    C1413945   1.563   1.300   6.184 -0.4449  0.1746  0.3653
  130OSM   H14A13946   1.569   1.372   6.104 -1.0058  1.0112  1.0575
  130OSM   H14B13947   1.560   1.201   6.140 -2.3314  1.0848 -1.7718
  130OSM   H14C13948   1.660   1.310   6.230 -0.7734  2.4633  0.6816
  130OSM    C1313949   1.328   1.298   6.220 -0.0582 -0.0833 -0.2172
  130OSM   H13A13950   1.247   1.285   6.290  0.7588 -2.3802  0.3906
  130OSM   H13B13951   1.341   1.199   6.179 -1.8516 -0.4478  0.0231
  130OSM   H13C13952   1.303   1.356   6.132  1.3364  1.6173  0.4665
  130OSM    C1213953   1.469   1.467   6.341 -0.0246 -0.5053 -0.0405
  130OSM   H12A13954   1.380   1.490   6.397 -0.4249  1.1810 -1.2728
  130OSM   H12B13955   1.468   1.537   6.258 -1.3313 -0.3252  0.0987
  130OSM    C1113956   1.588   1.502   6.431  0.7828 -0.2747 -0.6462
  130OSM   H11A13957   1.599   1.436   6.519 -0.3967  0.0522 -0.2423
  130OSM   H11B13958   1.570   1.600   6.481  1.0133  0.7089 -2.4099
  130OSM      P13959   1.732   1.603   6.248 -0.3661  0.0800  0.2077
  130OSM    O1313960   1.769   1.536   6.122  0.0935  0.3388  0.8147
  130OSM    O1413961   1.619   1.701   6.245  0.1182  0.3527 -0.3140
  130OSM    O1113962   1.863   1.675   6.303  0.2792 -0.7592 -0.0642
  130OSM    O1213963   1.708   1.498   6.360  0.6687  0.4062  0.1701
  130OSM    C1S13964   1.849   1.764   6.416 -0.1686  0.0048  0.1328
  130OSM    H1S13965   1.749   1.812   6.428 -0.4270 -0.8957  1.7698
  130OSM    H1T13966   1.918   1.850   6.397 -0.2825  0.2210  0.7032
  130OSM     NF13967   1.862   1.794   6.654  0.0991  0.2467 -0.5002
  130OSM    HNF13968   1.943   1.819   6.707  0.6987 -0.5032 -1.0292
  130OSM    C2S13969   1.886   1.701   6.541  0.4954  0.9327  0.2008
  130OSM    H2S13970   1.824   1.610   6.555  0.2850  0.9706 -0.4518
  130OSM    C3S13971   2.031   1.643   6.538 -0.0905  0.0787  0.0027
  130OSM    H3S13972   2.103   1.724   6.563 -0.7150  1.5905 -2.7020
  130OSM     O313973   2.082   1.589   6.410 -0.3459 -0.3507 -0.2788
  130OSM    HO313974   2.016   1.627   6.351 -1.9534  1.5533  2.5286
  130OSM    C4S13975   2.045   1.526   6.636 -0.0051 -0.3119 -0.4843
  130OSM    H4S13976   1.959   1.457   6.635 -0.6622  0.3977  1.6696
  130OSM    C5S13977   2.145   1.514   6.721 -0.0889 -0.1581  0.5632
  130OSM    H5S13978   2.221   1.593   6.728 -0.8689  0.5736  0.9791
  130OSM    C6S13979   2.140   1.407   6.829 -0.7046  0.3763  0.5654
  130OSM    H6S13980   2.197   1.323   6.784  1.9241  2.1726  0.2857
  130OSM    H6T13981   2.037   1.384   6.863 -0.8433  1.6806  1.0880
  130OSM    C7S13982   2.208   1.464   6.951 -0.0222 -0.2847 -0.4779
  130OSM    H7S13983   2.146   1.542   6.998 -0.7823 -0.9865 -0.2850
  130OSM    H7T13984   2.307   1.506   6.924 -1.2058  1.9736 -1.5563
  130OSM    C8S13985   2.233   1.351   7.055  0.4787 -0.6014  0.1567
  130OSM    H8S13986   2.303   1.274   7.017  0.6546 -0.6228  0.5196
  130OSM    H8T13987   2.133   1.311   7.079  0.7403 -0.9451  0.6759
  130OSM    C9S13988   2.298   1.408   7.183 -0.2158 -0.0252  0.1001
  130OSM    H9S13989   2.250   1.506   7.206  1.3375  1.5192 -2.6598
  130OSM    H9T13990   2.408   1.424   7.172  0.2306 -1.5695  1.8127
  130OSM   C10S13991   2.273   1.317   7.307  0.0454 -0.3076  0.6481
  130OSM   H10S13992   2.323   1.221   7.280  1.1476  0.3597  0.2358
  130OSM   H10T13993   2.167   1.283   7.315 -0.7378  1.6980 -0.4585
  130OSM   C11S13994   2.323   1.371   7.437 -0.6023 -0.2447 -0.7067
  130OSM   H11S13995   2.274   1.468   7.461 -1.3645 -0.8426  0.1983
  130OSM   H11T13996   2.432   1.394   7.433 -0.6569  0.3730  0.7149
  130OSM   C12S13997   2.297   1.268   7.547  0.2969  0.1188 -0.2357
  130OSM   H12S13998   2.341   1.168   7.526  2.1186  0.4142  1.7837
  130OSM   H12T13999   2.187   1.267   7.555  0.2317  2.4538 -0.0190
  130OSM   C13S14000   2.351   1.324   7.682  0.0096  0.0412 -0.2966
  130OSM   H13S14001   2.308   1.423   7.710 -1.3747 -1.2670  2.6571
  130OSM   H13T14002   2.460   1.344   7.678 -0.5831  3.8415 -4.1440
  130OSM   C14S14003   2.341   1.230   7.799  0.6207 -0.3370  0.6129
  130OSM   H14S14004   2.380   1.132   7.764  1.4885 -0.2488  1.3174
  130OSM   H14T14005   2.236   1.211   7.831 -0.2975  2.7035 -0.2255
  130OSM   C15S14006   2.418   1.278   7.917 -0.7445 -0.2314  0.5701
  130OSM   H15S14007   2.396   1.387   7.922 -2.3669 -0.4551 -0.6878
  130OSM   H15T14008   2.526   1.259   7.902 -0.2321  1.0532  2.3587
  130OSM   C16S14009   2.372   1.213   8.050 -0.1701  0.5732  0.0288
  130OSM   H16S14010   2.391   1.105   8.064  0.2054  0.8901  2.4109
  130OSM   H16T14011   2.262   1.224   8.066 -0.0423 -1.2319  2.8893
  130OSM   C17S14012   2.450   1.269   8.170 -0.4224  0.4547 -0.8077
  130OSM   H17S14013   2.434   1.377   8.193  1.3891  0.1124  2.9147
  130OSM   H17T14014   2.554   1.254   8.134 -0.5549 -0.6377 -0.7520
  130OSM   C18S14015   2.428   1.192   8.302  0.3620  0.1934  0.2070
  130OSM   H18S14016   2.322   1.185   8.334  0.6410 -1.8381  0.8495
  130OSM   H18T14017   2.487   1.242   8.382  0.5024 -1.5336  1.2264
  130OSM   H18U14018   2.468   1.088   8.298  0.8149  0.2530  2.2347
  130OSM    C1F14019   1.740   1.841   6.674 -0.3053  0.1224 -0.0456
  130OSM     OF14020   1.647   1.780   6.632 -0.0531  0.1394  0.5183
  130OSM    C2F14021   1.719   1.977   6.738 -0.1809  0.2242 -0.6821
  130OSM    H2F14022   1.616   2.013   6.716 -0.9376 -1.3066  0.1615
  130OSM    H2G14023   1.804   2.041   6.707  0.9003 -0.6834  0.2841
  130OSM    C3F14024   1.733   1.967   6.891  0.0868  0.5199 -0.0462
  130OSM    H3F14025   1.822   1.904   6.911  0.0098 -0.3170 -2.1003
  130OSM    H3G14026   1.642   1.911   6.922  0.2480  0.4282  0.2670
  130OSM    C4F14027   1.750   2.096   6.978  0.1139  0.3425  0.6664
  130OSM    H4F14028   1.659   2.159   6.989 -0.6760 -0.6030 -0.1776
  130OSM    H4G14029   1.834   2.158   6.939 -0.5423  0.8320  0.0105
  130OSM    C5F14030   1.780   2.051   7.123  0.0932 -0.6259 -0.3082
  130OSM    H5F14031   1.872   1.988   7.123  0.8401  0.4086 -2.2381
  130OSM    H5G14032   1.691   1.996   7.160 -0.4136  0.7552  0.6034
  130OSM    C6F14033   1.809   2.182   7.205  0.1221  0.5514  0.0241
  130OSM    H6F14034   1.714   2.228   7.238 -0.4282 -1.7237  1.8916
  130OSM    H6G14035   1.866   2.245   7.133 -0.5162  1.5716  0.3957
  130OSM    C7F14036   1.901   2.160   7.322  0.0731  0.4425  0.8520
  130OSM    H7F14037   1.947   2.251   7.366  0.6203  2.6769 -3.7365
  130OSM    H7G14038   1.979   2.104   7.266 -1.5301  0.5272 -1.6288
  130OSM    C8F14039   1.843   2.074   7.428 -0.6511  0.5452  0.8092
  130OSM    H8F14040   1.925   2.059   7.502 -2.2198 -0.1235  2.4638
  130OSM    H8G14041   1.806   1.971   7.410  0.3697  0.1475  0.9232
  130OSM    C9F14042   1.735   2.142   7.504  0.2379 -0.8308  0.0831
  130OSM    H9F14043   1.655   2.183   7.441  2.6786 -0.2965 -2.9263
  130OSM   C10F14044   1.719   2.163   7.634  0.2902  0.7493 -0.0421
  130OSM   H10F14045   1.624   2.207   7.669  0.1163  1.8832 -1.8314
  130OSM   C11F14046   1.807   2.118   7.742 -0.1975  0.1917 -0.7009
  130OSM   H11F14047   1.837   2.215   7.786  1.2390 -1.6164  2.6659
  130OSM   H11G14048   1.896   2.060   7.709 -0.4976 -0.9779  0.4647
  130OSM   C12F14049   1.737   2.031   7.847 -0.5958  0.2041 -0.0956
  130OSM   H12F14050   1.722   1.931   7.801 -0.5178  1.2800 -2.6659
  130OSM   H12G14051   1.629   2.048   7.865 -0.5034  1.0969 -0.3452
  130OSM   C13F14052   1.807   2.015   7.988  0.9159  0.1543  0.1226
  130OSM   H13F14053   1.828   2.120   8.019  0.0168 -0.1433  1.8843
  130OSM   H13G14054   1.902   1.963   7.964  1.2126  0.0199  1.5501
  130OSM   C14F14055   1.712   1.952   8.089  0.4499 -0.8739  0.6869
  130OSM   H14F14056   1.616   2.007   8.077  1.1186 -0.1223 -1.7674
  130OSM   H14G14057   1.751   1.956   8.193 -0.7469  1.6352  1.1271
  130OSM   C15F14058   1.689   1.799   8.065 -0.3044 -0.3005 -0.0030
  130OSM   H15F14059   1.790   1.762   8.041  0.4328  2.0767 -0.8630
  130OSM   H15G14060   1.620   1.803   7.978  0.6830  0.5641 -0.7681
  130OSM   C16F14061   1.630   1.735   8.185 -0.6536 -0.0679  0.0146
  130OSM   H16F14062   1.534   1.786   8.207 -1.2631 -0.9231 -0.6020
  130OSM   H16G14063   1.689   1.740   8.279 -1.3235  0.0419  0.4396
  130OSM   C17F14064   1.612   1.578   8.166  1.3611  0.1720 -0.3430
  130OSM   H17F14065   1.572   1.549   8.266  1.2559 -1.4188 -0.8258
  130OSM   H17G14066   1.712   1.533   8.147 -0.0848 -2.4927 -2.2360
  130OSM   C18F14067   1.530   1.535   8.050  0.3784 -0.0184 -0.1151
  130OSM   H18F14068   1.560   1.580   7.953 -0.5506 -4.5721 -2.7971
  130OSM   H18G14069   1.429   1.574   8.075  0.8770  0.4647  1.2529
  130OSM   H18H14070   1.541   1.425   8.038  1.6595  0.2285 -1.4269
  131OSM      N14071   6.372   5.040   6.056  0.2607 -0.8029  0.8549
  131OSM    C1514072   6.473   5.030   6.168 -0.6485  0.4146  0.1944
  131OSM   H15A14073   6.428   5.068   6.259 -1.5310 -1.1614  0.4421
  131OSM   H15B14074   6.569   5.070   6.139  0.3536 -2.1097 -0.2061
  131OSM   H15C14075   6.478   4.923   6.181  0.7635  0.4409  0.0119
  131OSM    C1414076   6.407   5.166   5.969 -0.3415  0.2228 -0.2836
  131OSM   H14A14077   6.383   5.250   6.032  0.1415 -0.6619  1.1327
  131OSM   H14B14078   6.351   5.166   5.876  2.9639  2.3196 -2.4996
  131OSM   H14C14079   6.513   5.178   5.956 -0.5864  4.5485  0.4638
  131OSM    C1314080   6.377   4.926   5.963 -0.0021  0.0253 -0.1075
  131OSM   H13A14081   6.361   4.833   6.016 -0.6720 -0.2504 -0.7789
  131OSM   H13B14082   6.474   4.912   5.916 -0.5658 -1.3556 -0.9379
  131OSM   H13C14083   6.308   4.939   5.881 -0.8880 -0.8739  0.4761
  131OSM    C1214084   6.232   5.058   6.116  0.7914  0.4915  0.3518
  131OSM   H12A14085   6.216   4.965   6.171 -0.5842  0.7041  0.3469
  131OSM   H12B14086   6.158   5.066   6.038  0.7701 -1.8724  0.0323
  131OSM    C1114087   6.209   5.174   6.217  0.1608 -0.3524  0.1943
  131OSM   H11A14088   6.288   5.170   6.295  0.0581 -0.9418  0.2737
  131OSM   H11B14089   6.114   5.158   6.272 -1.5247  3.7787 -1.1189
  131OSM      P14090   6.094   5.338   6.050 -0.1470 -0.1957 -0.1399
  131OSM    O1314091   6.153   5.420   5.944  0.5117 -0.5726  0.0010
  131OSM    O1414092   6.016   5.220   6.012  0.6432 -0.2849 -0.0563
  131OSM    O1114093   6.008   5.430   6.135 -0.1391 -0.0293 -0.1909
  131OSM    O1214094   6.208   5.299   6.147  0.9610  0.0043 -0.7846
  131OSM    C1S14095   6.081   5.534   6.207 -0.1574  0.5035 -0.4325
  131OSM    H1S14096   6.067   5.625   6.146  0.3613  0.0473 -1.2508
  131OSM    H1T14097   6.191   5.519   6.210 -0.1136  0.8427 -0.3460
  131OSM     NF14098   6.093   5.687   6.403  0.5742 -0.0852  0.3264
  131OSM    HNF14099   6.158   5.681   6.478 -0.4879  1.3645  1.4020
  131OSM    C2S14100   6.021   5.564   6.354 -0.8882  0.5994 -0.2031
  131OSM    H2S14101   5.912   5.587   6.346 -1.0334  0.4877  1.1398
  131OSM    C3S14102   6.030   5.442   6.454  0.3990  0.4281  0.2811
  131OSM    H3S14103   6.138   5.417   6.466  0.3718 -0.9376 -1.8658
  131OSM     O314104   5.955   5.327   6.408  0.0183  0.0014 -0.0137
  131OSM    HO314105   5.928   5.349   6.319 -0.2951 -1.4098 -0.2896
  131OSM    C4S14106   5.982   5.490   6.591  0.1459 -0.6418 -0.6627
  131OSM    H4S14107   6.064   5.538   6.647 -1.2317 -0.3034  1.1601
  131OSM    C5S14108   5.857   5.473   6.640  0.0113  0.0791  0.1815
  131OSM    H5S14109   5.778   5.419   6.586 -1.9508  1.4736  1.4796
  131OSM    C6S14110   5.816   5.521   6.780 -0.5848 -0.4397 -0.8591
  131OSM    H6S14111   5.733   5.459   6.822 -0.1646 -0.1358  0.4592
  131OSM    H6T14112   5.774   5.623   6.768 -1.2159 -0.3754  1.3411
  131OSM    C7S14113   5.923   5.523   6.894  0.4002  0.0570  0.0967
  131OSM    H7S14114   6.009   5.585   6.863 -0.8062  1.4226 -0.6221
  131OSM    H7T14115   5.950   5.415   6.900 -0.3345 -0.1157  0.3738
  131OSM    C8S14116   5.878   5.575   7.031 -0.6660  0.8041 -0.4338
  131OSM    H8S14117   5.787   5.517   7.057 -0.0671  1.0796  2.7494
  131OSM    H8T14118   5.870   5.686   7.036  2.1815  1.1346 -1.4083
  131OSM    C9S14119   5.988   5.543   7.131 -0.6025  0.2776 -0.5612
  131OSM    H9S14120   6.073   5.614   7.140 -0.3946 -0.1266  1.1479
  131OSM    H9T14121   6.029   5.444   7.100 -2.2382 -2.4397  4.7590
  131OSM   C10S14122   5.937   5.499   7.267  0.4426  0.5606  0.0283
  131OSM   H10S14123   5.859   5.422   7.250 -0.2903  1.7496 -2.4966
  131OSM   H10T14124   5.892   5.590   7.312 -0.0379  1.0080 -1.3033
  131OSM   C11S14125   6.041   5.442   7.361 -0.3794 -0.2279  0.2855
  131OSM   H11S14126   6.123   5.517   7.359 -0.3663 -0.2416 -0.8564
  131OSM   H11T14127   6.072   5.349   7.308 -3.2899 -0.7058 -0.7782
  131OSM   C12S14128   5.993   5.412   7.495  0.3096 -0.1298  0.1425
  131OSM   H12S14129   5.970   5.508   7.546  0.7849  0.0599  0.0005
  131OSM   H12T14130   6.073   5.367   7.559  1.5235 -0.0647 -1.2869
  131OSM   C13S14131   5.868   5.316   7.497  0.0590  0.7540 -0.2443
  131OSM   H13S14132   5.779   5.350   7.440 -0.9302  2.3791  2.0981
  131OSM   H13T14133   5.831   5.297   7.600 -0.7835 -3.6111 -1.1758
  131OSM   C14S14134   5.896   5.163   7.454  0.7219 -0.2611 -0.0888
  131OSM   H14S14135   5.979   5.128   7.519  0.9106 -1.7458 -1.0760
  131OSM   H14T14136   5.938   5.167   7.351  0.8945  1.8174  0.0242
  131OSM   C15S14137   5.777   5.052   7.458  0.4069  0.2382 -0.2109
  131OSM   H15S14138   5.697   5.085   7.388  1.0823  0.8163 -0.7375
  131OSM   H15T14139   5.734   5.050   7.560 -0.0726  0.6165 -0.3977
  131OSM   C16S14140   5.825   4.913   7.430  0.2303 -0.0123  0.0852
  131OSM   H16S14141   5.914   4.909   7.496 -0.3400 -3.4216  0.8186
  131OSM   H16T14142   5.862   4.904   7.326 -2.8813  1.4197 -1.2972
  131OSM   C17S14143   5.727   4.798   7.475  0.2082  0.5777 -0.1848
  131OSM   H17S14144   5.690   4.819   7.577 -2.2053 -3.8498  0.0909
  131OSM   H17T14145   5.794   4.710   7.480  0.1591  0.6075  2.0909
  131OSM   C18S14146   5.614   4.766   7.368  0.0528  1.0466  0.3822
  131OSM   H18S14147   5.551   4.687   7.415  1.3873  0.1575  0.7296
  131OSM   H18T14148   5.647   4.714   7.276  0.3961  1.5681  0.2107
  131OSM   H18U14149   5.548   4.852   7.347 -1.6067  0.3147  2.2191
  131OSM    C1F14150   6.082   5.807   6.349  0.5452 -0.5197 -0.1532
  131OSM     OF14151   6.029   5.824   6.242  0.4862 -0.6556  0.5402
  131OSM    C2F14152   6.139   5.923   6.431 -0.0244  0.3748  0.4464
  131OSM    H2F14153   6.209   5.980   6.367 -0.5893  0.8276  0.2193
  131OSM    H2G14154   6.195   5.886   6.520  0.1338  0.2198  0.2819
  131OSM    C3F14155   6.031   6.025   6.486  0.0009 -0.0527  0.3363
  131OSM    H3F14156   5.976   6.061   6.396 -0.1534 -2.0267 -0.4192
  131OSM    H3G14157   6.095   6.107   6.526  0.2304  0.8099 -1.6536
  131OSM    C4F14158   5.927   5.966   6.583  0.7643 -0.3442  0.2990
  131OSM    H4F14159   5.850   5.911   6.525  0.0633  1.8953 -1.0072
  131OSM    H4G14160   5.866   6.043   6.634 -2.0982 -2.3525  0.1729
  131OSM    C5F14161   5.983   5.877   6.699 -0.6557  0.4340  0.0629
  131OSM    H5F14162   6.044   5.794   6.658 -0.9624 -0.3943  1.2274
  131OSM    H5G14163   5.898   5.821   6.743 -1.2849 -0.1458 -1.8114
  131OSM    C6F14164   6.068   5.961   6.802  0.2557  0.1120 -0.8655
  131OSM    H6F14165   6.007   6.050   6.829 -0.2742  0.1862 -2.2501
  131OSM    H6G14166   6.157   5.997   6.746  1.0817  0.3606  0.5616
  131OSM    C7F14167   6.115   5.874   6.925  0.0316  0.1341  0.0290
  131OSM    H7F14168   6.139   5.777   6.875 -0.3683  0.8631 -1.6564
  131OSM    H7G14169   6.026   5.864   6.990  0.4397  0.6246  0.6731
  131OSM    C8F14170   6.230   5.933   7.004 -0.0125  0.5630  0.7067
  131OSM    H8F14171   6.312   5.933   6.929 -0.7703  0.6320 -0.1477
  131OSM    H8G14172   6.251   5.855   7.081 -1.9367 -0.2125  0.5060
  131OSM    C9F14173   6.191   6.069   7.057 -0.3605 -0.5025 -0.1964
  131OSM    H9F14174   6.157   6.138   6.979  2.9171  0.3196 -1.0571
  131OSM   C10F14175   6.185   6.107   7.186 -0.4221 -0.4054  0.1909
  131OSM   H10F14176   6.164   6.212   7.212  2.0447  0.7303 -1.9347
  131OSM   C11F14177   6.215   6.017   7.306 -0.1320 -0.0572  0.2179
  131OSM   H11F14178   6.255   6.087   7.382 -1.8188 -0.4576  1.5672
  131OSM   H11G14179   6.296   5.946   7.280 -0.1375 -0.0930  0.2966
  131OSM   C12F14180   6.091   5.935   7.358  0.9070 -0.1807 -0.9026
  131OSM   H12F14181   6.092   5.832   7.317  1.0113 -0.3210 -0.5529
  131OSM   H12G14182   5.996   5.982   7.325  0.0367 -0.4440  1.0674
  131OSM   C13F14183   6.079   5.940   7.514 -0.1514  0.3474 -0.1584
  131OSM   H13F14184   6.060   6.041   7.558 -2.1853 -0.7245  1.5707
  131OSM   H13G14185   6.173   5.899   7.556 -0.9985 -2.2671 -0.6857
  131OSM   C14F14186   5.974   5.849   7.567 -0.0283  0.1013 -0.6575
  131OSM   H14F14187   5.962   5.752   7.513 -1.5558 -0.6202  0.8809
  131OSM   H14G14188   5.876   5.897   7.546  0.9183  1.8195 -1.3091
  131OSM   C15F14189   5.987   5.825   7.712  0.0559  0.2986 -0.4006
  131OSM   H15F14190   5.988   5.911   7.782  0.7981 -0.7048  0.8715
  131OSM   H15G14191   6.085   5.773   7.717  0.2558  0.5868 -1.2621
  131OSM   C16F14192   5.894   5.718   7.765  0.2678  0.2736  0.0379
  131OSM   H16F14193   5.869   5.635   7.696  3.8137  0.7223 -2.0795
  131OSM   H16G14194   5.797   5.767   7.788 -1.0666 -0.9890 -2.4862
  131OSM   C17F14195   5.942   5.665   7.899  0.7081 -0.1637 -0.5979
  131OSM   H17F14196   5.949   5.753   7.967 -0.9713  0.4746 -1.1885
  131OSM   H17G14197   6.041   5.617   7.885  0.3862 -1.2733  0.8072
  131OSM   C18F14198   5.838   5.569   7.959  0.1825 -0.1752 -0.0000
  131OSM   H18F14199   5.744   5.618   7.989  0.1804  0.2457 -0.6823
  131OSM   H18G14200   5.890   5.507   8.036  3.7085 -0.1960 -2.1617
  131OSM   H18H14201   5.817   5.499   7.875  1.0966  0.3831 -0.7097
  132OSM      N14202   0.725   4.091   6.365 -0.1784 -0.5221  0.1526
  132OSM    C1514203   0.689   3.953   6.318 -0.0875 -0.4447  0.3609
  132OSM   H15A14204   0.592   3.939   6.364 -0.4254  0.2080 -0.1282
  132OSM   H15B14205   0.762   3.892   6.369  0.6394  2.2251  2.8429
  132OSM   H15C14206   0.678   3.947   6.211 -0.9792 -0.3246  0.4370
  132OSM    C1414207   0.642   4.196   6.295  0.4447 -0.3459  0.6228
  132OSM   H14A14208   0.535   4.198   6.310  0.4305  1.3136  0.5682
  132OSM   H14B14209   0.673   4.202   6.192  0.5843  0.6462  0.7102
  132OSM   H14C14210   0.665   4.295   6.332 -1.6852  0.6695 -0.5870
  132OSM    C1314211   0.706   4.083   6.516 -0.1285  0.9106 -0.4662
  132OSM   H13A14212   0.727   4.174   6.571  0.9631  0.9020 -0.8394
  132OSM   H13B14213   0.756   3.996   6.554 -1.5190  0.3345  0.1173
  132OSM   H13C14214   0.600   4.065   6.525  0.0630 -0.7524 -1.2169
  132OSM    C1214215   0.876   4.111   6.339 -0.0637  0.3426 -0.7928
  132OSM   H12A14216   0.885   4.122   6.232  0.2296  1.2363 -0.6812
  132OSM   H12B14217   0.934   4.024   6.364  2.3127  1.8687 -0.7649
  132OSM    C1114218   0.953   4.227   6.391  0.3410 -0.0287  0.4209
  132OSM   H11A14219   1.059   4.212   6.362  0.0190  0.3913 -1.0786
  132OSM   H11B14220   0.948   4.229   6.502  1.1964 -1.3712  0.5012
  132OSM      P14221   0.966   4.476   6.363 -0.4502 -0.2005 -0.1218
  132OSM    O1314222   1.102   4.451   6.404  0.1825  0.6418  0.0869
  132OSM    O1414223   0.938   4.574   6.256 -0.2388 -0.1232 -0.6970
  132OSM    O1114224   0.890   4.528   6.501  0.5101  0.4574  0.4752
  132OSM    O1214225   0.899   4.343   6.333  0.6186  0.2643 -0.1237
  132OSM    C1S14226   0.758   4.477   6.534 -0.0623  0.0760  0.3683
  132OSM    H1S14227   0.760   4.366   6.539 -1.9120  0.0837  2.6876
  132OSM    H1T14228   0.683   4.511   6.460 -2.4390 -1.0672  2.1196
  132OSM     NF14229   0.580   4.474   6.691  0.1329 -0.5600 -0.0113
  132OSM    HNF14230   0.506   4.510   6.635  0.0132 -2.6377 -1.3035
  132OSM    C2S14231   0.714   4.535   6.674  0.9623  0.5591 -0.1600
  132OSM    H2S14232   0.776   4.502   6.760 -0.6233  1.9631  1.6123
  132OSM    C3S14233   0.716   4.690   6.684 -0.0387 -0.2167  0.4786
  132OSM    H3S14234   0.671   4.735   6.593  1.8149  1.0613  0.1386
  132OSM     O314235   0.851   4.735   6.684 -0.6494 -0.2677 -0.0926
  132OSM    HO314236   0.908   4.659   6.671  0.1959  0.4371 -0.5991
  132OSM    C4S14237   0.647   4.738   6.811  0.3730 -0.1030 -0.0197
  132OSM    H4S14238   0.710   4.743   6.901  1.1367 -3.1593 -0.3043
  132OSM    C5S14239   0.520   4.780   6.834  0.2176  0.0476  0.0701
  132OSM    H5S14240   0.458   4.791   6.744  0.1596  1.9886  0.3056
  132OSM    C6S14241   0.473   4.828   6.963  0.5187 -0.2677 -0.4325
  132OSM    H6S14242   0.372   4.873   6.953  0.4959 -0.5002 -1.3920
  132OSM    H6T14243   0.541   4.904   7.007 -0.3866  0.2953  0.0211
  132OSM    C7S14244   0.471   4.715   7.068 -0.0656 -0.4974 -0.4093
  132OSM    H7S14245   0.576   4.690   7.092 -0.0837 -0.1379  0.0695
  132OSM    H7T14246   0.430   4.619   7.030 -1.0421 -0.1722 -0.2174
  132OSM    C8S14247   0.417   4.751   7.208 -0.0756  0.1881 -0.0469
  132OSM    H8S14248   0.309   4.776   7.212 -0.1342  0.1801 -1.2693
  132OSM    H8T14249   0.472   4.843   7.234  2.0600 -1.2136  0.6988
  132OSM    C9S14250   0.444   4.648   7.319  0.3192 -0.1997  0.0805
  132OSM    H9S14251   0.546   4.604   7.321 -0.5982 -2.6702 -1.7370
  132OSM    H9T14252   0.374   4.562   7.310 -0.1363  0.3030 -1.4364
  132OSM   C10S14253   0.425   4.714   7.463  0.0222  0.1592  1.3577
  132OSM   H10S14254   0.328   4.767   7.457  0.1872  0.3199 -2.1178
  132OSM   H10T14255   0.494   4.801   7.461  0.6366 -0.3133 -0.5938
  132OSM   C11S14256   0.445   4.636   7.588 -0.1615 -0.3130  0.0831
  132OSM   H11S14257   0.540   4.578   7.589 -0.2226 -0.7290 -3.8577
  132OSM   H11T14258   0.369   4.555   7.590  0.7994 -1.2444 -0.0213
  132OSM   C12S14259   0.435   4.712   7.711  0.2573 -0.2373 -0.5887
  132OSM   H12S14260   0.351   4.784   7.713  0.9101  0.5443 -0.9537
  132OSM   H12T14261   0.529   4.770   7.725 -1.1054  2.2697 -1.3729
  132OSM   C13S14262   0.412   4.635   7.847 -0.0682 -0.2046  0.3363
  132OSM   H13S14263   0.516   4.613   7.879 -0.1241 -0.0006  0.6612
  132OSM   H13T14264   0.353   4.543   7.829 -2.6520  1.6563 -1.4582
  132OSM   C14S14265   0.346   4.720   7.962 -0.8265 -0.2415  0.1605
  132OSM   H14S14266   0.317   4.647   8.040 -0.1341 -0.3045  0.3674
  132OSM   H14T14267   0.264   4.773   7.909 -0.3078  2.5663  1.9652
  132OSM   C15S14268   0.428   4.831   8.022  0.6619  0.1788 -0.0955
  132OSM   H15S14269   0.478   4.881   7.937 -1.8790  1.8716 -0.7205
  132OSM   H15T14270   0.503   4.773   8.081 -0.4896  1.1529  2.4556
  132OSM   C16S14271   0.337   4.919   8.108  0.7000  0.1327 -0.5536
  132OSM   H16S14272   0.235   4.877   8.124  0.9466 -0.4500 -0.4757
  132OSM   H16T14273   0.325   5.013   8.050  0.3368  0.7269  0.4726
  132OSM   C17S14274   0.402   4.959   8.241 -0.3880 -0.7143 -0.4970
  132OSM   H17S14275   0.509   4.982   8.221 -0.9679  0.6241 -2.3367
  132OSM   H17T14276   0.388   4.882   8.320 -0.1932 -0.0268  0.2211
  132OSM   C18S14277   0.341   5.085   8.301  0.5208 -0.1708 -0.4030
  132OSM   H18S14278   0.356   5.089   8.411 -3.6608 -2.0205  0.4274
  132OSM   H18T14279   0.232   5.065   8.290  0.2735  1.3081 -0.9011
  132OSM   H18U14280   0.367   5.181   8.252  1.7311 -1.5664 -2.6415
  132OSM    C1F14281   0.567   4.346   6.731 -0.5531 -0.0129 -0.3004
  132OSM     OF14282   0.667   4.282   6.766  0.1467  0.4195  0.7503
  132OSM    C2F14283   0.423   4.296   6.747  0.1966  0.0487  0.1624
  132OSM    H2F14284   0.392   4.267   6.644 -1.4213 -1.1057  0.9350
  132OSM    H2G14285   0.360   4.383   6.777 -0.4703 -0.7838  1.2498
  132OSM    C3F14286   0.401   4.170   6.832  0.4119 -0.0571 -0.9621
  132OSM    H3F14287   0.484   4.096   6.829  1.5711  1.0201  1.6876
  132OSM    H3G14288   0.311   4.120   6.790 -0.5081  1.1690 -0.4980
  132OSM    C4F14289   0.368   4.202   6.978  0.3983  0.6064  0.2165
  132OSM    H4F14290   0.340   4.113   7.040 -1.6332  0.2694 -1.1101
  132OSM    H4G14291   0.277   4.265   6.978  0.5837  0.8754  0.1797
  132OSM    C5F14292   0.481   4.277   7.048  0.0504  0.4753 -0.3686
  132OSM    H5F14293   0.504   4.371   6.993 -2.4390  0.7841 -1.0048
  132OSM    H5G14294   0.556   4.195   7.044  0.0806  0.4815  0.0879
  132OSM    C6F14295   0.461   4.320   7.195  0.2037  0.3294 -0.3761
  132OSM    H6F14296   0.383   4.399   7.201  0.4206  0.4274  1.9481
  132OSM    H6G14297   0.564   4.353   7.221  0.3719 -0.3553 -0.1590
  132OSM    C7F14298   0.419   4.217   7.298 -0.6950  0.2065 -0.3351
  132OSM    H7F14299   0.488   4.130   7.295 -1.6531 -0.5685 -0.5515
  132OSM    H7G14300   0.322   4.179   7.260 -0.0922 -0.3005 -1.4433
  132OSM    C8F14301   0.418   4.281   7.441 -0.2164  0.4398 -0.3184
  132OSM    H8F14302   0.360   4.375   7.438 -0.7029  0.1352 -0.5901
  132OSM    H8G14303   0.520   4.309   7.475 -0.7613 -0.1075  1.9734
  132OSM    C9F14304   0.354   4.185   7.551 -0.3558  0.4872  0.0725
  132OSM    H9F14305   0.275   4.121   7.510  0.5577 -0.3869 -0.3475
  132OSM   C10F14306   0.391   4.160   7.677 -0.1607 -0.3579  0.2892
  132OSM   H10F14307   0.338   4.090   7.742 -2.4974  1.6593  0.6723
  132OSM   C11F14308   0.513   4.216   7.743 -0.0713  0.4492 -0.3254
  132OSM   H11F14309   0.567   4.292   7.683 -0.9713  0.1508 -1.5540
  132OSM   H11G14310   0.579   4.130   7.767 -1.1025  0.5368  3.3919
  132OSM   C12F14311   0.501   4.275   7.889 -0.3167  0.3181  0.0908
  132OSM   H12F14312   0.462   4.198   7.959  0.9348 -0.5279 -0.1207
  132OSM   H12G14313   0.417   4.348   7.875 -0.3331 -0.1786 -3.4559
  132OSM   C13F14314   0.636   4.327   7.950  0.2196  0.3328  0.0087
  132OSM   H13F14315   0.677   4.391   7.869  0.0120  0.9584  0.3872
  132OSM   H13G14316   0.697   4.236   7.965 -0.0494  0.2527  0.6165
  132OSM   C14F14317   0.629   4.411   8.080 -0.2802 -1.1095  0.3675
  132OSM   H14F14318   0.580   4.347   8.156  1.2024 -1.6498  0.9052
  132OSM   H14G14319   0.573   4.504   8.057  1.2750 -0.3032 -0.3457
  132OSM   C15F14320   0.765   4.459   8.122  0.4427 -0.0055  0.3550
  132OSM   H15F14321   0.832   4.466   8.033 -1.4258  1.6984 -0.9872
  132OSM   H15G14322   0.803   4.369   8.175  0.1676 -1.6201 -2.0260
  132OSM   C16F14323   0.764   4.590   8.207  0.1772 -0.0572 -0.7374
  132OSM   H16F14324   0.709   4.568   8.301 -1.6031  0.0950 -1.6918
  132OSM   H16G14325   0.698   4.653   8.142  2.3885  0.2954 -2.7888
  132OSM   C17F14326   0.895   4.663   8.213  0.1501  0.1715  0.0908
  132OSM   H17F14327   0.868   4.761   8.257  2.6723  0.9604 -0.0201
  132OSM   H17G14328   0.930   4.658   8.108 -0.0257 -0.7013  0.0622
  132OSM   C18F14329   1.003   4.588   8.293 -0.4870  0.3730  0.5268
  132OSM   H18F14330   1.099   4.643   8.301 -0.2531  0.3875 -1.6896
  132OSM   H18G14331   1.027   4.487   8.252 -1.2919 -0.5674  2.2414
  132OSM   H18H14332   0.979   4.564   8.399  1.3729  0.3338  0.9703
  133OSM      N14333   1.204   5.361   6.158 -0.1565 -0.2524 -0.5242
  133OSM    C1514334   1.059   5.346   6.188  0.1876 -0.6091 -0.0567
  133OSM   H15A14335   1.026   5.246   6.213  0.0291 -0.7761 -0.9221
  133OSM   H15B14336   0.995   5.389   6.112 -0.3938  0.7334  1.1350
  133OSM   H15C14337   1.038   5.411   6.272  1.4811 -0.9979  0.5843
  133OSM    C1414338   1.244   5.264   6.047 -0.3958 -0.1623 -0.4672
  133OSM   H14A14339   1.197   5.293   5.954  0.3427  1.5645 -0.3422
  133OSM   H14B14340   1.209   5.164   6.071 -4.7518  1.5264  1.3494
  133OSM   H14C14341   1.351   5.258   6.033 -0.2136  0.8648  0.3170
  133OSM    C1314342   1.230   5.504   6.123 -0.3985  0.0563  0.4491
  133OSM   H13A14343   1.189   5.544   6.031  1.1741 -0.1158 -0.3585
  133OSM   H13B14344   1.336   5.519   6.109 -0.3927  0.1710  0.6136
  133OSM   H13C14345   1.188   5.568   6.199 -0.4441  0.4682  0.0856
  133OSM    C1214346   1.281   5.317   6.281 -0.9257  0.1543 -0.4508
  133OSM   H12A14347   1.294   5.397   6.353 -1.1036  0.6426 -0.9496
  133OSM   H12B14348   1.382   5.288   6.256 -0.4658  0.4823  0.9414
  133OSM    C1114349   1.225   5.201   6.368  0.1571 -0.3066  0.0149
  133OSM   H11A14350   1.130   5.238   6.412 -0.6910 -0.8923 -1.2344
  133OSM   H11B14351   1.264   5.175   6.468 -1.0045 -0.9251  0.3223
  133OSM      P14352   1.304   4.971   6.284 -0.1362  0.4461  0.0621
  133OSM    O1314353   1.251   4.877   6.183  1.0539 -0.4235  0.2422
  133OSM    O1414354   1.432   5.031   6.247  0.7330  0.0256  0.6834
  133OSM    O1114355   1.307   4.904   6.425  0.3192  0.3150 -0.3429
  133OSM    O1214356   1.188   5.085   6.303  0.2046  0.0189 -0.1001
  133OSM    C1S14357   1.382   4.777   6.429  0.4779 -0.0551  0.2976
  133OSM    H1S14358   1.488   4.788   6.397  1.1981 -4.3607  0.5735
  133OSM    H1T14359   1.329   4.693   6.380  0.2602  0.9892 -1.3444
  133OSM     NF14360   1.446   4.594   6.579 -0.3106  0.1985  0.3046
  133OSM    HNF14361   1.388   4.513   6.579 -0.0837  0.0188  1.5117
  133OSM    C2S14362   1.384   4.730   6.576  0.1126  1.1398  0.1131
  133OSM    H2S14363   1.443   4.793   6.646 -0.5055  1.9024 -0.0337
  133OSM    C3S14364   1.243   4.729   6.633 -0.0940  0.3594  0.2269
  133OSM    H3S14365   1.173   4.675   6.566 -0.9357 -1.1799  2.2118
  133OSM     O314366   1.182   4.854   6.645  0.1863  0.3525 -0.4111
  133OSM    HO314367   1.245   4.894   6.586  1.9191  0.6891  1.5500
  133OSM    C4S14368   1.234   4.682   6.779  0.1176 -0.5658  0.4457
  133OSM    H4S14369   1.271   4.754   6.853 -2.1154  0.5214  0.5907
  133OSM    C5S14370   1.160   4.575   6.826  0.5416 -0.4693 -0.2456
  133OSM    H5S14371   1.111   4.502   6.759 -0.7966  1.0029 -0.9549
  133OSM    C6S14372   1.146   4.547   6.974  0.2676  0.0862 -0.1021
  133OSM    H6S14373   1.240   4.591   7.015 -0.2726  2.3701 -1.1380
  133OSM    H6T14374   1.151   4.438   6.992 -0.2327  0.0246 -0.3249
  133OSM    C7S14375   1.027   4.626   7.039  0.0571  0.1602  0.3205
  133OSM    H7S14376   0.942   4.585   6.981  0.9093 -1.2808  0.0492
  133OSM    H7T14377   1.044   4.735   7.023  1.1301  0.2757  1.9517
  133OSM    C8S14378   1.008   4.602   7.191 -0.4118  0.2915  0.7358
  133OSM    H8S14379   1.094   4.634   7.254 -1.6050  1.6520  1.7449
  133OSM    H8T14380   1.003   4.491   7.193  1.3023  0.1737 -0.0538
  133OSM    C9S14381   0.871   4.645   7.249 -0.3820 -0.6100  0.3437
  133OSM    H9S14382   0.789   4.647   7.173 -0.7743 -2.1160  0.6973
  133OSM    H9T14383   0.876   4.750   7.285 -0.6704 -0.8505  1.1017
  133OSM   C10S14384   0.828   4.555   7.367  0.0050 -0.2473  0.6907
  133OSM   H10S14385   0.792   4.453   7.343 -0.5180  0.2215 -0.5617
  133OSM   H10T14386   0.741   4.608   7.410 -0.1773  1.0978 -1.2260
  133OSM   C11S14387   0.916   4.550   7.492 -0.9316 -0.5536  0.2353
  133OSM   H11S14388   0.954   4.654   7.506 -0.2302 -0.8994  0.9732
  133OSM   H11T14389   0.998   4.477   7.477  0.2592  0.8867 -0.5436
  133OSM   C12S14390   0.836   4.503   7.616  0.6995 -0.5460 -0.2414
  133OSM   H12S14391   0.816   4.395   7.608 -0.5110 -0.8729  4.2559
  133OSM   H12T14392   0.734   4.543   7.634  0.6382 -1.1841  1.0014
  133OSM   C13S14393   0.926   4.518   7.736  0.6035 -0.1194  0.7146
  133OSM   H13S14394   0.879   4.513   7.837  1.6696 -1.4155  1.1782
  133OSM   H13T14395   0.970   4.620   7.743 -1.1283  0.6605  0.6466
  133OSM   C14S14396   1.037   4.400   7.733  0.7852 -0.0077 -0.0363
  133OSM   H14S14397   1.105   4.412   7.646  3.7473 -1.8364  1.8552
  133OSM   H14T14398   0.982   4.303   7.737 -1.9206  1.4487  1.3994
  133OSM   C15S14399   1.122   4.397   7.866 -0.1674  0.1897 -0.5553
  133OSM   H15S14400   1.041   4.387   7.941  1.0061 -1.0560  0.6025
  133OSM   H15T14401   1.182   4.490   7.877  1.3313 -0.9748  2.2252
  133OSM   C16S14402   1.217   4.269   7.876  0.3882  0.1277 -0.5036
  133OSM   H16S14403   1.286   4.273   7.789  0.1426  1.4668 -0.6601
  133OSM   H16T14404   1.157   4.175   7.878 -1.1774  1.0872 -0.1851
  133OSM   C17S14405   1.298   4.265   8.005 -0.2884 -0.3123 -0.0865
  133OSM   H17S14406   1.218   4.254   8.080  0.2050 -0.3805  0.4338
  133OSM   H17T14407   1.343   4.367   8.007 -1.8859  0.4545 -0.9198
  133OSM   C18S14408   1.404   4.161   8.020 -0.9630 -1.0798 -0.9063
  133OSM   H18S14409   1.364   4.058   8.018  0.0068 -1.4713 -0.6328
  133OSM   H18T14410   1.441   4.178   8.124 -0.6504 -0.8386 -1.0554
  133OSM   H18U14411   1.490   4.181   7.953 -0.0274 -1.3393  0.1811
  133OSM    C1F14412   1.579   4.585   6.562 -0.6006  0.1090  0.0371
  133OSM     OF14413   1.647   4.682   6.584  0.1918 -0.2493  0.6298
  133OSM    C2F14414   1.634   4.459   6.507 -0.7886  0.5297 -0.1788
  133OSM    H2F14415   1.676   4.481   6.406  2.8140 -0.3140  0.9687
  133OSM    H2G14416   1.555   4.381   6.495 -0.8224  0.5522 -0.1037
  133OSM    C3F14417   1.750   4.403   6.596  0.4069  0.8187 -0.8112
  133OSM    H3F14418   1.836   4.471   6.611  1.3048  0.0684 -2.3901
  133OSM    H3G14419   1.797   4.308   6.562  1.3223  1.5585 -1.6298
  133OSM    C4F14420   1.692   4.359   6.735 -0.0965  0.1390  0.4180
  133OSM    H4F14421   1.631   4.438   6.785  1.5109  0.9960  1.1070
  133OSM    H4G14422   1.783   4.329   6.791  0.9921 -1.4998 -2.0533
  133OSM    C5F14423   1.595   4.237   6.738  0.2996 -0.1088 -0.1201
  133OSM    H5F14424   1.646   4.153   6.685  1.9199  1.8849 -1.9552
  133OSM    H5G14425   1.508   4.265   6.675  1.1673  0.2911 -1.1950
  133OSM    C6F14426   1.566   4.203   6.884  0.5367 -0.0024 -0.1230
  133OSM    H6F14427   1.664   4.206   6.938  1.5685 -0.9512 -1.8514
  133OSM    H6G14428   1.534   4.097   6.890  2.0057 -0.5387 -1.1379
  133OSM    C7F14429   1.456   4.291   6.956  0.4417  0.0047 -0.8069
  133OSM    H7F14430   1.357   4.286   6.906  0.7890  0.7500 -1.6023
  133OSM    H7G14431   1.486   4.398   6.956 -0.2754  0.4412  4.0384
  133OSM    C8F14432   1.435   4.244   7.111  0.1119  0.6700  0.8006
  133OSM    H8F14433   1.349   4.299   7.156 -0.6692  0.7535 -0.7477
  133OSM    H8G14434   1.520   4.279   7.174 -0.1860  0.1400  1.5169
  133OSM    C9F14435   1.406   4.101   7.129 -0.6387  1.7728  0.2682
  133OSM    H9F14436   1.346   4.069   7.043 -1.1915  1.6710  0.6824
  133OSM   C10F14437   1.456   4.014   7.225 -0.5493 -1.2107 -0.3754
  133OSM   H10F14438   1.445   3.906   7.205  1.7336 -1.5176 -0.2098
  133OSM   C11F14439   1.545   4.065   7.340  0.3590 -0.6415 -0.0647
  133OSM   H11F14440   1.598   4.150   7.291  1.0903 -1.2072 -0.2679
  133OSM   H11G14441   1.623   3.990   7.366  0.4194 -0.5235  0.1007
  133OSM   C12F14442   1.467   4.113   7.465  0.3205  0.3859 -0.4759
  133OSM   H12F14443   1.407   4.202   7.435  0.0208  0.5436  0.5461
  133OSM   H12G14444   1.534   4.151   7.546  0.5342 -0.3954 -0.2790
  133OSM   C13F14445   1.390   4.006   7.539 -0.4964 -0.2595 -0.0219
  133OSM   H13F14446   1.319   3.965   7.463  0.5001 -1.9564 -0.0910
  133OSM   H13G14447   1.321   4.061   7.607  1.7968  0.6596  1.6791
  133OSM   C14F14448   1.461   3.892   7.607  0.6074  0.1294  0.0379
  133OSM   H14F14449   1.560   3.927   7.642  0.6722 -0.3007  0.2980
  133OSM   H14G14450   1.468   3.802   7.542  0.6235  1.6675 -2.1883
  133OSM   C15F14451   1.378   3.852   7.732 -0.7133  0.2232  0.3690
  133OSM   H15F14452   1.282   3.819   7.686  0.1998 -1.2068 -0.5849
  133OSM   H15G14453   1.358   3.942   7.794  2.1134  0.9044  0.4118
  133OSM   C16F14454   1.433   3.743   7.813 -0.2744 -0.2639 -0.0433
  133OSM   H16F14455   1.536   3.774   7.840 -0.4627  1.4472 -1.1398
  133OSM   H16G14456   1.435   3.651   7.750  0.4004 -1.2732  1.3853
  133OSM   C17F14457   1.350   3.704   7.931  0.5468 -0.0108  0.0829
  133OSM   H17F14458   1.262   3.652   7.887 -0.9569  0.8508  1.9730
  133OSM   H17G14459   1.339   3.796   7.991 -0.2855 -1.3259  2.0574
  133OSM   C18F14460   1.423   3.600   8.013  0.2971  0.3016  0.0612
  133OSM   H18F14461   1.356   3.554   8.090 -0.9214  0.7323 -0.7106
  133OSM   H18G14462   1.516   3.647   8.052  1.5956  0.2840 -2.8281
  133OSM   H18H14463   1.460   3.526   7.940 -0.1286  0.0846  0.0627
  134OSM      N14464   3.065   1.320   6.526  0.2884 -0.4520 -0.5687
  134OSM    C1514465   3.086   1.464   6.515  0.5670 -0.0880 -0.0737
  134OSM   H15A14466   3.052   1.527   6.595 -1.1997  0.4372 -1.1820
  134OSM   H15B14467   3.028   1.492   6.428 -0.1412 -2.1978 -0.3456
  134OSM   H15C14468   3.185   1.492   6.483  1.3943 -1.6194  1.0005
  134OSM    C1414469   3.100   1.252   6.392 -0.1238 -0.7342  0.3294
  134OSM   H14A14470   3.025   1.192   6.342 -1.7301  0.2485  1.4805
  134OSM   H14B14471   3.178   1.179   6.407  0.6361 -0.0939 -0.4053
  134OSM   H14C14472   3.141   1.329   6.328  0.9397  2.9299  4.8918
  134OSM    C1314473   3.158   1.264   6.631  0.3362 -0.3666 -0.7768
  134OSM   H13A14474   3.150   1.317   6.725  1.6070 -0.0843 -0.8098
  134OSM   H13B14475   3.260   1.290   6.606  0.9907 -1.1996  0.8195
  134OSM   H13C14476   3.159   1.157   6.647 -0.2621 -0.4580 -1.3256
  134OSM    C1214477   2.924   1.284   6.577 -0.0199 -0.6423 -0.6878
  134OSM   H12A14478   2.900   1.323   6.674 -1.6104 -4.6934  0.7594
  134OSM   H12B14479   2.916   1.179   6.600 -0.4941 -0.5026 -0.2037
  134OSM    C1114480   2.804   1.313   6.487  0.6731  0.8196 -0.0965
  134OSM   H11A14481   2.707   1.279   6.529  1.6147 -1.6579  0.2464
  134OSM   H11B14482   2.814   1.255   6.392  0.1432  2.9503 -1.5184
  134OSM      P14483   2.680   1.511   6.388 -0.1409  0.0207 -0.1031
  134OSM    O1314484   2.734   1.636   6.325  0.2389 -0.9966 -0.2195
  134OSM    O1414485   2.611   1.413   6.305 -0.0483  0.3143 -0.5659
  134OSM    O1114486   2.594   1.536   6.520 -0.7970 -0.3750  0.2376
  134OSM    O1214487   2.808   1.452   6.451 -0.0727  0.7883  0.4336
  134OSM    C1S14488   2.645   1.588   6.642 -0.3695 -0.0225  0.0281
  134OSM    H1S14489   2.640   1.699   6.654  1.3607  0.0035  0.8955
  134OSM    H1T14490   2.752   1.561   6.655 -0.9298 -1.6582  1.7263
  134OSM     NF14491   2.656   1.588   6.887 -0.5265 -0.8102 -0.5494
  134OSM    HNF14492   2.729   1.538   6.933 -0.2404 -0.5052 -0.6729
  134OSM    C2S14493   2.591   1.520   6.776  0.4467 -0.6583 -0.4149
  134OSM    H2S14494   2.483   1.540   6.793  0.4359 -0.9035 -0.1949
  134OSM    C3S14495   2.611   1.369   6.771  0.3910  0.1389  0.2130
  134OSM    H3S14496   2.713   1.338   6.740  0.1175 -1.4905  0.7969
  134OSM     O314497   2.514   1.311   6.682  0.7220  0.1557  0.0345
  134OSM    HO314498   2.498   1.388   6.627  0.0420  0.0699  0.1043
  134OSM    C4S14499   2.572   1.310   6.903  0.0359 -0.5432  0.1956
  134OSM    H4S14500   2.466   1.320   6.931  0.1373 -0.1825  0.4674
  134OSM    C5S14501   2.659   1.255   6.991  0.0854 -0.7129 -0.6402
  134OSM    H5S14502   2.765   1.267   6.965  0.7126  0.9152  2.2779
  134OSM    C6S14503   2.631   1.196   7.126  0.0542  0.3625  0.5173
  134OSM    H6S14504   2.668   1.091   7.124 -1.1308 -0.0823  0.9677
  134OSM    H6T14505   2.522   1.187   7.147 -0.1836 -1.3179 -1.0815
  134OSM    C7S14506   2.681   1.286   7.239 -0.3804 -0.7514  0.5582
  134OSM    H7S14507   2.615   1.374   7.256 -0.0350 -0.1509 -1.0444
  134OSM    H7T14508   2.787   1.319   7.233 -0.5243  0.8220  3.9847
  134OSM    C8S14509   2.671   1.203   7.366  0.4997 -0.0390  0.0440
  134OSM    H8S14510   2.738   1.115   7.358  0.4558 -0.0421 -0.2774
  134OSM    H8T14511   2.569   1.161   7.380  0.9545 -1.6729 -1.1972
  134OSM    C9S14512   2.713   1.285   7.487 -0.3428 -0.1963 -0.4187
  134OSM    H9S14513   2.659   1.382   7.484 -0.5139 -0.3010 -2.7721
  134OSM    H9T14514   2.821   1.307   7.475 -0.3283 -0.6930 -1.3265
  134OSM   C10S14515   2.704   1.200   7.616  0.4871 -0.3800  0.3563
  134OSM   H10S14516   2.761   1.108   7.592 -0.6343 -0.4667 -2.3741
  134OSM   H10T14517   2.597   1.171   7.632 -0.0256  2.0087  1.6901
  134OSM   C11S14518   2.755   1.268   7.745 -0.2977  0.0147  0.3630
  134OSM   H11S14519   2.682   1.344   7.779  1.1571  1.8523 -0.4755
  134OSM   H11T14520   2.850   1.323   7.729 -1.0787  1.4516  0.5405
  134OSM   C12S14521   2.786   1.167   7.856  0.3345 -0.0866 -0.4075
  134OSM   H12S14522   2.860   1.089   7.829 -0.3332 -0.7098 -0.4784
  134OSM   H12T14523   2.695   1.107   7.877  1.1381 -1.4007 -0.5636
  134OSM   C13S14524   2.836   1.233   7.984  0.7722  0.2127  0.5443
  134OSM   H13S14525   2.761   1.302   8.026  0.2975 -0.2484  0.4601
  134OSM   H13T14526   2.928   1.288   7.956  0.9231 -0.6311 -0.7268
  134OSM   C14S14527   2.855   1.128   8.099 -0.2525  0.1560 -0.6530
  134OSM   H14S14528   2.927   1.058   8.051  0.0020  0.8280 -1.2588
  134OSM   H14T14529   2.771   1.061   8.128  0.4552 -1.0282 -1.2428
  134OSM   C15S14530   2.917   1.175   8.231 -0.8331 -0.3455  0.6148
  134OSM   H15S14531   3.012   1.231   8.215 -0.6702 -0.6499  0.5188
  134OSM   H15T14532   2.943   1.086   8.293 -1.0110  0.1587  1.4381
  134OSM   C16S14533   2.825   1.268   8.310 -0.1060  0.7437 -0.4573
  134OSM   H16S14534   2.726   1.218   8.315 -0.0929  0.5679 -1.6930
  134OSM   H16T14535   2.813   1.355   8.242 -1.2184  1.0375  0.0840
  134OSM   C17S14536   2.878   1.304   8.454 -0.3721 -0.6164  0.0573
  134OSM   H17S14537   2.978   1.350   8.444 -0.4653 -0.6972 -1.6556
  134OSM   H17T14538   2.889   1.222   8.528 -2.2651  0.1916  1.3195
  134OSM   C18S14539   2.789   1.417   8.521  0.4830  0.1456  0.1449
  134OSM   H18S14540   2.858   1.462   8.597  2.5049 -0.7281 -1.0803
  134OSM   H18T14541   2.690   1.382   8.556  0.9590 -1.3873  0.0447
  134OSM   H18U14542   2.762   1.488   8.441  1.0355 -2.1675 -2.2252
  134OSM    C1F14543   2.619   1.709   6.924  0.1106  0.6915  0.2831
  134OSM     OF14544   2.514   1.746   6.876  0.7827  0.2549 -0.4551
  134OSM    C2F14545   2.684   1.781   7.040  0.1057  0.3237  0.3543
  134OSM    H2F14546   2.661   1.732   7.137  1.6163  1.6559  1.4388
  134OSM    H2G14547   2.645   1.885   7.043 -0.3716  0.1389  0.9195
  134OSM    C3F14548   2.836   1.799   7.029  0.2946  0.1045  0.1469
  134OSM    H3F14549   2.862   1.824   6.924  0.5633  1.3592  0.4857
  134OSM    H3G14550   2.885   1.704   7.058 -0.7697 -0.8486 -1.0544
  134OSM    C4F14551   2.909   1.901   7.128  0.2566  0.2184  0.4399
  134OSM    H4F14552   2.908   2.007   7.094  2.2454  0.0908 -0.1732
  134OSM    H4G14553   3.014   1.868   7.112 -0.2224 -1.0671 -0.1710
  134OSM    C5F14554   2.879   1.881   7.279 -0.0586 -0.9140 -0.8656
  134OSM    H5F14555   2.885   1.775   7.311  1.7915 -0.7787 -0.6779
  134OSM    H5G14556   2.773   1.913   7.291  0.2054 -0.5714  0.8315
  134OSM    C6F14557   2.972   1.959   7.375 -0.1000 -0.3051  0.7693
  134OSM    H6F14558   2.968   2.068   7.352 -0.3265  0.0320  2.2650
  134OSM    H6G14559   3.072   1.929   7.338 -0.1000 -0.4111  0.8558
  134OSM    C7F14560   2.956   1.915   7.527  0.4353 -0.7040 -0.1036
  134OSM    H7F14561   2.912   1.814   7.539  0.0988 -0.2371  3.9707
  134OSM    H7G14562   2.889   1.995   7.566  0.9864 -0.5478  0.5640
  134OSM    C8F14563   3.091   1.894   7.588 -0.6145 -0.0297 -0.4964
  134OSM    H8F14564   3.146   1.990   7.598  0.1967 -0.4978 -0.4033
  134OSM    H8G14565   3.157   1.828   7.527  0.5500 -0.8791  1.6002
  134OSM    C9F14566   3.061   1.831   7.722  0.5604  0.5933  0.2196
  134OSM    H9F14567   3.012   1.733   7.719  1.5059  0.1264 -0.2538
  134OSM   C10F14568   3.086   1.881   7.844  0.3046 -0.3633 -0.0170
  134OSM   H10F14569   3.054   1.808   7.920  1.1661 -1.3084 -0.5340
  134OSM   C11F14570   3.147   2.012   7.890 -0.3320  0.3487 -1.1638
  134OSM   H11F14571   3.063   2.080   7.914  1.3153  1.0810  3.4070
  134OSM   H11G14572   3.212   2.056   7.811  1.0190 -0.8889 -0.7907
  134OSM   C12F14573   3.239   2.000   8.005  0.1954  0.9106 -0.9671
  134OSM   H12F14574   3.330   1.944   7.976 -0.0212  0.2005 -0.3089
  134OSM   H12G14575   3.199   1.946   8.094 -1.7701  0.6646 -1.9326
  134OSM   C13F14576   3.282   2.139   8.054  0.0590  0.3930  0.0235
  134OSM   H13F14577   3.194   2.202   8.080  0.6000  0.5079  1.7088
  134OSM   H13G14578   3.333   2.198   7.975  1.1598  0.8718  1.0597
  134OSM   C14F14579   3.378   2.131   8.169 -0.8205  0.3361  0.4348
  134OSM   H14F14580   3.485   2.114   8.143  0.1569  1.3326  3.3621
  134OSM   H14G14581   3.356   2.050   8.242  1.0277 -0.7847 -0.1804
  134OSM   C15F14582   3.371   2.263   8.246  0.0285 -0.3743 -0.1464
  134OSM   H15F14583   3.281   2.259   8.311  1.2423  0.2994  1.6339
  134OSM   H15G14584   3.361   2.344   8.171  0.7423  0.7958  0.9787
  134OSM   C16F14585   3.500   2.282   8.336  0.1973 -0.3929  0.3413
  134OSM   H16F14586   3.586   2.298   8.268  0.5990  2.7595  1.4503
  134OSM   H16G14587   3.524   2.197   8.404  1.1954  1.5264  2.4827
  134OSM   C17F14588   3.488   2.413   8.421  0.0392  1.0301  0.6796
  134OSM   H17F14589   3.575   2.424   8.490  0.2801  1.6411  0.2912
  134OSM   H17G14590   3.401   2.399   8.488 -1.6346  3.1775 -0.9392
  134OSM   C18F14591   3.460   2.538   8.347  0.3418 -0.0798  0.7187
  134OSM   H18F14592   3.527   2.538   8.258  0.1050  1.9760  0.4730
  134OSM   H18G14593   3.493   2.618   8.416  0.7798 -0.0910  0.5269
  134OSM   H18H14594   3.352   2.543   8.321  0.6600 -0.1434 -0.6987
  135OSM      N14595   2.224   2.303   6.125 -0.0408 -0.1992  0.0687
  135OSM    C1514596   2.321   2.245   6.224  0.3158 -0.3153  0.3235
  135OSM   H15A14597   2.370   2.322   6.281  0.9327 -1.2505  1.0986
  135OSM   H15B14598   2.399   2.192   6.170  1.1683  2.4388 -1.3427
  135OSM   H15C14599   2.282   2.176   6.298 -1.0598 -0.5676 -0.5984
  135OSM    C1414600   2.297   2.390   6.027 -0.1889 -0.5154 -0.5241
  135OSM   H14A14601   2.363   2.463   6.072 -1.9062  0.2052  0.9291
  135OSM   H14B14602   2.246   2.445   5.950  0.2240  1.1498  0.3556
  135OSM   H14C14603   2.356   2.317   5.972  1.3954  0.6541 -0.4421
  135OSM    C1314604   2.158   2.190   6.060 -0.0383  0.1879  0.4450
  135OSM   H13A14605   2.127   2.116   6.132 -2.3084 -0.8242 -1.4173
  135OSM   H13B14606   2.215   2.144   5.980 -1.1487  0.3496 -0.4785
  135OSM   H13C14607   2.066   2.224   6.014 -1.2043 -0.9251  1.8456
  135OSM    C1214608   2.133   2.395   6.202  0.0406  0.8446  0.0975
  135OSM   H12A14609   2.077   2.462   6.139  0.9155  2.5635  1.0644
  135OSM   H12B14610   2.201   2.463   6.252  2.4428 -0.1322 -1.6029
  135OSM    C1114611   2.034   2.336   6.303 -0.4981  0.0270 -0.1423
  135OSM   H11A14612   1.946   2.292   6.251 -2.0638  3.6488 -0.8754
  135OSM   H11B14613   1.985   2.425   6.347  1.3428  1.2594 -0.4947
  135OSM      P14614   2.058   2.111   6.440 -0.0521 -0.2225 -0.5848
  135OSM    O1314615   1.916   2.093   6.409  0.2629 -0.7892  0.0431
  135OSM    O1414616   2.143   2.017   6.371  0.1865  0.3168  0.0054
  135OSM    O1114617   2.083   2.087   6.597 -0.1841 -0.1173 -0.2098
  135OSM    O1214618   2.104   2.255   6.408  0.0187 -1.2242  0.4422
  135OSM    C1S14619   2.165   2.178   6.669  0.2260 -0.0273  0.2549
  135OSM    H1S14620   2.131   2.284   6.662 -0.7406 -0.2971  0.6262
  135OSM    H1T14621   2.269   2.171   6.633  0.3541  0.8572  0.4266
  135OSM     NF14622   2.237   2.241   6.900 -0.5136 -0.2347 -0.0974
  135OSM    HNF14623   2.296   2.187   6.961  0.7048 -0.9137 -1.8068
  135OSM    C2S14624   2.163   2.144   6.817 -0.3950 -0.4156 -0.1084
  135OSM    H2S14625   2.055   2.144   6.844 -0.8139 -1.1337 -1.6564
  135OSM    C3S14626   2.219   1.996   6.823 -0.0257 -0.3710 -0.4585
  135OSM    H3S14627   2.319   1.990   6.775  0.2863 -1.0016  0.2516
  135OSM     O314628   2.137   1.892   6.764 -0.0455  0.3351  0.6378
  135OSM    HO314629   2.088   1.947   6.703  0.4492  0.2540  0.1541
  135OSM    C4S14630   2.247   1.958   6.967  0.1370 -0.2156 -0.6721
  135OSM    H4S14631   2.354   1.956   6.988  0.1010 -0.3210 -0.5006
  135OSM    C5S14632   2.151   1.899   7.048 -0.0513  0.4137 -0.9153
  135OSM    H5S14633   2.053   1.878   7.003  0.5230 -0.2869 -1.8721
  135OSM    C6S14634   2.172   1.858   7.192 -0.7030 -0.8309 -0.1308
  135OSM    H6S14635   2.162   1.748   7.183  0.8789 -1.2220  2.1634
  135OSM    H6T14636   2.098   1.899   7.264  0.3203  0.1940  0.3769
  135OSM    C7S14637   2.316   1.875   7.249 -0.8761  0.2183 -0.4448
  135OSM    H7S14638   2.353   1.980   7.253 -1.4776  0.4084  0.3232
  135OSM    H7T14639   2.382   1.823   7.177 -0.1548  1.3353 -0.6191
  135OSM    C8S14640   2.330   1.806   7.384  0.2425 -0.0543  0.4246
  135OSM    H8S14641   2.240   1.742   7.398  0.2052 -0.5036 -1.5954
  135OSM    H8T14642   2.308   1.879   7.465 -1.0621 -0.5120  0.4963
  135OSM    C9S14643   2.469   1.740   7.397 -0.7690  0.4440  0.4480
  135OSM    H9S14644   2.543   1.814   7.360  2.2490 -3.1288 -1.3134
  135OSM    H9T14645   2.476   1.659   7.322 -1.7649 -0.9505  1.7985
  135OSM   C10S14646   2.524   1.693   7.534 -1.1673 -0.1600  0.1733
  135OSM   H10S14647   2.591   1.606   7.514 -0.6301  0.0258  1.1082
  135OSM   H10T14648   2.434   1.664   7.593 -0.2829 -1.0008  1.1574
  135OSM   C11S14649   2.608   1.800   7.602 -0.6737 -0.1432 -0.3554
  135OSM   H11S14650   2.542   1.885   7.629 -0.3618 -0.7096  2.5255
  135OSM   H11T14651   2.683   1.833   7.528 -1.9337 -0.3013 -1.7565
  135OSM   C12S14652   2.675   1.743   7.731  0.6320  0.8280  0.4659
  135OSM   H12S14653   2.722   1.835   7.774  0.7332  1.1206 -0.2604
  135OSM   H12T14654   2.755   1.668   7.718  0.1943 -0.4235  3.8557
  135OSM   C13S14655   2.563   1.686   7.830 -0.0082 -0.7026  0.2172
  135OSM   H13S14656   2.510   1.606   7.776 -0.3009  1.2676 -2.6299
  135OSM   H13T14657   2.493   1.767   7.861  0.9593  0.1245  0.3285
  135OSM   C14S14658   2.623   1.613   7.954 -0.1163 -0.3666  0.4400
  135OSM   H14S14659   2.692   1.534   7.917 -0.5539 -0.1263 -0.9801
  135OSM   H14T14660   2.534   1.567   8.002 -0.9462  0.1719 -0.5426
  135OSM   C15S14661   2.696   1.700   8.059 -0.5439  0.0911  0.3250
  135OSM   H15S14662   2.619   1.762   8.109 -2.4721 -2.0851  0.2572
  135OSM   H15T14663   2.760   1.761   7.991  2.5404 -3.1391  0.0037
  135OSM   C16S14664   2.784   1.626   8.164  1.0067 -0.0969  0.2667
  135OSM   H16S14665   2.853   1.555   8.113 -0.8967 -0.9540 -1.2996
  135OSM   H16T14666   2.712   1.557   8.214  1.0688 -0.0851  0.3704
  135OSM   C17S14667   2.864   1.719   8.252 -0.2274 -0.2668 -0.5370
  135OSM   H17S14668   2.934   1.783   8.194  0.2443 -1.3967 -1.2408
  135OSM   H17T14669   2.925   1.656   8.320  2.1811  0.1216 -2.2181
  135OSM   C18S14670   2.782   1.814   8.342  0.2700 -0.4399  0.5313
  135OSM   H18S14671   2.722   1.892   8.290 -0.5738 -0.6689  1.1413
  135OSM   H18T14672   2.835   1.866   8.424 -2.9071 -0.0817  2.5283
  135OSM   H18U14673   2.697   1.753   8.381  0.2723 -0.3540  0.6683
  135OSM    C1F14674   2.206   2.374   6.914 -0.5564  0.9381  0.4134
  135OSM     OF14675   2.117   2.428   6.844  0.3374  0.0772 -0.3292
  135OSM    C2F14676   2.295   2.456   7.003  0.6847  0.8395  0.2666
  135OSM    H2F14677   2.332   2.530   6.929  1.9857  0.1262  0.1732
  135OSM    H2G14678   2.370   2.387   7.047 -1.3373  0.6758  3.8511
  135OSM    C3F14679   2.224   2.517   7.123  0.6936  0.1820  0.2194
  135OSM    H3F14680   2.144   2.462   7.177 -1.4968  0.3579 -2.6401
  135OSM    H3G14681   2.169   2.606   7.086 -1.7580 -0.7889  1.3417
  135OSM    C4F14682   2.322   2.566   7.226  0.2737  0.7364  0.5897
  135OSM    H4F14683   2.399   2.641   7.197 -0.3030  0.4247 -1.9696
  135OSM    H4G14684   2.380   2.472   7.245 -0.4865  0.1849  0.2117
  135OSM    C5F14685   2.269   2.606   7.364  0.0700 -0.5680 -0.4022
  135OSM    H5F14686   2.216   2.701   7.341  0.6459 -0.5122 -1.6052
  135OSM    H5G14687   2.360   2.627   7.423  0.3634 -2.6161 -0.0352
  135OSM    C6F14688   2.185   2.504   7.440  0.6919 -0.0087  0.3398
  135OSM    H6F14689   2.098   2.479   7.376  1.7826 -1.3326 -0.6951
  135OSM    H6G14690   2.142   2.543   7.535  0.3665 -0.5687  0.4269
  135OSM    C7F14691   2.252   2.364   7.461  0.8003  0.3016  0.3874
  135OSM    H7F14692   2.357   2.379   7.496  1.7537 -1.2766 -1.5819
  135OSM    H7G14693   2.257   2.314   7.362  0.1818 -0.1487  0.5809
  135OSM    C8F14694   2.177   2.280   7.568 -0.2109 -0.3017  0.5938
  135OSM    H8F14695   2.072   2.281   7.531  0.7190 -1.0590 -2.3524
  135OSM    H8G14696   2.184   2.331   7.667 -0.3263 -0.3892  0.6473
  135OSM    C9F14697   2.233   2.136   7.575  0.6315 -0.0105  0.7349
  135OSM    H9F14698   2.228   2.085   7.477  0.0882  1.3055  0.0546
  135OSM   C10F14699   2.293   2.079   7.679  0.1884 -0.8683  0.1682
  135OSM   H10F14700   2.350   1.986   7.665  2.5412  0.5962 -0.6299
  135OSM   C11F14701   2.311   2.144   7.817  1.0839  0.7398  0.5185
  135OSM   H11F14702   2.302   2.254   7.807 -0.9899  0.4752 -1.4460
  135OSM   H11G14703   2.412   2.125   7.859  1.5293 -0.3372 -0.9433
  135OSM   C12F14704   2.211   2.087   7.924  0.4681 -0.6597  0.3886
  135OSM   H12F14705   2.217   1.976   7.919  1.5966 -0.6402  0.9805
  135OSM   H12G14706   2.103   2.111   7.912  0.5265  0.4190  1.8094
  135OSM   C13F14707   2.255   2.123   8.063  0.2806 -0.1698 -0.3762
  135OSM   H13F14708   2.223   2.225   8.094 -1.0352 -0.9512  1.0142
  135OSM   H13G14709   2.365   2.112   8.071  0.0030 -1.8033  2.4169
  135OSM   C14F14710   2.177   2.034   8.161  0.4122  1.0746  0.0907
  135OSM   H14F14711   2.209   1.928   8.157 -1.0030  0.4567  2.7188
  135OSM   H14G14712   2.070   2.025   8.133  1.0029 -3.7214 -1.3955
  135OSM   C15F14713   2.190   2.092   8.306 -0.1464  0.0753  0.3737
  135OSM   H15F14714   2.295   2.123   8.325  0.4672 -1.7700  0.1647
  135OSM   H15G14715   2.147   2.017   8.376 -1.4934 -1.3019 -1.8432
  135OSM   C16F14716   2.094   2.212   8.326 -0.3149 -0.9659 -0.7477
  135OSM   H16F14717   2.121   2.291   8.253  1.9494 -0.1363  0.8647
  135OSM   H16G14718   2.119   2.256   8.425 -0.4400  1.5087 -1.7494
  135OSM   C17F14719   1.944   2.175   8.338  0.3045 -0.0545 -0.1793
  135OSM   H17F14720   1.927   2.101   8.419 -0.1587 -0.5105 -0.6869
  135OSM   H17G14721   1.895   2.135   8.246  0.9895  1.8794 -1.4641
  135OSM   C18F14722   1.863   2.298   8.376 -0.2923  0.1895 -0.1895
  135OSM   H18F14723   1.755   2.269   8.383 -0.4947  1.1898  1.4891
  135OSM   H18G14724   1.873   2.383   8.306 -1.4850  2.1053  1.8344
  135OSM   H18H14725   1.892   2.333   8.477  0.6816 -1.7418  0.2478
  136OSM      N14726   0.851   2.606   6.147 -0.6873 -0.2946 -0.1870
  136OSM    C1514727   0.955   2.706   6.108  0.6061  0.2539 -0.0902
  136OSM   H15A14728   0.936   2.753   6.013  2.6837 -1.2043 -1.3092
  136OSM   H15B14729   1.042   2.645   6.087  0.7875 -0.4392  2.3488
  136OSM   H15C14730   0.980   2.783   6.180  3.7642 -2.0091  1.5178
  136OSM    C1414731   0.829   2.512   6.035 -0.4857  0.4131  0.2182
  136OSM   H14A14732   0.786   2.557   5.947  1.2509 -1.4119 -1.6572
  136OSM   H14B14733   0.775   2.426   6.069  1.1606 -0.1364  1.6422
  136OSM   H14C14734   0.927   2.470   6.014  0.2093  2.2871 -0.5240
  136OSM    C1314735   0.899   2.540   6.272  0.0554  0.2497 -0.7136
  136OSM   H13A14736   0.998   2.500   6.255 -0.8703 -2.6797  0.1119
  136OSM   H13B14737   0.834   2.454   6.284  0.6555 -0.0754  0.3002
  136OSM   H13C14738   0.885   2.599   6.362 -0.4974  0.1454 -0.7290
  136OSM    C1214739   0.719   2.679   6.172 -0.5745  0.8366  0.0450
  136OSM   H12A14740   0.700   2.735   6.082 -0.9260 -0.9491 -1.0241
  136OSM   H12B14741   0.740   2.763   6.236  3.6666 -0.9222  1.3627
  136OSM    C1114742   0.603   2.598   6.233 -0.1754 -0.0584 -0.1513
  136OSM   H11A14743   0.514   2.665   6.230  0.0885  0.2779 -0.7330
  136OSM   H11B14744   0.626   2.591   6.341 -1.0615  2.6880  0.3012
  136OSM      P14745   0.593   2.328   6.232  0.0631  0.0395  0.2873
  136OSM    O1314746   0.490   2.242   6.166  0.2830 -0.3018 -0.2100
  136OSM    O1414747   0.726   2.272   6.230 -0.6764 -0.4350  0.0461
  136OSM    O1114748   0.540   2.357   6.372  0.7274  0.3250 -0.3333
  136OSM    O1214749   0.582   2.477   6.163  0.5393 -0.3834 -0.3141
  136OSM    C1S14750   0.612   2.307   6.487 -0.6085  0.8123 -0.0513
  136OSM    H1S14751   0.704   2.365   6.509  0.0817 -0.1893 -0.2539
  136OSM    H1T14752   0.630   2.198   6.476  0.7528  1.1011 -0.8328
  136OSM     NF14753   0.597   2.296   6.739  0.4356 -0.1115  0.0880
  136OSM    HNF14754   0.581   2.203   6.771 -1.3970 -0.0726 -0.5966
  136OSM    C2S14755   0.527   2.342   6.616 -0.5526  1.0574 -0.5256
  136OSM    H2S14756   0.525   2.452   6.633  3.3364  0.8040  3.6358
  136OSM    C3S14757   0.383   2.280   6.611 -0.2951 -0.4868  1.1267
  136OSM    H3S14758   0.378   2.170   6.597  0.1590 -0.8679  3.4995
  136OSM     O314759   0.307   2.327   6.499  0.1506  0.1476 -0.1190
  136OSM    HO314760   0.370   2.356   6.433 -0.0418 -0.4416 -0.5688
  136OSM    C4S14761   0.310   2.296   6.740  0.2844 -0.2079 -0.8006
  136OSM    H4S14762   0.344   2.232   6.822 -0.2662  0.8195  0.2508
  136OSM    C5S14763   0.206   2.386   6.764  0.2448  0.4452  0.5972
  136OSM    H5S14764   0.171   2.453   6.685  0.7773  0.1325  0.0921
  136OSM    C6S14765   0.129   2.405   6.892  0.7461 -0.3418 -0.4093
  136OSM    H6S14766   0.030   2.356   6.877 -0.8375  2.5410  0.0149
  136OSM    H6T14767   0.100   2.511   6.904 -1.1259 -0.6430 -1.8395
  136OSM    C7S14768   0.193   2.351   7.022  0.9685 -0.3877 -0.8768
  136OSM    H7S14769   0.291   2.402   7.035  1.0705 -0.6407 -0.6605
  136OSM    H7T14770   0.221   2.244   7.020 -0.9233 -1.1713  3.2873
  136OSM    C8S14771   0.105   2.381   7.146  1.1529 -0.5694 -0.2348
  136OSM    H8S14772   0.063   2.484   7.138 -2.1653 -1.7635  0.0443
  136OSM    H8T14773   0.152   2.382   7.247 -0.3547 -1.5784  0.5188
  136OSM    C9S14774  -0.024   2.298   7.158  0.0117 -0.0340  0.4935
  136OSM    H9S14775  -0.007   2.188   7.160 -1.1116 -0.2510 -1.0632
  136OSM    H9T14776  -0.085   2.323   7.069  1.6442 -2.0287 -1.3178
  136OSM   C10S14777  -0.108   2.336   7.282  0.4140  0.8846  0.9881
  136OSM   H10S14778  -0.202   2.278   7.268  0.3847  1.3310 -0.9243
  136OSM   H10T14779  -0.121   2.446   7.276  0.1603  0.7919 -0.7744
  136OSM   C11S14780  -0.060   2.304   7.420  0.3877  0.3855 -0.5354
  136OSM   H11S14781   0.038   2.353   7.433  1.0596 -1.3819  1.6186
  136OSM   H11T14782  -0.036   2.196   7.435  0.8621  0.3607 -1.3944
  136OSM   C12S14783  -0.155   2.355   7.533 -0.5069 -0.4659  0.4823
  136OSM   H12S14784  -0.107   2.321   7.627  3.6870  0.4645 -1.0854
  136OSM   H12T14785  -0.259   2.318   7.530  0.0365 -2.2342  1.8709
  136OSM   C13S14786  -0.155   2.507   7.539  0.2798  0.6042 -0.5932
  136OSM   H13S14787  -0.231   2.538   7.464 -1.8043  2.0078  1.9323
  136OSM   H13T14788  -0.056   2.550   7.516  0.2699  0.3992 -1.0444
  136OSM   C14S14789  -0.202   2.553   7.677 -0.2878 -0.0608 -0.1948
  136OSM   H14S14790  -0.137   2.504   7.753 -0.2844  1.8012  1.0655
  136OSM   H14T14791  -0.301   2.511   7.704  0.5816 -0.6988  2.2754
  136OSM   C15S14792  -0.193   2.701   7.708 -0.3698  0.7860  0.0855
  136OSM   H15S14793  -0.278   2.750   7.656 -2.2368 -0.9253  1.3909
  136OSM   H15T14794  -0.097   2.748   7.676 -1.1027  3.7003  1.7778
  136OSM   C16S14795  -0.200   2.747   7.858  0.8210  0.4178  0.0673
  136OSM   H16S14796  -0.124   2.688   7.912  1.8988 -1.5160 -3.2957
  136OSM   H16T14797  -0.291   2.705   7.906  0.9397 -0.1673 -0.2207
  136OSM   C17S14798  -0.192   2.899   7.881  0.2452  0.2898  0.1185
  136OSM   H17S14799  -0.085   2.924   7.865 -0.2443  1.7250 -1.1398
  136OSM   H17T14800  -0.208   2.920   7.989 -2.2090  1.3644 -0.3783
  136OSM   C18S14801  -0.284   2.989   7.803  0.4041 -0.5348  0.2229
  136OSM   H18S14802  -0.385   2.974   7.847 -0.5795  1.1884 -1.3147
  136OSM   H18T14803  -0.295   2.989   7.693 -2.1034 -1.2479  0.4122
  136OSM   H18U14804  -0.258   3.095   7.826  0.3891 -0.7145  1.1105
  136OSM    C1F14805   0.709   2.356   6.777 -0.0631 -0.4882  0.1542
  136OSM     OF14806   0.747   2.462   6.723  0.5157 -0.2063 -0.2532
  136OSM    C2F14807   0.791   2.288   6.886 -0.3787 -0.3433  0.5235
  136OSM    H2F14808   0.827   2.187   6.854  2.7649  0.8743 -0.0960
  136OSM    H2G14809   0.722   2.277   6.972 -0.6890 -0.8869  0.2149
  136OSM    C3F14810   0.920   2.355   6.942 -0.0498 -0.1901 -0.0727
  136OSM    H3F14811   0.890   2.454   6.981 -1.8779 -0.2910 -1.0952
  136OSM    H3G14812   0.986   2.375   6.855  0.9812  0.5112  0.8467
  136OSM    C4F14813   0.980   2.266   7.051 -0.6079 -0.0263 -0.2416
  136OSM    H4F14814   1.081   2.308   7.071  0.8735 -2.5235 -2.0061
  136OSM    H4G14815   0.991   2.160   7.019  1.7346  0.6835 -2.1286
  136OSM    C5F14816   0.900   2.271   7.180 -0.2522  0.0361  0.3439
  136OSM    H5F14817   0.792   2.251   7.166 -0.2048  0.7554 -1.1631
  136OSM    H5G14818   0.918   2.370   7.229 -1.7756  0.7880 -0.5714
  136OSM    C6F14819   0.951   2.174   7.288 -0.6971  0.1711  0.0660
  136OSM    H6F14820   1.057   2.155   7.264 -0.2786  1.3750  0.8787
  136OSM    H6G14821   0.890   2.081   7.283 -0.1749 -0.1436 -0.5120
  136OSM    C7F14822   0.928   2.218   7.428 -0.4104 -0.5844 -0.5202
  136OSM    H7F14823   0.824   2.258   7.434 -0.6632 -1.2287 -0.4707
  136OSM    H7G14824   0.998   2.297   7.462  0.5536 -1.4927 -0.3457
  136OSM    C8F14825   0.950   2.103   7.528 -0.3143 -0.1049  0.0001
  136OSM    H8F14826   1.050   2.063   7.498 -0.6023 -1.1394  0.3813
  136OSM    H8G14827   0.871   2.029   7.502 -1.3117  0.5876  0.9925
  136OSM    C9F14828   0.957   2.149   7.670  0.3796  0.1250  0.0875
  136OSM    H9F14829   1.048   2.206   7.693 -0.3820  1.4127  0.0108
  136OSM   C10F14830   0.884   2.111   7.772  0.2040 -0.3664  0.4933
  136OSM   H10F14831   0.890   2.164   7.868  0.4503 -0.0881  0.3275
  136OSM   C11F14832   0.767   2.014   7.747  0.3361  0.6158 -0.1710
  136OSM   H11F14833   0.791   1.911   7.713  0.0778  0.7639 -0.8164
  136OSM   H11G14834   0.702   2.060   7.669  1.1615 -0.3399 -1.4602
  136OSM   C12F14835   0.674   2.005   7.870  0.2947 -0.8410  0.2601
  136OSM   H12F14836   0.575   1.961   7.847  0.1390 -0.0147 -0.7183
  136OSM   H12G14837   0.648   2.106   7.909 -0.4842 -1.2244  0.7532
  136OSM   C13F14838   0.729   1.916   7.971  0.2415  0.9652 -0.0626
  136OSM   H13F14839   0.832   1.946   7.998  1.2573 -1.4823 -0.8461
  136OSM   H13G14840   0.743   1.811   7.935  0.7842  0.1812  2.2936
  136OSM   C14F14841   0.637   1.905   8.096 -0.0226  0.7641  0.2042
  136OSM   H14F14842   0.529   1.910   8.070 -0.1141  0.5347  0.5279
  136OSM   H14G14843   0.657   1.989   8.167 -0.3615  0.6206  0.4749
  136OSM   C15F14844   0.659   1.768   8.177  0.0660  0.0367  0.1003
  136OSM   H15F14845   0.768   1.761   8.200  0.0400  0.5948  0.4058
  136OSM   H15G14846   0.636   1.685   8.107  2.3445 -0.0961 -0.5792
  136OSM   C16F14847   0.574   1.759   8.301  0.8790 -0.4200  0.3387
  136OSM   H16F14848   0.470   1.754   8.264  0.9879 -0.8467  0.0782
  136OSM   H16G14849   0.590   1.842   8.373 -1.0294 -1.2313  1.7944
  136OSM   C17F14850   0.574   1.616   8.364  0.6625 -0.4558 -0.0991
  136OSM   H17F14851   0.676   1.592   8.402  2.6251  0.7251 -4.0803
  136OSM   H17G14852   0.552   1.539   8.287 -1.0060  1.1149 -1.2745
  136OSM   C18F14853   0.481   1.610   8.478  0.2664 -0.1418 -0.1549
  136OSM   H18F14854   0.477   1.512   8.531  0.3826  0.4335  0.9665
  136OSM   H18G14855   0.387   1.621   8.420  0.4231  0.1327 -0.3541
  136OSM   H18H14856   0.477   1.698   8.546 -0.6471  0.0300 -0.4168
  137OSM      N14857   4.240   0.639   6.365  0.0289  0.5063  0.6517
  137OSM    C1514858   4.114   0.562   6.394  0.1876 -0.1229  0.0987
  137OSM   H15A14859   4.067   0.630   6.464  1.7817  1.6350 -0.4358
  137OSM   H15B14860   4.127   0.481   6.464 -4.0549  2.0963  4.0071
  137OSM   H15C14861   4.069   0.530   6.302 -0.8638  0.3384  0.4424
  137OSM    C1414862   4.329   0.635   6.478 -0.0206 -0.6478 -0.1393
  137OSM   H14A14863   4.422   0.688   6.465  0.1607 -1.1342 -0.8660
  137OSM   H14B14864   4.350   0.533   6.509  1.3956 -0.4588 -0.4075
  137OSM   H14C14865   4.283   0.665   6.571  1.6331 -1.7845  1.1202
  137OSM    C1314866   4.318   0.565   6.253 -0.1986 -0.3618  0.0699
  137OSM   H13A14867   4.416   0.608   6.234  0.2221 -1.5088 -0.4046
  137OSM   H13B14868   4.266   0.556   6.159  0.3645  0.0718 -0.2872
  137OSM   H13C14869   4.341   0.464   6.284  0.2122 -0.0640  0.7766
  137OSM    C1214870   4.217   0.775   6.309  0.4974 -0.5751 -0.0031
  137OSM   H12A14871   4.149   0.763   6.226  1.4986 -2.0021 -0.6559
  137OSM   H12B14872   4.309   0.814   6.270  0.0888  2.7892  1.9849
  137OSM    C1114873   4.156   0.886   6.401 -0.0611  0.2427 -0.5802
  137OSM   H11A14874   4.140   0.979   6.343 -1.5734  0.8233  0.6898
  137OSM   H11B14875   4.229   0.916   6.480  0.4151  1.7033 -1.5370
  137OSM      P14876   3.905   0.905   6.424 -0.1294  0.4633 -0.1656
  137OSM    O1314877   3.881   1.044   6.480  0.2779  0.4553  0.1220
  137OSM    O1414878   3.899   0.887   6.281 -0.1341  0.7879  0.0015
  137OSM    O1114879   3.797   0.809   6.492  0.2587  0.4262 -0.6091
  137OSM    O1214880   4.041   0.840   6.477 -0.2607  0.2417 -0.7547
  137OSM    C1S14881   3.774   0.827   6.631 -0.3885  0.2328  0.0850
  137OSM    H1S14882   3.693   0.902   6.644 -0.9908 -0.1976 -1.0718
  137OSM    H1T14883   3.860   0.862   6.692 -0.7647  0.1763  0.6573
  137OSM     NF14884   3.693   0.727   6.836 -0.4123 -0.0416 -0.6116
  137OSM    HNF14885   3.765   0.693   6.896  1.4516  0.0340 -2.7003
  137OSM    C2S14886   3.713   0.698   6.695 -0.6432 -0.4755  0.1001
  137OSM    H2S14887   3.611   0.697   6.651 -0.8417  1.4741  0.4055
  137OSM    C3S14888   3.790   0.562   6.661  0.3510  0.0747 -0.0885
  137OSM    H3S14889   3.899   0.578   6.669  0.3671 -0.4495  0.8223
  137OSM     O314890   3.790   0.520   6.523 -0.0734  0.3847 -0.4716
  137OSM    HO314891   3.762   0.598   6.474  0.7222  0.7677 -0.3236
  137OSM    C4S14892   3.738   0.450   6.755  0.4920 -0.0257  0.1180
  137OSM    H4S14893   3.811   0.412   6.828 -0.2116 -0.4978  0.5965
  137OSM    C5S14894   3.621   0.388   6.742  0.3374  0.4923  0.3029
  137OSM    H5S14895   3.548   0.434   6.674  0.0272  0.9041  0.9023
  137OSM    C6S14896   3.568   0.269   6.820 -0.2150 -0.2119 -0.6478
  137OSM    H6S14897   3.526   0.198   6.746  1.1714 -1.9593  0.1538
  137OSM    H6T14898   3.480   0.295   6.883 -0.1919  0.3534 -0.8409
  137OSM    C7S14899   3.659   0.186   6.916  0.1805 -0.2625 -0.1104
  137OSM    H7S14900   3.767   0.193   6.892 -0.0120  0.3917 -0.8414
  137OSM    H7T14901   3.636   0.080   6.895 -2.6349  0.3123 -0.3532
  137OSM    C8S14902   3.626   0.211   7.064  0.0098  0.1902  0.0071
  137OSM    H8S14903   3.517   0.187   7.071 -0.1954  1.2247  0.5877
  137OSM    H8T14904   3.642   0.319   7.084  1.3605  0.2335 -1.1840
  137OSM    C9S14905   3.695   0.116   7.174 -0.5780 -0.2494 -0.6836
  137OSM    H9S14906   3.805   0.129   7.173 -0.3009 -2.2840  0.1475
  137OSM    H9T14907   3.687   0.014   7.131 -0.3894 -0.7927  0.5431
  137OSM   C10S14908   3.621   0.115   7.308  0.6063 -0.7251  0.0577
  137OSM   H10S14909   3.517   0.080   7.297  0.0490  0.7779  0.3457
  137OSM   H10T14910   3.605   0.222   7.332  0.5401 -0.0688 -2.6086
  137OSM   C11S14911   3.699   0.049   7.421  0.5198 -0.1788 -0.0584
  137OSM   H11S14912   3.660   0.076   7.522  0.2395 -1.4897  0.2024
  137OSM   H11T14913   3.804   0.082   7.408  1.2163 -1.9922  0.7454
  137OSM   C12S14914   3.687  -0.105   7.408 -0.1457  0.1372 -0.0481
  137OSM   H12S14915   3.777  -0.154   7.364 -1.1559 -4.4366  2.3342
  137OSM   H12T14916   3.604  -0.121   7.336  0.6184  0.5412 -1.0578
  137OSM   C13S14917   3.675  -0.173   7.546  0.2041 -0.3703 -0.8160
  137OSM   H13S14918   3.684  -0.280   7.520 -0.8442 -0.9804  1.1618
  137OSM   H13T14919   3.573  -0.149   7.581  0.5477 -0.6822  0.4447
  137OSM   C14S14920   3.801  -0.144   7.636  0.6853  0.4535 -0.9422
  137OSM   H14S14921   3.812  -0.034   7.650 -0.9299  0.4426  0.9203
  137OSM   H14T14922   3.889  -0.193   7.591 -0.6364 -0.5910 -2.5272
  137OSM   C15S14923   3.779  -0.196   7.779  0.1299  0.5812 -0.4001
  137OSM   H15S14924   3.801  -0.304   7.794  2.3325  1.2377  1.5911
  137OSM   H15T14925   3.671  -0.175   7.796  0.2541  0.8261  0.0763
  137OSM   C16S14926   3.864  -0.112   7.870  0.5587 -0.2943  0.3829
  137OSM   H16S14927   3.842  -0.004   7.857 -1.6903 -0.8197 -0.7417
  137OSM   H16T14928   3.972  -0.115   7.844  0.7735 -1.5092  1.3106
  137OSM   C17S14929   3.845  -0.145   8.018  0.0927 -0.4659 -0.2202
  137OSM   H17S14930   3.844  -0.255   8.033 -0.7539 -0.4505 -0.0992
  137OSM   H17T14931   3.754  -0.112   8.071  0.0843 -2.4257  1.0852
  137OSM   C18S14932   3.967  -0.082   8.092 -0.3150  0.3323 -0.0099
  137OSM   H18S14933   4.066  -0.122   8.064 -0.7735  0.7039 -2.4053
  137OSM   H18T14934   3.953  -0.108   8.199 -0.6810 -0.7119 -0.3006
  137OSM   H18U14935   3.966   0.028   8.076 -2.2522  0.1887 -1.2216
  137OSM    C1F14936   3.605   0.809   6.888  0.0610 -0.0307 -0.3573
  137OSM     OF14937   3.517   0.852   6.818 -0.4642 -0.2751  0.4537
  137OSM    C2F14938   3.612   0.844   7.031 -0.1668 -0.7059 -0.4176
  137OSM    H2F14939   3.716   0.846   7.069  0.1229  0.4015 -1.2176
  137OSM    H2G14940   3.569   0.762   7.092  0.5638  1.7105  3.6644
  137OSM    C3F14941   3.540   0.982   7.066  0.1247 -0.4197  0.1507
  137OSM    H3F14942   3.432   0.970   7.041  0.2196  0.0758 -0.5163
  137OSM    H3G14943   3.602   1.054   7.009  2.1413 -2.6832 -0.6592
  137OSM    C4F14944   3.527   0.997   7.215 -0.2773 -0.4464  0.0450
  137OSM    H4F14945   3.620   0.975   7.272  0.3607  0.9544 -0.4050
  137OSM    H4G14946   3.449   0.926   7.248 -0.7954 -0.0413 -0.2914
  137OSM    C5F14947   3.489   1.142   7.257  0.2005  0.0033  0.6623
  137OSM    H5F14948   3.402   1.184   7.203 -1.4523 -1.2779  2.2042
  137OSM    H5G14949   3.580   1.205   7.246  1.4345 -1.3359  2.4967
  137OSM    C6F14950   3.444   1.148   7.405 -0.6577  0.2396  0.4231
  137OSM    H6F14951   3.360   1.075   7.409 -1.9056  1.4566 -1.7262
  137OSM    H6G14952   3.404   1.247   7.438 -0.2501  0.1325  1.2663
  137OSM    C7F14953   3.546   1.105   7.516 -0.3735 -0.2091 -0.1043
  137OSM    H7F14954   3.626   1.182   7.524  0.8198 -1.2152 -1.7433
  137OSM    H7G14955   3.586   1.013   7.468 -3.2255 -1.0133 -1.1294
  137OSM    C8F14956   3.485   1.067   7.648  0.9094  0.8958  0.0710
  137OSM    H8F14957   3.401   1.000   7.619 -0.0609  1.5054  1.3443
  137OSM    H8G14958   3.429   1.153   7.690  0.7170  0.7621  0.0924
  137OSM    C9F14959   3.590   1.001   7.741 -0.1605  0.3233  0.2763
  137OSM    H9F14960   3.642   0.910   7.708 -0.5638  0.3573 -0.4908
  137OSM   C10F14961   3.635   1.063   7.859  0.3638  0.3893  0.5923
  137OSM   H10F14962   3.703   0.998   7.917 -1.5996 -0.5906  1.9173
  137OSM   C11F14963   3.577   1.183   7.926 -0.2954  0.5317 -0.1475
  137OSM   H11F14964   3.541   1.258   7.853  1.6234  1.2359 -0.4431
  137OSM   H11G14965   3.655   1.235   7.986  1.4157  1.2200 -2.8287
  137OSM   C12F14966   3.457   1.143   8.015  0.2189  0.1111 -0.5068
  137OSM   H12F14967   3.392   1.082   7.949 -0.8654 -0.4982  1.0662
  137OSM   H12G14968   3.407   1.231   8.060 -0.1918 -0.3546 -0.0353
  137OSM   C13F14969   3.494   1.056   8.133  0.2381 -0.2717  0.2066
  137OSM   H13F14970   3.584   1.105   8.178  0.2581 -1.6176  1.7094
  137OSM   H13G14971   3.523   0.953   8.104  1.6429  0.3733 -0.8120
  137OSM   C14F14972   3.385   1.048   8.244  0.0563 -0.6562 -0.5876
  137OSM   H14F14973   3.297   0.992   8.204 -1.1251  1.9209 -1.8305
  137OSM   H14G14974   3.352   1.152   8.266  0.1502 -1.1761  2.3810
  137OSM   C15F14975   3.438   0.983   8.366  0.2103  0.2363  0.0187
  137OSM   H15F14976   3.527   1.035   8.407  0.7460 -1.6008  1.3591
  137OSM   H15G14977   3.478   0.881   8.347  1.4397  1.0502 -2.1637
  137OSM   C16F14978   3.337   0.986   8.481 -0.3809  0.1474  0.6376
  137OSM   H16F14979   3.255   0.925   8.436  1.4941 -1.6806 -0.5036
  137OSM   H16G14980   3.315   1.093   8.500 -1.2477  0.1924 -0.4989
  137OSM   C17F14981   3.376   0.928   8.612  0.0227  0.3795 -0.5054
  137OSM   H17F14982   3.415   0.828   8.580  0.6934  1.3432 -2.9445
  137OSM   H17G14983   3.291   0.920   8.683  0.8520  2.5890  0.8497
  137OSM   C18F14984   3.487   1.002   8.682 -0.0841 -0.1217 -0.6728
  137OSM   H18F14985   3.446   1.098   8.721 -1.9987 -0.8247 -0.8757
  137OSM   H18G14986   3.576   1.012   8.616  2.0635  0.3077  2.0883
  137OSM   H18H14987   3.529   0.941   8.764 -0.0062 -3.1593 -2.7977
  138OSM      N14988   4.612   3.551   5.795  0.6559 -0.5076  0.2038
  138OSM    C1514989   4.735   3.485   5.828 -0.4471  0.7195 -0.0967
  138OSM   H15A14990   4.727   3.428   5.920 -1.7954  1.6544  0.3868
  138OSM   H15B14991   4.807   3.562   5.848  0.7849  0.0707 -1.8138
  138OSM   H15C14992   4.771   3.429   5.743  0.2360 -1.5140  1.5454
  138OSM    C1414993   4.646   3.663   5.704 -0.1284 -0.1634  0.5282
  138OSM   H14A14994   4.691   3.741   5.764  1.5090  0.4428 -1.4166
  138OSM   H14B14995   4.562   3.711   5.655  0.4268 -1.6082 -1.9912
  138OSM   H14C14996   4.707   3.622   5.625 -1.7273  1.3588 -1.6350
  138OSM    C1314997   4.518   3.445   5.738 -0.5259 -0.0108 -0.1826
  138OSM   H13A14998   4.432   3.492   5.693 -0.0533  0.9665 -0.1043
  138OSM   H13B14999   4.488   3.375   5.815 -2.2383  0.0253 -0.7783
  138OSM   H13C15000   4.567   3.389   5.660  3.4490  3.3696 -0.4753
  138OSM    C1215001   4.560   3.600   5.928  0.0728 -0.1780  0.2389
  138OSM   H12A15002   4.490   3.680   5.914  0.1092 -0.2832 -0.6204
  138OSM   H12B15003   4.634   3.658   5.982  1.2023 -1.2534 -0.0884
  138OSM    C1115004   4.500   3.493   6.029  0.2578 -0.0547 -0.5280
  138OSM   H11A15005   4.400   3.453   6.001 -0.4975  1.6391 -0.4059
  138OSM   H11B15006   4.483   3.547   6.125 -2.3229 -0.3771 -0.7359
  138OSM      P15007   4.566   3.237   6.067  0.0441  0.3751  0.2452
  138OSM    O1315008   4.443   3.185   6.010 -0.3010  0.0755  0.0304
  138OSM    O1415009   4.692   3.169   6.029 -1.0745 -0.4931  0.2684
  138OSM    O1115010   4.563   3.219   6.222 -0.0512  0.1548 -0.3325
  138OSM    O1215011   4.588   3.393   6.046  0.2636  0.2979 -0.3151
  138OSM    C1S15012   4.454   3.281   6.297 -0.2867 -0.0837 -0.2906
  138OSM    H1S15013   4.376   3.204   6.314  1.0002 -1.3340  0.1608
  138OSM    H1T15014   4.409   3.369   6.248  0.1398 -0.1066 -0.7354
  138OSM     NF15015   4.393   3.373   6.511  0.1414  0.3737 -0.1668
  138OSM    HNF15016   4.364   3.468   6.511 -1.4614 -0.0874  0.3459
  138OSM    C2S15017   4.509   3.338   6.434  0.7319 -0.0621 -0.3384
  138OSM    H2S15018   4.561   3.262   6.496  0.3072 -1.1214 -1.2390
  138OSM    C3S15019   4.608   3.451   6.410 -0.1037  0.2392  0.9499
  138OSM    H3S15020   4.547   3.525   6.353  0.2782 -0.0945  0.0879
  138OSM     O315021   4.715   3.425   6.325 -0.6013  0.2200  0.6141
  138OSM    HO315022   4.684   3.363   6.258  0.6179 -1.3345  1.4637
  138OSM    C4S15023   4.653   3.507   6.544  0.5282  0.0215 -0.0683
  138OSM    H4S15024   4.704   3.433   6.607 -0.9255  0.2252  1.4032
  138OSM    C5S15025   4.638   3.633   6.590 -0.4739  0.6394 -0.6238
  138OSM    H5S15026   4.582   3.708   6.533  0.8978 -0.1559 -3.1636
  138OSM    C6S15027   4.693   3.687   6.725  0.1922  0.3929  0.3389
  138OSM    H6S15028   4.619   3.685   6.808  1.5714  3.0772  1.7490
  138OSM    H6T15029   4.726   3.792   6.712  2.1328 -0.0139  1.4756
  138OSM    C7S15030   4.817   3.608   6.768 -1.4732 -0.2683 -0.2489
  138OSM    H7S15031   4.880   3.600   6.676  1.1070 -2.9324  1.5685
  138OSM    H7T15032   4.793   3.508   6.810 -0.0493 -2.0319 -3.2630
  138OSM    C8S15033   4.907   3.678   6.872  0.0048 -0.2421  0.0791
  138OSM    H8S15034   4.949   3.777   6.843  2.2531 -1.0771  0.2826
  138OSM    H8T15035   4.999   3.620   6.896  0.9939  1.1259 -0.2478
  138OSM    C9S15036   4.832   3.688   7.004 -0.4624  0.1071  0.1474
  138OSM    H9S15037   4.773   3.595   7.020  0.2653 -0.1720  1.3310
  138OSM    H9T15038   4.758   3.771   7.006  1.5745  2.0080  0.9985
  138OSM   C10S15039   4.929   3.675   7.130 -0.2784  0.1497  0.0740
  138OSM   H10S15040   5.006   3.755   7.125  0.3064 -0.4287 -0.2153
  138OSM   H10T15041   4.979   3.577   7.117 -0.8433 -0.3466  1.4444
  138OSM   C11S15042   4.866   3.679   7.272 -0.3027 -0.0373 -0.2340
  138OSM   H11S15043   4.811   3.582   7.278  2.9552 -1.9691  1.1596
  138OSM   H11T15044   4.799   3.767   7.264 -1.1759 -0.4141  2.0700
  138OSM   C12S15045   4.962   3.700   7.392  0.1626  0.2385  0.9219
  138OSM   H12S15046   4.901   3.730   7.480  2.9221  0.2814  2.9704
  138OSM   H12T15047   5.030   3.780   7.356  1.4578 -1.7591 -1.3746
  138OSM   C13S15048   5.042   3.575   7.432 -0.2212  0.4545 -0.3921
  138OSM   H13S15049   5.106   3.534   7.350 -0.8851 -1.5932  0.0480
  138OSM   H13T15050   4.978   3.489   7.462  0.0591  0.0783 -0.8527
  138OSM   C14S15051   5.124   3.607   7.560 -0.1662 -0.0393  0.0879
  138OSM   H14S15052   5.159   3.712   7.554  0.8618 -0.4313 -1.2998
  138OSM   H14T15053   5.208   3.534   7.561 -1.6450 -1.8420 -0.2498
  138OSM   C15S15054   5.054   3.576   7.698  0.0901 -1.1018 -0.3150
  138OSM   H15S15055   5.024   3.469   7.698  0.4927 -1.2402 -1.8998
  138OSM   H15T15056   4.960   3.632   7.715  0.7627 -0.4666  1.5703
  138OSM   C16S15057   5.143   3.610   7.812 -0.1680 -0.2123  0.1940
  138OSM   H16S15058   5.183   3.710   7.789 -0.7517  0.5549  2.2811
  138OSM   H16T15059   5.224   3.534   7.809 -1.7110 -1.9107 -1.6153
  138OSM   C17S15060   5.073   3.607   7.946 -0.3808  0.8038  0.3461
  138OSM   H17S15061   5.007   3.522   7.970 -1.1896  1.9272  2.3857
  138OSM   H17T15062   4.998   3.689   7.948  0.8201  2.1456 -2.7538
  138OSM   C18S15063   5.159   3.629   8.067 -0.7358 -0.4411 -0.0498
  138OSM   H18S15064   5.102   3.622   8.162  1.9255 -0.9431  1.6187
  138OSM   H18T15065   5.214   3.726   8.066  0.2234 -0.9687 -0.9942
  138OSM   H18U15066   5.240   3.552   8.066 -1.0278 -0.7497 -0.1983
  138OSM    C1F15067   4.310   3.285   6.563  0.0604  0.2812 -0.0357
  138OSM     OF15068   4.356   3.172   6.586 -0.3013  0.3159  0.2994
  138OSM    C2F15069   4.169   3.326   6.580 -0.1967 -0.9388 -0.1206
  138OSM    H2F15070   4.101   3.295   6.498 -0.8122 -0.4144  0.1759
  138OSM    H2G15071   4.177   3.437   6.579  2.2370 -1.0365  1.2313
  138OSM    C3F15072   4.112   3.282   6.720  0.7444 -0.2815  0.0020
  138OSM    H3F15073   4.134   3.176   6.746 -1.1253 -0.5093  0.8152
  138OSM    H3G15074   4.002   3.282   6.706  0.3401  0.9837  2.5582
  138OSM    C4F15075   4.154   3.379   6.833  0.6339 -0.3269 -0.0111
  138OSM    H4F15076   4.138   3.484   6.801 -0.4235  0.0270  1.5559
  138OSM    H4G15077   4.263   3.380   6.852  0.3853  0.7668  1.5613
  138OSM    C5F15078   4.081   3.339   6.963 -0.6741  0.0341 -0.9899
  138OSM    H5F15079   4.153   3.278   7.021  0.4942  1.5301 -0.7825
  138OSM    H5G15080   3.992   3.276   6.945  1.0576 -2.0590 -2.8539
  138OSM    C6F15081   4.040   3.462   7.050 -0.3735 -0.1910 -0.3641
  138OSM    H6F15082   3.946   3.500   7.004 -1.7389 -1.0440  1.5789
  138OSM    H6G15083   4.116   3.543   7.047  1.1748 -1.6142 -1.5198
  138OSM    C7F15084   4.010   3.419   7.198 -0.7670  1.0472  0.3238
  138OSM    H7F15085   4.107   3.372   7.225 -0.9904  0.4484  0.1052
  138OSM    H7G15086   3.946   3.328   7.202  0.2125  0.2453 -1.2755
  138OSM    C8F15087   3.967   3.530   7.295  0.0099  0.1477  0.1359
  138OSM    H8F15088   3.923   3.473   7.379  1.4948 -0.8545  0.2728
  138OSM    H8G15089   3.882   3.591   7.255  1.9816  3.5955  0.7416
  138OSM    C9F15090   4.082   3.626   7.336  0.1970 -0.5215 -0.3679
  138OSM    H9F15091   4.119   3.681   7.248 -0.4425  1.7217  0.7156
  138OSM   C10F15092   4.138   3.650   7.460 -0.2804  0.2183 -0.1850
  138OSM   H10F15093   4.227   3.714   7.468 -0.2793  0.2707 -0.5837
  138OSM   C11F15094   4.108   3.584   7.590  0.0591 -0.5891  0.8084
  138OSM   H11F15095   4.163   3.488   7.589  1.7347  0.2995  2.5260
  138OSM   H11G15096   3.998   3.569   7.595 -0.0963  0.4978  0.8865
  138OSM   C12F15097   4.160   3.639   7.725  0.7620  0.1596  0.3354
  138OSM   H12F15098   4.115   3.740   7.734 -2.8996 -1.2503 -0.6253
  138OSM   H12G15099   4.268   3.657   7.705  0.4265  1.3275 -0.5485
  138OSM   C13F15100   4.115   3.553   7.846 -0.5793  0.5509 -0.5816
  138OSM   H13F15101   4.156   3.450   7.848  0.1964  0.8591  0.0155
  138OSM   H13G15102   4.006   3.573   7.847 -0.9565 -1.1126 -2.4600
  138OSM   C14F15103   4.177   3.626   7.977  0.0648 -0.0402  0.7362
  138OSM   H14F15104   4.170   3.732   7.946 -1.2789 -0.1147  0.6926
  138OSM   H14G15105   4.281   3.592   7.992 -0.2227 -1.9243 -1.0289
  138OSM   C15F15106   4.099   3.590   8.111  0.4506  0.0321 -0.0209
  138OSM   H15F15107   4.078   3.481   8.102  0.5160  0.0460 -0.3511
  138OSM   H15G15108   4.001   3.642   8.108  0.3862  0.0078  1.1973
  138OSM   C16F15109   4.172   3.633   8.234 -0.3911 -0.2382  0.2814
  138OSM   H16F15110   4.158   3.743   8.237  0.4918 -0.1375  1.0201
  138OSM   H16G15111   4.283   3.622   8.229 -0.4794 -0.4858 -2.0979
  138OSM   C17F15112   4.121   3.565   8.359  0.4954 -0.1932  0.1799
  138OSM   H17F15113   4.189   3.584   8.444 -0.2979  2.5532  0.3122
  138OSM   H17G15114   4.117   3.454   8.353 -1.5404 -0.2888  2.1655
  138OSM   C18F15115   3.983   3.616   8.398  0.9710  0.1940 -0.1008
  138OSM   H18F15116   3.903   3.632   8.322 -0.3326  1.3722  1.4413
  138OSM   H18G15117   3.979   3.713   8.453 -1.5299 -0.7774  1.6292
  138OSM   H18H15118   3.942   3.554   8.480 -1.3143  0.6937 -0.7874
  139OSM      N15119   3.176   3.848   6.132 -0.0195  0.1292  0.6880
  139OSM    C1515120   3.084   3.835   6.012  0.0342 -0.2350 -0.0049
  139OSM   H15A15121   2.979   3.853   6.030  0.4262  0.8929  1.2477
  139OSM   H15B15122   3.094   3.737   5.968 -0.1840  0.1741 -0.9963
  139OSM   H15C15123   3.118   3.899   5.932  0.4720  0.0557  0.4125
  139OSM    C1415124   3.165   3.982   6.189  0.2282 -0.0452  0.0353
  139OSM   H14A15125   3.209   4.059   6.127 -0.7764  0.6254  0.1196
  139OSM   H14B15126   3.216   3.982   6.284  2.4857 -0.5040 -1.1076
  139OSM   H14C15127   3.062   4.012   6.200  0.1406  0.0741 -0.9709
  139OSM    C1315128   3.116   3.748   6.235 -0.0839  0.5563  0.1953
  139OSM   H13A15129   3.024   3.795   6.267 -0.2060  1.9116 -1.9683
  139OSM   H13B15130   3.187   3.745   6.316  0.1332  1.6739  0.0616
  139OSM   H13C15131   3.110   3.648   6.193 -0.5106  1.2804 -1.5542
  139OSM    C1215132   3.315   3.812   6.096 -0.2141 -0.0769  0.2481
  139OSM   H12A15133   3.360   3.874   6.020  2.1645 -1.3938  0.4942
  139OSM   H12B15134   3.323   3.713   6.052  0.3925 -0.7227  1.7439
  139OSM    C1115135   3.419   3.817   6.213 -0.1434  0.5064 -0.7436
  139OSM   H11A15136   3.384   3.918   6.244 -3.9218 -0.2968 -1.8239
  139OSM   H11B15137   3.524   3.815   6.177 -0.6600 -1.3939 -2.3626
  139OSM      P15138   3.434   3.586   6.334  0.1834  0.0256 -0.1314
  139OSM    O1315139   3.385   3.512   6.219 -0.0280 -0.5999  0.9811
  139OSM    O1415140   3.579   3.581   6.352 -0.6626 -0.1152 -0.4072
  139OSM    O1115141   3.369   3.527   6.462 -0.2638 -0.3054 -0.6441
  139OSM    O1215142   3.382   3.738   6.326 -0.3923  0.1538 -0.1218
  139OSM    C1S15143   3.346   3.618   6.572  1.1736 -0.3309  0.0598
  139OSM    H1S15144   3.252   3.669   6.542  0.4721 -1.6820 -0.1032
  139OSM    H1T15145   3.429   3.690   6.590  0.1040  0.2666  3.3705
  139OSM     NF15146   3.289   3.637   6.797 -0.0049  0.7668 -0.6768
  139OSM    HNF15147   3.360   3.677   6.856 -1.3740 -0.3439  1.8828
  139OSM    C2S15148   3.322   3.536   6.700  0.1905 -0.1450  0.9104
  139OSM    H2S15149   3.237   3.467   6.686 -1.2679  1.7690 -0.2569
  139OSM    C3S15150   3.447   3.448   6.732  0.1497 -0.5181  0.5808
  139OSM    H3S15151   3.542   3.505   6.742  1.4826 -2.7649  1.4548
  139OSM     O315152   3.481   3.352   6.634  0.1763  0.2592  0.5988
  139OSM    HO315153   3.418   3.374   6.565  0.2628 -2.5691 -0.5021
  139OSM    C4S15154   3.422   3.390   6.869 -0.4549 -0.1693  0.2894
  139OSM    H4S15155   3.431   3.465   6.949  0.5693 -0.2060  0.2204
  139OSM    C5S15156   3.416   3.259   6.911 -0.0159 -0.1725 -0.6385
  139OSM    H5S15157   3.440   3.178   6.840  1.8632 -0.1631 -0.0586
  139OSM    C6S15158   3.396   3.213   7.049 -0.0132  0.1722  0.2873
  139OSM    H6S15159   3.487   3.160   7.083 -0.5325 -0.8141  0.1860
  139OSM    H6T15160   3.317   3.135   7.041 -0.5144  0.7745 -0.9987
  139OSM    C7S15161   3.347   3.319   7.151  0.2619 -0.0962  0.3579
  139OSM    H7S15162   3.242   3.344   7.127  0.7192 -0.2541 -2.0658
  139OSM    H7T15163   3.414   3.407   7.136 -2.3037  1.5612 -2.5173
  139OSM    C8S15164   3.366   3.270   7.299 -0.6775  0.5951  0.3409
  139OSM    H8S15165   3.473   3.260   7.324 -0.0660  2.9246 -0.9871
  139OSM    H8T15166   3.318   3.170   7.296  0.2098  0.1320 -3.1195
  139OSM    C9S15167   3.291   3.357   7.396  0.5462 -0.1946 -0.2299
  139OSM    H9S15168   3.181   3.343   7.392  0.4904 -1.4376  2.8983
  139OSM    H9T15169   3.319   3.462   7.372 -0.9986  0.2595 -0.1532
  139OSM   C10S15170   3.331   3.327   7.550  0.0841 -0.4293 -0.2254
  139OSM   H10S15171   3.440   3.346   7.567 -0.4360  3.3708 -0.2664
  139OSM   H10T15172   3.310   3.219   7.562 -1.6643 -0.4912 -3.0563
  139OSM   C11S15173   3.246   3.406   7.644 -0.1955  0.6660 -0.1682
  139OSM   H11S15174   3.148   3.406   7.592  0.5369  0.2149 -1.6041
  139OSM   H11T15175   3.274   3.513   7.652 -0.1798  0.8029 -1.7748
  139OSM   C12S15176   3.228   3.347   7.785  0.3052 -0.5747 -0.7662
  139OSM   H12S15177   3.332   3.317   7.812  0.1912  1.2006  1.9992
  139OSM   H12T15178   3.168   3.255   7.771  0.7859 -0.9708 -0.3066
  139OSM   C13S15179   3.172   3.456   7.882  0.3067  0.2272  0.0292
  139OSM   H13S15180   3.071   3.484   7.846  0.4661  0.6876 -0.0665
  139OSM   H13T15181   3.240   3.543   7.886 -0.8586  1.1789 -0.3780
  139OSM   C14S15182   3.161   3.408   8.028 -0.5672  0.3265  0.2975
  139OSM   H14S15183   3.261   3.408   8.075 -0.1983 -2.1186 -0.3489
  139OSM   H14T15184   3.139   3.299   8.039  0.4194  0.1348  0.4764
  139OSM   C15S15185   3.055   3.497   8.100  0.7513  0.6424  0.0654
  139OSM   H15S15186   2.951   3.479   8.064  0.1233  1.1231  1.5592
  139OSM   H15T15187   3.084   3.602   8.080  0.8950  0.6876  0.5187
  139OSM   C16S15188   3.064   3.490   8.254  0.7970  1.2946 -0.1936
  139OSM   H16S15189   3.002   3.569   8.302  1.9932  0.9083  2.1319
  139OSM   H16T15190   3.167   3.497   8.295  0.5678 -1.2836  1.0164
  139OSM   C17S15191   2.995   3.361   8.307  0.6390 -0.6842 -0.7622
  139OSM   H17S15192   3.043   3.272   8.261  1.5232 -1.6427  1.8072
  139OSM   H17T15193   2.891   3.375   8.272  0.5479 -1.1810 -0.6903
  139OSM   C18S15194   2.995   3.343   8.459 -0.1178 -0.1727  0.3892
  139OSM   H18S15195   3.088   3.288   8.485  1.1553  1.2216 -1.0251
  139OSM   H18T15196   2.913   3.271   8.483 -1.7861  1.6994  0.5547
  139OSM   H18U15197   2.995   3.430   8.528 -1.8701  0.9618 -0.9648
  139OSM    C1F15198   3.168   3.692   6.809  0.0660 -0.5364  0.1094
  139OSM     OF15199   3.080   3.675   6.726 -0.2328  0.0006 -0.3642
  139OSM    C2F15200   3.148   3.768   6.934 -0.0186  0.0428  0.1002
  139OSM    H2F15201   3.189   3.870   6.919 -0.1688  0.1611  0.4871
  139OSM    H2G15202   3.208   3.713   7.010  1.0830  0.6636 -0.2895
  139OSM    C3F15203   2.997   3.773   6.965 -0.1048  0.2456 -0.3770
  139OSM    H3F15204   2.962   3.668   6.974  0.3071  0.0532 -0.9231
  139OSM    H3G15205   2.939   3.822   6.884  0.8300  2.6707  0.3221
  139OSM    C4F15206   2.964   3.827   7.106  0.1789  0.3586  0.0772
  139OSM    H4F15207   2.971   3.938   7.104 -1.3098  0.4776 -0.7307
  139OSM    H4G15208   3.049   3.782   7.161  1.2099  0.7791 -1.1231
  139OSM    C5F15209   2.835   3.777   7.172  0.3693 -0.8828 -0.1957
  139OSM    H5F15210   2.835   3.666   7.163 -1.0816 -1.1747  2.4736
  139OSM    H5G15211   2.750   3.814   7.110 -1.6039 -2.0418  1.6981
  139OSM    C6F15212   2.818   3.836   7.312 -0.1672 -0.0250 -0.7281
  139OSM    H6F15213   2.806   3.946   7.314 -0.2066 -0.0167  1.2876
  139OSM    H6G15214   2.913   3.810   7.364 -1.3490 -2.6618  0.3353
  139OSM    C7F15215   2.701   3.778   7.386 -0.7094 -0.0540  0.3414
  139OSM    H7F15216   2.612   3.773   7.320  0.7707 -0.0870 -1.7506
  139OSM    H7G15217   2.686   3.853   7.467 -1.2658  0.0543  0.1446
  139OSM    C8F15218   2.744   3.652   7.456  0.1412  0.0573  0.0834
  139OSM    H8F15219   2.848   3.674   7.486  0.5762  1.1626 -2.0378
  139OSM    H8G15220   2.743   3.567   7.384 -2.0657 -0.9060  1.1321
  139OSM    C9F15221   2.659   3.624   7.579 -0.1174  0.2127 -0.2646
  139OSM    H9F15222   2.570   3.560   7.572  0.7438 -1.2203  1.3394
  139OSM   C10F15223   2.687   3.672   7.702 -0.5152  0.3117 -0.2728
  139OSM   H10F15224   2.615   3.637   7.778  1.2832 -0.7036  1.0438
  139OSM   C11F15225   2.810   3.752   7.742  0.0389  0.0471 -1.2204
  139OSM   H11F15226   2.797   3.861   7.726 -1.6210  0.5953  2.7494
  139OSM   H11G15227   2.901   3.719   7.687 -0.4872 -1.5763 -1.1540
  139OSM   C12F15228   2.859   3.742   7.885  0.9175 -0.3353 -0.4255
  139OSM   H12F15229   2.947   3.807   7.902  0.4041  0.1249  0.5563
  139OSM   H12G15230   2.872   3.633   7.901 -1.0542 -0.4327  0.9143
  139OSM   C13F15231   2.763   3.808   7.987  0.4349 -0.7696 -0.1506
  139OSM   H13F15232   2.666   3.758   7.967  0.0982  0.0528 -0.6127
  139OSM   H13G15233   2.741   3.915   7.968 -3.9536 -1.6429 -0.8917
  139OSM   C14F15234   2.806   3.770   8.129  0.1574  0.2665 -0.8008
  139OSM   H14F15235   2.883   3.832   8.180 -1.2997  0.4458  1.3237
  139OSM   H14G15236   2.847   3.666   8.134  0.1921  0.3251  0.3228
  139OSM   C15F15237   2.683   3.789   8.224 -0.2428  0.2962  0.3101
  139OSM   H15F15238   2.702   3.756   8.328  0.3361 -1.9895 -0.4745
  139OSM   H15G15239   2.601   3.725   8.185  0.1667  0.2895 -0.5738
  139OSM   C16F15240   2.640   3.941   8.228  0.2766  0.1413  0.0442
  139OSM   H16F15241   2.579   3.971   8.141 -0.5346  1.4379  1.0141
  139OSM   H16G15242   2.724   4.013   8.235  1.0587 -0.8686  2.1280
  139OSM   C17F15243   2.549   3.969   8.352 -0.3771  0.0856 -0.5192
  139OSM   H17F15244   2.606   3.921   8.435 -1.2033  0.2585  0.1578
  139OSM   H17G15245   2.447   3.927   8.342  0.5727 -1.9144 -2.7607
  139OSM   C18F15246   2.543   4.123   8.385 -0.4666  0.3610  0.7963
  139OSM   H18F15247   2.646   4.163   8.377  0.1083 -0.9240  1.4364
  139OSM   H18G15248   2.508   4.147   8.488 -0.2449  4.7849  0.0289
  139OSM   H18H15249   2.474   4.171   8.313 -0.1898 -0.0343  0.2592
  140OSM      N15250   2.971   5.294   5.898 -0.3349 -0.4704 -0.9461
  140OSM    C1515251   2.838   5.238   5.928 -0.1452 -0.5092  0.3911
  140OSM   H15A15252   2.807   5.256   6.030 -3.3172 -1.9188 -0.1858
  140OSM   H15B15253   2.834   5.132   5.909  0.9302 -0.3380 -0.9492
  140OSM   H15C15254   2.754   5.292   5.887  0.8458  0.0126 -0.9993
  140OSM    C1415255   2.995   5.277   5.750 -0.1883 -0.4752  1.2224
  140OSM   H14A15256   3.036   5.182   5.717  1.0711  0.6496 -0.6968
  140OSM   H14B15257   3.055   5.357   5.710 -0.6699 -0.4712  0.4888
  140OSM   H14C15258   2.904   5.292   5.694 -0.4952  0.2327  1.9041
  140OSM    C1315259   2.985   5.439   5.940 -0.8768 -0.2204  0.0970
  140OSM   H13A15260   3.012   5.440   6.045 -0.1859 -2.8491  0.0152
  140OSM   H13B15261   2.893   5.495   5.929  0.2581  2.2195  1.9699
  140OSM   H13C15262   3.068   5.488   5.890 -1.2633 -0.6567 -0.9929
  140OSM    C1215263   3.075   5.210   5.977 -0.9088  0.1618 -0.5948
  140OSM   H12A15264   3.171   5.245   5.942 -0.6974 -2.1022 -2.5670
  140OSM   H12B15265   3.069   5.103   5.960  2.2400 -0.4392  1.3874
  140OSM    C1115266   3.055   5.227   6.135  0.2249  0.1810 -0.2321
  140OSM   H11A15267   3.102   5.140   6.186  1.9320  0.2457 -1.5640
  140OSM   H11B15268   2.947   5.227   6.159  0.4433 -1.7181  0.8903
  140OSM      P15269   3.252   5.369   6.229 -0.0966 -0.1416  0.1407
  140OSM    O1315270   3.349   5.308   6.132 -0.6391 -0.2619  0.0427
  140OSM    O1415271   3.274   5.511   6.268 -0.6421  0.0744  0.4461
  140OSM    O1115272   3.251   5.294   6.362 -0.3715 -0.2013 -0.8995
  140OSM    O1215273   3.106   5.347   6.181  1.0052 -0.1010  0.7672
  140OSM    C1S15274   3.311   5.351   6.481 -0.4464  0.5243  0.3521
  140OSM    H1S15275   3.257   5.443   6.512  0.0461  0.8973  0.1151
  140OSM    H1T15276   3.420   5.373   6.489 -0.6345  1.1525  1.5089
  140OSM     NF15277   3.377   5.322   6.715 -0.0972 -1.2685 -0.0429
  140OSM    HNF15278   3.473   5.298   6.710  0.4444  0.7620 -0.3137
  140OSM    C2S15279   3.310   5.252   6.606  0.0737 -0.5060 -0.2574
  140OSM    H2S15280   3.203   5.231   6.629 -0.7231 -0.1155 -3.1359
  140OSM    C3S15281   3.375   5.111   6.572 -0.6776  0.0193 -0.1542
  140OSM    H3S15282   3.485   5.124   6.567 -0.6591  0.7123  1.4861
  140OSM     O315283   3.343   5.052   6.452 -0.1312 -0.2309  0.0329
  140OSM    HO315284   3.284   5.117   6.412  3.7306  3.3157 -0.6553
  140OSM    C4S15285   3.346   5.020   6.686 -0.0479 -0.0753 -1.0065
  140OSM    H4S15286   3.241   4.989   6.697 -0.6500  2.3088  0.7774
  140OSM    C5S15287   3.436   4.964   6.773 -0.1620  0.2681  0.8574
  140OSM    H5S15288   3.544   4.981   6.767 -0.0145 -0.4586  1.3490
  140OSM    C6S15289   3.387   4.873   6.879 -0.2267  0.5207 -0.1193
  140OSM    H6S15290   3.399   4.764   6.860 -1.9593  0.1459  0.7070
  140OSM    H6T15291   3.281   4.901   6.898  0.5307  2.9011  0.8445
  140OSM    C7S15292   3.472   4.912   7.004  0.8876  0.1032 -0.3493
  140OSM    H7S15293   3.435   5.012   7.034 -0.7833 -0.4157 -0.5466
  140OSM    H7T15294   3.582   4.915   6.990  1.1328 -0.0887  1.3659
  140OSM    C8S15295   3.447   4.817   7.127  0.1010  0.1874  0.2694
  140OSM    H8S15296   3.470   4.711   7.104 -0.4971  0.4000 -1.5240
  140OSM    H8T15297   3.337   4.825   7.139  0.3110  1.0724  1.7807
  140OSM    C9S15298   3.518   4.853   7.260 -0.1270 -0.5186  0.1467
  140OSM    H9S15299   3.484   4.956   7.284 -3.1390 -1.5268  0.6180
  140OSM    H9T15300   3.629   4.850   7.254 -0.1366 -0.2475 -0.2102
  140OSM   C10S15301   3.475   4.757   7.381  0.1959  0.0734 -0.0443
  140OSM   H10S15302   3.535   4.778   7.472  1.0522 -1.3894 -0.2307
  140OSM   H10T15303   3.512   4.655   7.355 -0.2936  0.1301 -1.0247
  140OSM   C11S15304   3.321   4.747   7.402 -0.1900  0.0948 -0.1343
  140OSM   H11S15305   3.272   4.661   7.352 -1.4944 -0.4368  1.9502
  140OSM   H11T15306   3.283   4.836   7.348 -2.0636 -1.0572 -0.8336
  140OSM   C12S15307   3.281   4.751   7.549  0.7099 -0.0212 -0.3817
  140OSM   H12S15308   3.329   4.841   7.592 -0.5519  0.1102  0.7921
  140OSM   H12T15309   3.330   4.663   7.596  0.8120 -0.6847 -1.6807
  140OSM   C13S15310   3.130   4.760   7.574  0.2789  0.4955  0.8671
  140OSM   H13S15311   3.076   4.685   7.512  2.5036 -0.0476 -0.5145
  140OSM   H13T15312   3.108   4.861   7.534  1.5178  0.9525  1.2761
  140OSM   C14S15313   3.085   4.768   7.723  0.0076 -0.0120  1.1986
  140OSM   H14S15314   2.974   4.773   7.725 -0.0718 -1.5320  2.8524
  140OSM   H14T15315   3.132   4.859   7.766  1.6373 -0.5026  0.5499
  140OSM   C15S15316   3.127   4.637   7.797  0.1175 -0.2293  0.2245
  140OSM   H15S15317   3.224   4.659   7.847 -0.3790  0.7092  0.8119
  140OSM   H15T15318   3.142   4.562   7.717  0.9668 -0.5941  0.7027
  140OSM   C16S15319   3.041   4.593   7.917  0.5661 -0.3663 -1.5367
  140OSM   H16S15320   2.944   4.556   7.878  0.5666 -1.7167 -0.3186
  140OSM   H16T15321   3.021   4.684   7.978 -1.4873 -0.9181 -1.3490
  140OSM   C17S15322   3.104   4.477   7.998 -0.9774 -0.0849  0.3211
  140OSM   H17S15323   3.166   4.420   7.926  2.9199  0.4259  2.9847
  140OSM   H17T15324   3.019   4.420   8.041 -0.9309  0.7749  1.5966
  140OSM   C18S15325   3.203   4.520   8.103 -0.3337  0.3233  0.1114
  140OSM   H18S15326   3.263   4.432   8.133 -0.4581 -0.0122 -0.6013
  140OSM   H18T15327   3.153   4.577   8.184 -0.2547  1.4743 -0.6220
  140OSM   H18U15328   3.278   4.589   8.059  0.9140 -0.5304  0.8475
  140OSM    C1F15329   3.328   5.437   6.762 -0.6559  0.1927  0.1044
  140OSM     OF15330   3.206   5.453   6.773 -0.7067  0.0858  0.6061
  140OSM    C2F15331   3.424   5.540   6.805 -0.8092 -0.4186  0.0885
  140OSM    H2F15332   3.422   5.620   6.728  2.4148  1.6794  1.9305
  140OSM    H2G15333   3.527   5.498   6.807  0.1975  1.9347  0.6945
  140OSM    C3F15334   3.391   5.592   6.948 -0.4780  0.3831  0.1947
  140OSM    H3F15335   3.411   5.507   7.016 -0.8922  1.2986  1.5131
  140OSM    H3G15336   3.281   5.605   6.959 -0.6435  1.0961 -1.8502
  140OSM    C4F15337   3.477   5.707   6.999 -0.4813  0.4081 -0.2004
  140OSM    H4F15338   3.466   5.794   6.931 -1.9848 -0.6853 -1.4303
  140OSM    H4G15339   3.584   5.679   6.989 -0.1122  2.3775 -2.9216
  140OSM    C5F15340   3.439   5.753   7.136 -0.3906 -0.0937  0.4600
  140OSM    H5F15341   3.330   5.749   7.156 -0.5258  1.1865  0.0893
  140OSM    H5G15342   3.472   5.859   7.134  1.7998 -0.7020  1.0730
  140OSM    C6F15343   3.510   5.674   7.253  0.0705 -0.4558 -0.2934
  140OSM    H6F15344   3.620   5.688   7.260  0.1136 -0.0056 -1.5410
  140OSM    H6G15345   3.501   5.565   7.234  1.3505 -0.5007 -0.7438
  140OSM    C7F15346   3.446   5.710   7.383 -0.1758  0.3397  0.4664
  140OSM    H7F15347   3.349   5.656   7.376  0.4509 -0.8973  1.0980
  140OSM    H7G15348   3.433   5.820   7.396  0.6773  0.3449  1.3153
  140OSM    C8F15349   3.508   5.648   7.509 -0.2474  0.0322  0.2655
  140OSM    H8F15350   3.612   5.689   7.515 -0.3913  0.2168  2.2926
  140OSM    H8G15351   3.529   5.539   7.496  1.2345  0.3135  0.0526
  140OSM    C9F15352   3.423   5.672   7.634  0.8189  0.6482  0.7023
  140OSM    H9F15353   3.315   5.661   7.619  0.5803  3.2127  0.2337
  140OSM   C10F15354   3.465   5.697   7.759  0.0178  0.7757  0.4809
  140OSM   H10F15355   3.388   5.718   7.835  2.1078  0.6093  2.7409
  140OSM   C11F15356   3.613   5.707   7.801  0.2463 -0.1170 -0.1670
  140OSM   H11F15357   3.629   5.798   7.863  0.5385  0.6044 -1.2706
  140OSM   H11G15358   3.680   5.728   7.715  2.5037 -1.2751  1.2076
  140OSM   C12F15359   3.668   5.578   7.865  0.0327 -0.0226  0.7909
  140OSM   H12F15360   3.631   5.492   7.805  3.0854  0.0606 -1.5021
  140OSM   H12G15361   3.630   5.575   7.969 -0.6339  0.5330  0.5672
  140OSM   C13F15362   3.820   5.567   7.871  0.6044 -0.7252 -1.0964
  140OSM   H13F15363   3.857   5.640   7.946  1.0020 -1.2413 -0.7929
  140OSM   H13G15364   3.855   5.608   7.774 -2.8136  2.5206 -1.2114
  140OSM   C14F15365   3.860   5.422   7.899 -0.4160  0.0538  0.0582
  140OSM   H14F15366   3.971   5.416   7.898 -0.3276  0.4497 -3.2226
  140OSM   H14G15367   3.826   5.350   7.821 -1.8276  0.9084 -0.1522
  140OSM   C15F15368   3.819   5.361   8.042  0.5631 -0.3335 -0.1131
  140OSM   H15F15369   3.708   5.359   8.048  0.5287 -0.2094 -0.7074
  140OSM   H15G15370   3.867   5.425   8.119  2.9012 -0.9399 -0.9822
  140OSM   C16F15371   3.870   5.224   8.068  0.4428 -0.0553 -0.7570
  140OSM   H16F15372   3.980   5.219   8.059  0.6149  1.7343  0.0237
  140OSM   H16G15373   3.826   5.138   8.013  0.5306  0.0008 -0.9146
  140OSM   C17F15374   3.840   5.184   8.215  0.5008 -0.1203 -0.0851
  140OSM   H17F15375   3.731   5.175   8.231  0.4151 -0.0935 -0.6526
  140OSM   H17G15376   3.877   5.258   8.290 -0.0521 -1.0711  1.1684
  140OSM   C18F15377   3.901   5.049   8.253 -0.1704  0.8994 -0.6855
  140OSM   H18F15378   3.892   5.039   8.363  1.2433  1.4167 -0.4964
  140OSM   H18G15379   4.011   5.045   8.234 -0.2430 -3.1079 -1.2303
  140OSM   H18H15380   3.836   4.973   8.205  1.1900 -0.6354 -0.1985
  141OSM      N15381   3.260   0.928   6.081 -0.4153  0.4925 -0.2063
  141OSM    C1515382   3.243   0.952   5.934 -0.1313  0.4199  0.2078
  141OSM   H15A15383   3.334   0.985   5.886  0.1763 -0.0365  0.4662
  141OSM   H15B15384   3.152   1.002   5.907 -0.2819 -0.6466 -1.3840
  141OSM   H15C15385   3.230   0.857   5.883 -1.9012  0.2700  0.8650
  141OSM    C1415386   3.405   0.875   6.099 -0.3557 -0.0850 -0.6161
  141OSM   H14A15387   3.411   0.845   6.203  0.3340  0.9681 -0.3347
  141OSM   H14B15388   3.479   0.951   6.077 -1.6148  1.4439  0.2208
  141OSM   H14C15389   3.428   0.789   6.038 -0.7832 -0.9035  0.3491
  141OSM    C1315390   3.245   1.060   6.153 -0.3323  0.3636 -0.2008
  141OSM   H13A15391   3.327   1.075   6.221 -1.3143  2.9616  0.5205
  141OSM   H13B15392   3.147   1.059   6.199  0.9647  0.6458  2.7840
  141OSM   H13C15393   3.257   1.144   6.086  0.7943  1.3350  1.1582
  141OSM    C1215394   3.163   0.816   6.129  0.3354  0.0335  0.2632
  141OSM   H12A15395   3.182   0.731   6.066 -1.5423 -1.3036  1.3773
  141OSM   H12B15396   3.061   0.831   6.095  0.2822 -0.0405  0.3880
  141OSM    C1115397   3.158   0.780   6.277  0.2867 -0.7272 -0.1688
  141OSM   H11A15398   3.261   0.764   6.317  0.3474  2.3676  1.1554
  141OSM   H11B15399   3.102   0.685   6.290 -1.8898  0.1175 -2.5279
  141OSM      P15400   2.935   0.915   6.320 -0.1556  0.0554 -0.0189
  141OSM    O1315401   2.955   1.045   6.250 -0.3380  0.3541 -0.3742
  141OSM    O1415402   2.854   0.814   6.243 -0.3646 -0.3339  0.3135
  141OSM    O1115403   2.860   0.940   6.465 -0.0201 -0.3900 -0.2072
  141OSM    O1215404   3.085   0.868   6.362  0.1084  0.7859 -0.4876
  141OSM    C1S15405   2.914   0.899   6.586  0.0455  0.1235  0.8219
  141OSM    H1S15406   3.006   0.959   6.595  0.9114 -0.7845 -1.1700
  141OSM    H1T15407   2.941   0.792   6.572  0.3909  0.4905 -1.8761
  141OSM     NF15408   2.900   0.886   6.831  0.1499  0.0726 -0.3082
  141OSM    HNF15409   2.869   0.811   6.888 -1.7563  0.7858 -0.3568
  141OSM    C2S15410   2.825   0.918   6.709  0.5094  0.4551 -0.4391
  141OSM    H2S15411   2.785   1.021   6.715  0.5446  0.4413  0.1388
  141OSM    C3S15412   2.696   0.828   6.686  0.4550  0.0188 -0.0970
  141OSM    H3S15413   2.724   0.720   6.695 -0.2753 -0.0809  1.2501
  141OSM     O315414   2.640   0.838   6.554  0.3477  0.0029  0.1430
  141OSM    HO315415   2.695   0.910   6.522  0.1164 -0.2040 -0.7635
  141OSM    C4S15416   2.592   0.861   6.791  0.2091  0.1984  0.0748
  141OSM    H4S15417   2.604   0.804   6.884 -2.2379 -0.6920 -0.0759
  141OSM    C5S15418   2.494   0.948   6.788  0.3315  0.1713 -0.1055
  141OSM    H5S15419   2.480   1.000   6.693  1.4865  0.9830  0.1422
  141OSM    C6S15420   2.398   0.972   6.907 -0.5263 -0.1043 -0.0854
  141OSM    H6S15421   2.301   0.947   6.858 -0.0255  0.3008 -1.3098
  141OSM    H6T15422   2.398   1.080   6.931 -2.4866 -0.1922  0.5071
  141OSM    C7S15423   2.426   0.898   7.038 -0.0192  0.2533 -0.3434
  141OSM    H7S15424   2.520   0.944   7.074  1.1607 -3.0477  1.2611
  141OSM    H7T15425   2.437   0.788   7.021 -0.4369  0.1751 -0.1271
  141OSM    C8S15426   2.309   0.911   7.142  0.1878  0.2847  0.0870
  141OSM    H8S15427   2.212   0.876   7.101  1.5600 -0.5147 -2.6809
  141OSM    H8T15428   2.295   1.021   7.151 -0.4397  0.1447  1.0531
  141OSM    C9S15429   2.344   0.853   7.273 -0.2489 -0.2763  0.1445
  141OSM    H9S15430   2.436   0.891   7.324 -0.2984  1.5256 -1.0316
  141OSM    H9T15431   2.370   0.748   7.246  2.4696  0.5511 -0.8024
  141OSM   C10S15432   2.223   0.855   7.365  0.0998  1.0292 -0.4639
  141OSM   H10S15433   2.150   0.786   7.318  1.1443 -0.4906  0.0735
  141OSM   H10T15434   2.177   0.956   7.367  0.2755  1.1116  1.5263
  141OSM   C11S15435   2.253   0.824   7.516 -0.1383 -0.4497  0.5258
  141OSM   H11S15436   2.342   0.879   7.553  0.7996 -1.9726  0.6101
  141OSM   H11T15437   2.278   0.716   7.512  1.9613 -0.0944  2.0540
  141OSM   C12S15438   2.137   0.858   7.609  1.1652 -0.0312 -0.4291
  141OSM   H12S15439   2.043   0.808   7.576  0.9747 -0.3826  0.6120
  141OSM   H12T15440   2.125   0.968   7.602  1.6110 -0.0705 -2.2836
  141OSM   C13S15441   2.164   0.842   7.760  0.2340  0.0683 -0.1442
  141OSM   H13S15442   2.258   0.902   7.766 -1.2427  2.5338 -0.4294
  141OSM   H13T15443   2.177   0.735   7.785  2.9996  0.6698  1.4530
  141OSM   C14S15444   2.056   0.904   7.847 -0.4536 -0.2176 -0.1182
  141OSM   H14S15445   1.969   0.837   7.860  0.5324 -1.8757 -1.5105
  141OSM   H14T15446   2.017   1.003   7.816  0.9416  0.9387  1.5833
  141OSM   C15S15447   2.119   0.949   7.984  0.3198  0.5243  0.4952
  141OSM   H15S15448   2.195   1.027   7.962  1.4663 -1.5772 -4.0619
  141OSM   H15T15449   2.163   0.857   8.028  0.2105 -0.1154 -0.7177
  141OSM   C16S15450   2.008   1.014   8.079  0.0690  0.4653  0.2258
  141OSM   H16S15451   2.049   1.009   8.183 -0.9444  1.4639  0.6924
  141OSM   H16T15452   1.918   0.949   8.077  1.6981 -2.0114  1.4836
  141OSM   C17S15453   1.972   1.156   8.032 -0.1253 -0.2662  0.3519
  141OSM   H17S15454   1.926   1.150   7.931 -0.5538 -0.6962  0.5683
  141OSM   H17T15455   2.073   1.196   8.008  1.2292 -3.5488 -0.0006
  141OSM   C18S15456   1.898   1.226   8.143 -0.7011 -0.4735 -0.0454
  141OSM   H18S15457   1.969   1.251   8.224  1.6129 -1.0437 -1.8089
  141OSM   H18T15458   1.818   1.157   8.179  1.0313 -2.6155 -0.1032
  141OSM   H18U15459   1.861   1.317   8.092 -0.1239 -0.8458 -1.1475
  141OSM    C1F15460   2.976   0.991   6.877 -0.5713 -0.7265  0.1593
  141OSM     OF15461   2.970   1.105   6.823 -0.3076  0.4755 -0.1865
  141OSM    C2F15462   3.069   0.968   6.993 -0.3770  0.1079  0.2653
  141OSM    H2F15463   3.172   0.942   6.959 -0.5553 -2.1599  1.3215
  141OSM    H2G15464   3.041   0.875   7.047 -0.5391 -0.4958 -0.8187
  141OSM    C3F15465   3.069   1.087   7.094  0.4368  0.1962 -0.2591
  141OSM    H3F15466   2.964   1.114   7.117  0.4915 -1.2923  2.0280
  141OSM    H3G15467   3.114   1.178   7.049 -0.5056  0.4655 -0.6798
  141OSM    C4F15468   3.138   1.057   7.222 -0.9085  0.2406  0.2793
  141OSM    H4F15469   3.170   1.151   7.274 -1.2551 -0.2680  1.4506
  141OSM    H4G15470   3.235   1.007   7.202 -0.8307  0.8213 -0.8835
  141OSM    C5F15471   3.049   0.976   7.323 -0.2240  0.2791  0.3265
  141OSM    H5F15472   3.037   0.879   7.271  0.9034  0.1313  0.3264
  141OSM    H5G15473   2.966   1.050   7.327 -1.3593 -0.5432 -3.5346
  141OSM    C6F15474   3.107   0.961   7.464  0.0903 -0.3022 -0.4212
  141OSM    H6F15475   3.106   1.057   7.519 -1.7673 -0.0444 -0.8097
  141OSM    H6G15476   3.215   0.936   7.460  1.3551  4.2704 -0.2732
  141OSM    C7F15477   3.037   0.849   7.550 -0.8453  0.0857 -0.1443
  141OSM    H7F15478   3.025   0.760   7.485 -0.4984 -1.7414  2.1729
  141OSM    H7G15479   2.941   0.883   7.593  0.1132  2.7457  0.0845
  141OSM    C8F15480   3.126   0.814   7.679  0.1734  0.1554  0.0291
  141OSM    H8F15481   3.224   0.780   7.639 -0.2416  0.1959 -1.0396
  141OSM    H8G15482   3.076   0.719   7.710  0.3647  0.8239  2.6470
  141OSM    C9F15483   3.144   0.915   7.786 -0.2843 -0.2561  0.2483
  141OSM    H9F15484   3.149   1.020   7.751  3.9481 -0.0833  0.8652
  141OSM   C10F15485   3.131   0.898   7.915 -1.2774 -0.0155 -0.5365
  141OSM   H10F15486   3.135   0.978   7.991 -1.1035 -0.1459 -0.4066
  141OSM   C11F15487   3.123   0.768   7.986  0.4076  0.1994  0.2350
  141OSM   H11F15488   3.062   0.688   7.940  1.9653 -1.6285  1.1966
  141OSM   H11G15489   3.066   0.770   8.081 -0.1772 -1.2828 -0.0539
  141OSM   C12F15490   3.261   0.708   8.020  0.8919  0.5218  0.0591
  141OSM   H12F15491   3.338   0.788   8.030  1.3285  0.0848  0.2047
  141OSM   H12G15492   3.279   0.648   7.928 -3.6547  0.9281 -1.3465
  141OSM   C13F15493   3.252   0.624   8.145  1.0355  0.0103  0.0370
  141OSM   H13F15494   3.168   0.551   8.142  2.4363 -1.7002  0.5500
  141OSM   H13G15495   3.211   0.681   8.231 -3.4525  0.1496 -1.9098
  141OSM   C14F15496   3.375   0.552   8.192  0.2925 -0.2330 -0.3174
  141OSM   H14F15497   3.438   0.632   8.236  2.0174 -1.4601 -0.4806
  141OSM   H14G15498   3.436   0.502   8.113  1.4805  0.5496  0.0769
  141OSM   C15F15499   3.341   0.448   8.300 -0.0941 -0.4847  0.2250
  141OSM   H15F15500   3.307   0.358   8.244  0.8822 -0.7889  0.1120
  141OSM   H15G15501   3.259   0.480   8.369  0.0597  1.0241 -0.2786
  141OSM   C16F15502   3.468   0.415   8.389  0.6220 -0.3016  0.1097
  141OSM   H16F15503   3.512   0.493   8.454  0.1016  0.3511 -0.3027
  141OSM   H16G15504   3.555   0.391   8.324  0.4710 -2.4294  0.6252
  141OSM   C17F15505   3.436   0.292   8.480  0.3129  0.2453  0.0368
  141OSM   H17F15506   3.520   0.249   8.538 -0.3147 -0.3383  0.5281
  141OSM   H17G15507   3.407   0.210   8.411 -0.8777 -0.1689  1.0035
  141OSM   C18F15508   3.328   0.318   8.579 -0.5765 -0.0983  0.5288
  141OSM   H18F15509   3.319   0.239   8.658 -3.6930 -0.5888 -0.2131
  141OSM   H18G15510   3.229   0.331   8.531 -1.3077 -0.9857  1.7248
  141OSM   H18H15511   3.349   0.412   8.635 -0.1220  0.4098 -0.4677
  142OSM      N15512   3.337   2.490   6.197 -0.3902  0.5108 -0.1002
  142OSM    C1515513   3.402   2.413   6.307  0.1765  0.5706  0.5040
  142OSM   H15A15514   3.437   2.480   6.384  1.1350 -0.9356  1.4173
  142OSM   H15B15515   3.477   2.351   6.261 -0.3032  0.1717  0.2437
  142OSM   H15C15516   3.325   2.354   6.354 -1.2382  0.9319 -1.2541
  142OSM    C1415517   3.433   2.560   6.107 -0.2706  0.0884 -0.3412
  142OSM   H14A15518   3.510   2.491   6.076 -1.8320 -1.0460 -1.8328
  142OSM   H14B15519   3.485   2.640   6.160  1.0052 -2.1043  1.9538
  142OSM   H14C15520   3.400   2.612   6.018  2.2166  0.6963 -0.9839
  142OSM    C1315521   3.261   2.385   6.119 -0.3357 -0.1172 -0.6069
  142OSM   H13A15522   3.219   2.306   6.178  0.0524 -0.8882 -1.3475
  142OSM   H13B15523   3.321   2.347   6.037  0.4591 -1.6644  0.6549
  142OSM   H13C15524   3.177   2.441   6.080 -0.6628 -0.0369  0.1910
  142OSM    C1215525   3.242   2.590   6.263  0.4605 -0.5947 -0.0687
  142OSM   H12A15526   3.299   2.662   6.320 -1.3936  0.0494  1.0676
  142OSM   H12B15527   3.173   2.540   6.329 -0.8458 -0.1096 -1.0173
  142OSM    C1115528   3.161   2.678   6.171 -0.0958 -0.3498 -0.1094
  142OSM   H11A15529   3.097   2.623   6.100 -0.8933  0.8823 -0.3837
  142OSM   H11B15530   3.232   2.742   6.114 -0.1964  0.8075  1.0074
  142OSM      P15531   2.936   2.739   6.308  0.4665 -0.1065 -0.1811
  142OSM    O1315532   2.875   2.870   6.353 -0.3641 -0.2669 -0.2426
  142OSM    O1415533   2.847   2.669   6.212 -0.4785 -0.3010  0.0746
  142OSM    O1115534   2.961   2.649   6.442  0.2681 -0.0553  0.4082
  142OSM    O1215535   3.082   2.771   6.250 -0.0813  0.1578 -0.0229
  142OSM    C1S15536   3.030   2.714   6.546  0.1037 -0.1628 -0.0849
  142OSM    H1S15537   2.968   2.799   6.581  0.5965  0.5646 -0.9200
  142OSM    H1T15538   3.128   2.755   6.512 -1.2158 -0.0857 -4.4581
  142OSM     NF15539   3.117   2.675   6.780 -0.5587  0.2353 -0.1615
  142OSM    HNF15540   3.205   2.637   6.806 -0.3406  1.5584  1.1047
  142OSM    C2S15541   3.047   2.609   6.667 -0.9429 -0.4849 -0.0336
  142OSM    H2S15542   2.943   2.589   6.700 -0.7563 -0.8521  0.3514
  142OSM    C3S15543   3.117   2.481   6.616 -0.1705 -0.4216 -0.6694
  142OSM    H3S15544   3.221   2.502   6.585 -0.2060  0.6324 -0.0944
  142OSM     O315545   3.046   2.410   6.513 -0.6626 -0.4056  0.2217
  142OSM    HO315546   2.975   2.472   6.492  0.6422  1.5362  1.2558
  142OSM    C4S15547   3.136   2.381   6.727  0.2489  0.0565 -0.2044
  142OSM    H4S15548   3.232   2.396   6.778 -0.1695  2.8497 -0.0864
  142OSM    C5S15549   3.056   2.282   6.763  0.1508  0.2823  0.1633
  142OSM    H5S15550   2.976   2.248   6.695  1.8374 -1.4535 -1.0248
  142OSM    C6S15551   3.084   2.183   6.869  0.4497 -0.6574  0.2831
  142OSM    H6S15552   3.141   2.094   6.836 -1.2348 -1.6232 -0.1792
  142OSM    H6T15553   2.990   2.137   6.908  0.8764 -0.5660  1.4496
  142OSM    C7S15554   3.154   2.251   6.991 -0.2559  0.2360  0.7317
  142OSM    H7S15555   3.253   2.296   6.967 -1.2142  0.8925 -2.4786
  142OSM    H7T15556   3.175   2.167   7.061  2.2361  0.9016  0.8881
  142OSM    C8S15557   3.074   2.358   7.064  1.5070  0.4126 -0.4339
  142OSM    H8S15558   2.971   2.317   7.054  0.6676  2.3791 -0.1287
  142OSM    H8T15559   3.075   2.458   7.016 -4.1864  1.1083  0.1679
  142OSM    C9S15560   3.109   2.382   7.211  0.2485 -0.1875  0.4131
  142OSM    H9S15561   3.196   2.451   7.208  0.7408 -0.7780  0.9631
  142OSM    H9T15562   3.147   2.295   7.269  1.2593  1.0507  1.7056
  142OSM   C10S15563   2.991   2.439   7.299  0.2442  0.6228  0.5743
  142OSM   H10S15564   2.920   2.353   7.297  0.9962 -0.0387 -2.1676
  142OSM   H10T15565   2.942   2.525   7.249  3.2666  2.3500  0.3641
  142OSM   C11S15566   3.031   2.470   7.447 -0.8898  0.5052  0.0884
  142OSM   H11S15567   2.936   2.504   7.491 -0.7422 -0.0348  0.8543
  142OSM   H11T15568   3.097   2.559   7.442 -0.6117  0.2515 -1.3224
  142OSM   C12S15569   3.105   2.354   7.526 -0.4047 -0.3221  0.0470
  142OSM   H12S15570   3.194   2.333   7.463  1.6504  0.4343  2.5154
  142OSM   H12T15571   3.037   2.265   7.527 -2.2537  1.0211 -0.6589
  142OSM   C13S15572   3.168   2.403   7.664  0.0880 -0.5630 -0.3438
  142OSM   H13S15573   3.237   2.487   7.641 -2.7032  1.6028 -1.3386
  142OSM   H13T15574   3.220   2.314   7.704  0.4506 -0.1409  0.1320
  142OSM   C14S15575   3.071   2.450   7.765  0.5502  0.7379 -0.2470
  142OSM   H14S15576   2.998   2.371   7.793  0.0553  0.8166 -1.2998
  142OSM   H14T15577   3.013   2.540   7.734  0.8397  1.2648  0.6860
  142OSM   C15S15578   3.147   2.493   7.887  0.3927  0.1164  0.2195
  142OSM   H15S15579   3.199   2.586   7.855 -0.6128 -0.1690 -2.4553
  142OSM   H15T15580   3.218   2.412   7.915 -0.5559 -0.5655  0.7089
  142OSM   C16S15581   3.047   2.534   7.998 -0.3550 -0.1743 -0.1368
  142OSM   H16S15582   3.104   2.551   8.092  0.9645  3.8276 -1.4465
  142OSM   H16T15583   2.976   2.451   8.015 -0.0800 -0.2898  0.4933
  142OSM   C17S15584   2.966   2.662   7.965  0.2854 -0.6219  0.0660
  142OSM   H17S15585   2.911   2.662   7.869 -0.5126 -0.0662  0.5100
  142OSM   H17T15586   3.048   2.736   7.958 -0.2768 -0.0209 -0.1758
  142OSM   C18S15587   2.883   2.699   8.088 -0.0536  0.4982 -0.5554
  142OSM   H18S15588   2.799   2.626   8.092  1.1168 -0.9194 -0.6836
  142OSM   H18T15589   2.838   2.799   8.072 -2.2151 -0.3615 -0.1704
  142OSM   H18U15590   2.936   2.699   8.186  0.0598 -0.3990 -0.6079
  142OSM    C1F15591   3.067   2.780   6.841  0.1337  0.5777 -0.6566
  142OSM     OF15592   2.980   2.852   6.795 -0.2129 -0.1851 -0.5445
  142OSM    C2F15593   3.129   2.818   6.979  0.6318 -0.2963  0.7839
  142OSM    H2F15594   3.155   2.926   6.972 -0.3633 -0.0610  0.5316
  142OSM    H2G15595   3.222   2.758   6.986 -0.0087 -1.7029 -1.5344
  142OSM    C3F15596   3.044   2.788   7.100 -0.6039  0.1685 -0.6047
  142OSM    H3F15597   3.001   2.686   7.085 -3.0267  0.9356  0.5279
  142OSM    H3G15598   2.957   2.857   7.100 -0.7744 -0.0439 -0.7996
  142OSM    C4F15599   3.128   2.793   7.229  0.3080 -0.5342  0.1567
  142OSM    H4F15600   3.224   2.737   7.229 -0.1481 -1.3491 -0.8306
  142OSM    H4G15601   3.056   2.748   7.301 -1.4678  0.8689 -0.6486
  142OSM    C5F15602   3.163   2.940   7.268 -0.4168 -0.0293 -0.0639
  142OSM    H5F15603   3.096   3.019   7.229  0.7409 -0.2229 -2.6439
  142OSM    H5G15604   3.258   2.951   7.211 -0.5483  0.9294 -0.1057
  142OSM    C6F15605   3.194   2.946   7.418  0.3020 -0.3456  0.5643
  142OSM    H6F15606   3.239   3.044   7.445 -2.0456  0.4924  1.6789
  142OSM    H6G15607   3.270   2.870   7.448 -1.5293 -1.3526  2.9980
  142OSM    C7F15608   3.069   2.926   7.500 -0.4930  0.1001  0.1829
  142OSM    H7F15609   3.045   2.819   7.486  1.0850 -0.4957  1.7529
  142OSM    H7G15610   2.982   2.987   7.466  0.1542  0.0375 -1.7270
  142OSM    C8F15611   3.095   2.948   7.654  1.0148 -0.8304 -0.3593
  142OSM    H8F15612   2.988   2.951   7.684  0.5844  0.0078 -1.8847
  142OSM    H8G15613   3.141   3.048   7.662 -0.6101  0.0439 -1.4073
  142OSM    C9F15614   3.180   2.847   7.718 -0.1670  0.1608  0.6791
  142OSM    H9F15615   3.150   2.743   7.697  1.0721 -0.0527 -0.1316
  142OSM   C10F15616   3.297   2.862   7.788 -0.9682 -0.4062 -0.5585
  142OSM   H10F15617   3.350   2.773   7.824  0.2929 -0.0226 -1.3937
  142OSM   C11F15618   3.363   2.996   7.820  0.3769 -0.1620 -0.3043
  142OSM   H11F15619   3.314   3.082   7.768 -4.0005 -1.3729  1.3701
  142OSM   H11G15620   3.469   2.998   7.788  0.8920  3.3955  1.1328
  142OSM   C12F15621   3.356   3.029   7.967  0.1538 -0.2619 -0.1581
  142OSM   H12F15622   3.253   3.058   7.997 -0.4880 -1.4153 -1.1418
  142OSM   H12G15623   3.410   3.123   7.990  0.2262 -0.1320 -0.8498
  142OSM   C13F15624   3.423   2.925   8.071  0.1586 -0.3523  0.1705
  142OSM   H13F15625   3.534   2.932   8.059 -0.0103  1.4796 -0.6949
  142OSM   H13G15626   3.375   2.827   8.051 -1.5906  0.3030  0.9716
  142OSM   C14F15627   3.378   2.946   8.214 -0.0981  0.1233  0.2144
  142OSM   H14F15628   3.393   3.055   8.229  0.1914  0.0655  0.3537
  142OSM   H14G15629   3.435   2.889   8.290 -0.4937 -0.7099 -0.1000
  142OSM   C15F15630   3.233   2.900   8.236  0.2878  0.5152  0.1357
  142OSM   H15F15631   3.211   2.801   8.191  0.0801  0.9297 -0.6980
  142OSM   H15G15632   3.171   2.972   8.179  0.7471  0.2759 -0.6879
  142OSM   C16F15633   3.213   2.904   8.387 -0.1037  0.0777  0.6192
  142OSM   H16F15634   3.259   2.992   8.437  0.8236 -0.4334  0.6829
  142OSM   H16G15635   3.270   2.813   8.414  0.9826  0.4816 -0.1928
  142OSM   C17F15636   3.074   2.875   8.438  0.0449 -0.3749  0.0242
  142OSM   H17F15637   3.087   2.841   8.544  4.2463 -0.2558 -0.2790
  142OSM   H17G15638   3.031   2.797   8.373 -0.5988 -0.4157  0.4862
  142OSM   C18F15639   2.983   3.001   8.441 -0.5200  0.0383 -0.3242
  142OSM   H18F15640   2.885   2.962   8.476  0.0857 -2.1095 -0.8714
  142OSM   H18G15641   2.980   3.042   8.338  1.5265  1.4390  0.0955
  142OSM   H18H15642   3.026   3.076   8.511 -1.9583 -1.4917  2.3619
  143OSM      N15643   5.051   5.004   5.922  0.7148  0.4726  0.1271
  143OSM    C1515644   4.937   4.976   5.822  0.8061  0.5511  0.1268
  143OSM   H15A15645   4.981   4.917   5.743  0.3613  0.4188 -0.0212
  143OSM   H15B15646   4.914   5.069   5.772 -0.4378  0.0440 -0.2879
  143OSM   H15C15647   4.853   4.920   5.860  0.6929 -0.9007 -2.0504
  143OSM    C1415648   5.129   4.873   5.933 -0.0648  0.0474  0.9757
  143OSM   H14A15649   5.064   4.793   5.967  1.1595 -1.5081 -0.1887
  143OSM   H14B15650   5.218   4.880   5.993 -0.1365  3.2524  0.8767
  143OSM   H14C15651   5.158   4.853   5.831 -1.1581 -0.2515  0.7093
  143OSM    C1315652   5.139   5.112   5.865  0.4217 -0.7874 -0.0695
  143OSM   H13A15653   5.238   5.112   5.908 -0.5007 -1.8649  2.1812
  143OSM   H13B15654   5.103   5.213   5.877  0.6262 -0.7312  0.0672
  143OSM   H13C15655   5.150   5.104   5.758  1.4156 -0.5060  0.0072
  143OSM    C1215656   5.001   5.049   6.055  0.8053  0.6249 -0.2267
  143OSM   H12A15657   4.942   5.133   6.022  2.2901  1.6212 -0.4628
  143OSM   H12B15658   5.071   5.087   6.128  2.6503  2.4255 -2.7307
  143OSM    C1115659   4.926   4.951   6.147  0.2830  0.5433 -0.1962
  143OSM   H11A15660   4.910   5.003   6.244  0.1424 -3.9140  2.4430
  143OSM   H11B15661   4.992   4.864   6.168  0.4257  1.0501  1.5377
  143OSM      P15662   4.770   4.750   6.088  0.1566  0.0962 -0.0798
  143OSM    O1315663   4.631   4.731   6.034 -0.4177 -0.0978  0.3766
  143OSM    O1415664   4.885   4.676   6.024  0.5602 -0.9807 -0.2214
  143OSM    O1115665   4.760   4.714   6.241  0.7295  0.2831 -0.5089
  143OSM    O1215666   4.796   4.905   6.093  0.4783 -0.1678  0.0072
  143OSM    C1S15667   4.683   4.791   6.328 -0.2058  0.1145  0.5839
  143OSM    H1S15668   4.576   4.780   6.302 -0.8957  0.5260  3.0383
  143OSM    H1T15669   4.706   4.900   6.326  0.8945 -0.1019 -1.9019
  143OSM     NF15670   4.629   4.829   6.574  0.0334 -0.0308  0.1346
  143OSM    HNF15671   4.679   4.901   6.620  0.7946 -0.1979 -0.4142
  143OSM    C2S15672   4.706   4.746   6.477 -0.4319  0.3117  0.1835
  143OSM    H2S15673   4.661   4.644   6.474 -0.3684  0.2384  1.4029
  143OSM    C3S15674   4.865   4.745   6.501  0.1056 -0.0633  0.1042
  143OSM    H3S15675   4.905   4.848   6.488  0.8334 -0.4956 -1.3510
  143OSM     O315676   4.940   4.677   6.405  0.2037 -0.1807  0.2589
  143OSM    HO315677   4.880   4.688   6.331  2.6319 -0.4580 -1.9126
  143OSM    C4S15678   4.903   4.699   6.639 -0.8812 -0.3649  0.3177
  143OSM    H4S15679   4.907   4.782   6.712 -0.6325  0.9140 -1.1111
  143OSM    C5S15680   4.923   4.570   6.682 -0.0145  0.6246 -0.0758
  143OSM    H5S15681   4.926   4.482   6.616  2.5870 -1.3949  2.4784
  143OSM    C6S15682   4.964   4.527   6.822  0.4039  0.0753 -0.1878
  143OSM    H6S15683   5.057   4.467   6.825 -0.8538 -1.9645  0.5516
  143OSM    H6T15684   4.880   4.476   6.874 -0.8286  1.0970 -1.1138
  143OSM    C7S15685   4.990   4.652   6.906 -0.3269  0.0024 -0.6046
  143OSM    H7S15686   4.912   4.731   6.904  1.5131  1.9301 -0.0809
  143OSM    H7T15687   5.089   4.699   6.884 -0.6682  1.1149  0.1337
  143OSM    C8S15688   4.994   4.607   7.058 -0.4467 -0.5892 -0.0203
  143OSM    H8S15689   5.086   4.546   7.073  1.1433  1.5080 -0.7316
  143OSM    H8T15690   4.904   4.548   7.086  0.9695 -1.1899  3.8181
  143OSM    C9S15691   5.018   4.720   7.160 -0.2806  0.3073  0.2273
  143OSM    H9S15692   4.944   4.800   7.140 -0.3596 -0.1361 -1.4272
  143OSM    H9T15693   5.118   4.761   7.133  0.3842 -0.8635  0.8419
  143OSM   C10S15694   5.014   4.673   7.307  0.7887  0.3180  0.2880
  143OSM   H10S15695   5.093   4.597   7.324  0.1899  0.0270  1.9898
  143OSM   H10T15696   4.928   4.618   7.352  1.5236 -0.4946  0.7368
  143OSM   C11S15697   5.039   4.777   7.417 -0.0272 -0.8338  0.2910
  143OSM   H11S15698   4.953   4.778   7.487 -2.7064 -0.8469 -2.7565
  143OSM   H11T15699   5.049   4.876   7.366 -0.2533 -1.3044 -0.7031
  143OSM   C12S15700   5.180   4.761   7.474  0.2973 -0.3541  0.1920
  143OSM   H12S15701   5.254   4.758   7.391 -0.2627  1.6156 -0.4304
  143OSM   H12T15702   5.186   4.665   7.529  0.5813 -0.1919  0.4449
  143OSM   C13S15703   5.216   4.864   7.584  0.7247  0.5972 -0.1628
  143OSM   H13S15704   5.119   4.874   7.638  0.2258  0.1775 -0.9611
  143OSM   H13T15705   5.242   4.959   7.532  2.9681 -0.0384 -0.2969
  143OSM   C14S15706   5.331   4.836   7.676  0.0193 -0.7553  0.5621
  143OSM   H14S15707   5.419   4.843   7.607  0.9508  0.8081  1.8388
  143OSM   H14T15708   5.314   4.739   7.729 -0.6985  0.6794  3.1286
  143OSM   C15S15709   5.356   4.947   7.774 -0.5302  0.1534  0.5378
  143OSM   H15S15710   5.378   5.041   7.719 -1.2291 -0.9888 -1.8446
  143OSM   H15T15711   5.443   4.921   7.838  0.6896 -1.0325 -1.4965
  143OSM   C16S15712   5.234   4.972   7.863 -0.0526  0.2637  0.1865
  143OSM   H16S15713   5.177   4.880   7.889 -3.8730  2.5129  0.6626
  143OSM   H16T15714   5.156   5.042   7.825  0.0877  1.0636  1.3225
  143OSM   C17S15715   5.272   5.032   7.995  0.5291 -0.5251 -0.4682
  143OSM   H17S15716   5.312   5.133   7.971  1.2887 -0.9877 -1.1841
  143OSM   H17T15717   5.355   4.972   8.038  0.5491  0.0030  0.2348
  143OSM   C18S15718   5.155   5.042   8.098  0.0302 -0.0612 -0.4920
  143OSM   H18S15719   5.188   5.115   8.175  0.5382 -2.1183  1.3561
  143OSM   H18T15720   5.151   4.946   8.154 -1.4532  1.7218  2.7121
  143OSM   H18U15721   5.057   5.071   8.054  0.1952  1.7639  0.2544
  143OSM    C1F15722   4.496   4.822   6.583  0.3664 -0.6109 -0.1452
  143OSM     OF15723   4.434   4.730   6.534  0.6669  0.1680 -0.4186
  143OSM    C2F15724   4.423   4.939   6.639 -0.2111 -0.0669  0.2710
  143OSM    H2F15725   4.424   5.019   6.563 -0.5306  0.7737  1.1286
  143OSM    H2G15726   4.466   4.972   6.736  0.7732  0.1569 -0.2297
  143OSM    C3F15727   4.277   4.904   6.674  0.1464 -0.6044 -0.5693
  143OSM    H3F15728   4.227   4.850   6.590  0.9908  0.9139 -2.1272
  143OSM    H3G15729   4.226   5.003   6.684 -1.9593 -1.6836 -0.0394
  143OSM    C4F15730   4.258   4.831   6.809  0.3625 -0.2177 -0.1436
  143OSM    H4F15731   4.341   4.760   6.829  1.6201  1.7725  2.3191
  143OSM    H4G15732   4.167   4.767   6.811 -0.5101  0.9999 -0.3399
  143OSM    C5F15733   4.269   4.925   6.929 -0.1889 -0.2170  0.2813
  143OSM    H5F15734   4.163   4.945   6.956 -0.2764 -0.7944  0.3742
  143OSM    H5G15735   4.311   5.023   6.897 -1.2988 -0.1838 -1.2097
  143OSM    C6F15736   4.351   4.858   7.046  0.0585 -0.8031 -0.3272
  143OSM    H6F15737   4.445   4.836   6.991 -1.1986 -0.2545 -2.8385
  143OSM    H6G15738   4.312   4.759   7.080  3.6227 -2.1576  0.2876
  143OSM    C7F15739   4.393   4.956   7.156  1.3077 -0.1041 -1.2269
  143OSM    H7F15740   4.415   5.052   7.105  0.7206 -0.5350 -2.3327
  143OSM    H7G15741   4.477   4.913   7.213 -1.6910 -0.7918  3.1503
  143OSM    C8F15742   4.280   4.967   7.263  0.1502  0.0004  0.5180
  143OSM    H8F15743   4.279   4.872   7.320  0.4768  0.2145  0.8844
  143OSM    H8G15744   4.179   4.988   7.221  0.7783  0.1893 -0.9825
  143OSM    C9F15745   4.325   5.080   7.359 -0.0458 -0.7552  0.4528
  143OSM    H9F15746   4.377   5.164   7.309 -0.1445 -0.9352  0.0423
  143OSM   C10F15747   4.323   5.087   7.496  0.6349 -0.6367  0.6969
  143OSM   H10F15748   4.349   5.179   7.550 -3.5368  0.7508  0.6974
  143OSM   C11F15749   4.269   4.973   7.585 -0.5091 -0.6578 -0.2131
  143OSM   H11F15750   4.344   4.892   7.597  0.8995  0.3399 -1.8553
  143OSM   H11G15751   4.191   4.906   7.541 -1.7928  1.3828 -1.2167
  143OSM   C12F15752   4.203   5.011   7.715 -0.0194  0.2675  0.2515
  143OSM   H12F15753   4.144   4.923   7.749  0.8331  0.0278  1.1489
  143OSM   H12G15754   4.139   5.102   7.712  1.4581  1.3985  1.7755
  143OSM   C13F15755   4.303   5.055   7.818 -0.4462 -0.4389 -0.0845
  143OSM   H13F15756   4.377   5.119   7.766  1.4367 -1.8709  0.7357
  143OSM   H13G15757   4.371   4.974   7.851  0.3462  0.0771 -0.4285
  143OSM   C14F15758   4.235   5.112   7.939 -0.7005  0.5374 -0.1264
  143OSM   H14F15759   4.168   5.037   7.985 -2.2968  0.5238 -2.2755
  143OSM   H14G15760   4.166   5.193   7.906 -2.2785  0.5470  2.8426
  143OSM   C15F15761   4.330   5.168   8.049  0.4394 -0.2142  0.7445
  143OSM   H15F15762   4.275   5.211   8.135  0.5110  1.1638  0.1150
  143OSM   H15G15763   4.393   5.243   7.997  0.6747 -0.8634  0.0705
  143OSM   C16F15764   4.425   5.069   8.115 -0.2136 -0.4689  0.0503
  143OSM   H16F15765   4.492   5.132   8.178 -0.0053 -1.2316  0.6072
  143OSM   H16G15766   4.489   5.024   8.035  0.9008  0.4360  0.4170
  143OSM   C17F15767   4.365   4.956   8.187 -0.3567  0.4449 -0.1729
  143OSM   H17F15768   4.313   4.899   8.107  0.9901  3.9382 -3.8714
  143OSM   H17G15769   4.281   4.994   8.250  0.2606  1.2271  0.1940
  143OSM   C18F15770   4.461   4.874   8.272  0.4644  0.8548 -0.1006
  143OSM   H18F15771   4.405   4.797   8.329  1.4120  1.5830  1.9350
  143OSM   H18G15772   4.511   4.944   8.343  0.7409  0.5046  0.0524
  143OSM   H18H15773   4.525   4.815   8.204 -1.6026 -0.9222 -0.6227
  144OSM      N15774   2.796   4.706   6.251  0.4927 -0.3044  0.4433
  144OSM    C1515775   2.823   4.559   6.251  0.1311 -0.5621  0.2462
  144OSM   H15A15776   2.912   4.537   6.195 -1.9128  0.1379 -3.6201
  144OSM   H15B15777   2.747   4.499   6.204 -1.0789  0.4530  0.8258
  144OSM   H15C15778   2.834   4.523   6.352 -1.3507  0.5920  0.8635
  144OSM    C1415779   2.769   4.756   6.112 -0.7128  0.4205 -0.2182
  144OSM   H14A15780   2.712   4.678   6.064  0.0743 -0.7216  0.6432
  144OSM   H14B15781   2.863   4.784   6.068 -1.9213  3.1953 -1.2662
  144OSM   H14C15782   2.707   4.844   6.113 -0.5515  0.5332  0.0663
  144OSM    C1315783   2.673   4.721   6.338  0.3683  0.1695 -0.5949
  144OSM   H13A15784   2.685   4.664   6.429  0.7508  2.4912  0.9269
  144OSM   H13B15785   2.585   4.697   6.280 -0.4037  1.0853  0.1432
  144OSM   H13C15786   2.660   4.825   6.366 -0.2597 -0.2760  0.8565
  144OSM    C1215787   2.909   4.776   6.318 -0.0236  0.2182 -0.2312
  144OSM   H12A15788   2.943   4.725   6.407  2.2103  0.6207 -0.7756
  144OSM   H12B15789   2.873   4.872   6.351  0.3823  0.1695  0.3640
  144OSM    C1115790   3.048   4.782   6.246 -0.4847 -0.5575 -0.1247
  144OSM   H11A15791   3.114   4.841   6.313 -0.3117 -0.4761 -0.3680
  144OSM   H11B15792   3.045   4.840   6.151 -0.7777  0.9854  0.7818
  144OSM      P15793   3.182   4.575   6.328 -0.2569  0.3845 -0.3741
  144OSM    O1315794   3.181   4.428   6.305 -0.1776 -0.0441  0.3398
  144OSM    O1415795   3.314   4.641   6.324 -0.3810 -0.9547  0.2387
  144OSM    O1115796   3.115   4.603   6.469 -0.5791  0.5835 -0.2600
  144OSM    O1215797   3.102   4.658   6.223  0.2841 -0.0931 -0.2129
  144OSM    C1S15798   3.042   4.501   6.533  0.3867 -0.4006 -0.5736
  144OSM    H1S15799   3.088   4.400   6.540  2.4496  0.5016 -0.3657
  144OSM    H1T15800   2.941   4.481   6.491  0.8096 -0.0223 -1.8139
  144OSM     NF15801   2.942   4.440   6.745 -0.0630 -0.6529 -0.0871
  144OSM    HNF15802   2.846   4.464   6.762 -0.6383 -2.1088 -1.0521
  144OSM    C2S15803   3.030   4.535   6.683  0.2885  0.0488 -0.2503
  144OSM    H2S15804   3.128   4.529   6.736 -0.4198 -2.1972  0.9462
  144OSM    C3S15805   2.970   4.680   6.702 -0.2205  0.4095 -0.1255
  144OSM    H3S15806   2.878   4.682   6.640  1.1318 -1.0844 -2.3178
  144OSM     O315807   3.057   4.786   6.645 -0.2366  0.5943  0.3799
  144OSM    HO315808   3.109   4.739   6.580 -2.3146 -1.0758 -0.2044
  144OSM    C4S15809   2.935   4.709   6.843  0.2191 -0.0214  0.0830
  144OSM    H4S15810   2.830   4.694   6.871  0.4124  1.3256  1.5981
  144OSM    C5S15811   3.025   4.728   6.940 -0.3987  0.1421  0.3358
  144OSM    H5S15812   3.130   4.731   6.908 -0.3952 -0.0043  0.3350
  144OSM    C6S15813   3.025   4.747   7.088  0.5539 -0.3228  0.1726
  144OSM    H6S15814   3.082   4.838   7.119 -0.3008  0.3202 -0.1110
  144OSM    H6T15815   3.087   4.664   7.130  0.0045 -1.4665 -1.2085
  144OSM    C7S15816   2.885   4.732   7.149  0.2103 -0.4631 -0.1487
  144OSM    H7S15817   2.837   4.636   7.123  3.1312 -1.8290 -0.9366
  144OSM    H7T15818   2.818   4.813   7.111 -1.7489 -0.5554  2.7742
  144OSM    C8S15819   2.865   4.752   7.302 -0.0706 -0.2474  0.6853
  144OSM    H8S15820   2.915   4.845   7.339 -1.5306  0.2330  1.5338
  144OSM    H8T15821   2.916   4.672   7.360  0.9517  1.5732  2.4185
  144OSM    C9S15822   2.719   4.769   7.339  0.2625 -0.4653  0.5838
  144OSM    H9S15823   2.673   4.675   7.301  3.5801 -2.5287  1.2105
  144OSM    H9T15824   2.675   4.856   7.287  0.4196 -0.4960  0.3968
  144OSM   C10S15825   2.700   4.782   7.485 -0.1852  0.1626  0.1876
  144OSM   H10S15826   2.773   4.846   7.538  1.2499 -1.6828  0.5229
  144OSM   H10T15827   2.712   4.682   7.532  3.0379  1.0804  1.5803
  144OSM   C11S15828   2.561   4.835   7.520  0.5280  0.3380  0.1298
  144OSM   H11S15829   2.484   4.783   7.459 -0.0135 -0.1495  1.1973
  144OSM   H11T15830   2.537   4.933   7.474  2.3648 -0.8407 -3.7346
  144OSM   C12S15831   2.516   4.810   7.659  0.1308 -0.3990 -0.1281
  144OSM   H12S15832   2.538   4.704   7.686  2.3872 -0.2202 -1.0184
  144OSM   H12T15833   2.409   4.838   7.670  0.1629  0.7130 -2.1795
  144OSM   C13S15834   2.588   4.899   7.766  0.2382 -0.5434 -0.1618
  144OSM   H13S15835   2.569   5.008   7.756 -0.7817 -0.7399 -0.4745
  144OSM   H13T15836   2.697   4.883   7.753  1.2079  5.0851 -1.6330
  144OSM   C14S15837   2.551   4.864   7.912 -0.2537  0.1614  1.3435
  144OSM   H14S15838   2.613   4.928   7.977  1.5350  0.0987 -0.2280
  144OSM   H14T15839   2.574   4.756   7.921 -0.0564 -0.3253 -2.9647
  144OSM   C15S15840   2.400   4.879   7.937 -0.8675  0.0034 -0.4843
  144OSM   H15S15841   2.355   4.822   7.853  0.4899  1.7227 -2.4883
  144OSM   H15T15842   2.373   4.987   7.932  2.3776  0.9402  0.0893
  144OSM   C16S15843   2.363   4.820   8.074  0.1620 -0.6753 -0.1337
  144OSM   H16S15844   2.373   4.710   8.076  2.4967 -0.5305 -0.1839
  144OSM   H16T15845   2.255   4.831   8.095 -0.0373  1.5966 -1.9489
  144OSM   C17S15846   2.431   4.873   8.199 -1.1194  0.3676  0.7083
  144OSM   H17S15847   2.540   4.852   8.193 -0.0271  5.2032 -0.6425
  144OSM   H17T15848   2.375   4.829   8.284  0.3917 -0.0447  1.5142
  144OSM   C18S15849   2.407   5.026   8.201  0.2557 -0.5325 -0.3096
  144OSM   H18S15850   2.465   5.084   8.126  0.5262 -0.4161 -0.0099
  144OSM   H18T15851   2.439   5.055   8.303 -3.0719  2.9453 -0.0316
  144OSM   H18U15852   2.299   5.051   8.189  0.5503  0.8685 -0.2538
  144OSM    C1F15853   2.981   4.315   6.778  0.0046  0.9199  0.2415
  144OSM     OF15854   3.095   4.276   6.752 -0.5359 -0.1349 -0.6513
  144OSM    C2F15855   2.883   4.219   6.840  0.6853 -0.3407 -0.7059
  144OSM    H2F15856   2.905   4.124   6.786  0.3143 -0.4573 -0.6542
  144OSM    H2G15857   2.780   4.251   6.814  1.1001  1.1921 -0.5689
  144OSM    C3F15858   2.912   4.210   6.996  0.7394  0.0790 -0.3796
  144OSM    H3F15859   3.011   4.164   7.012 -0.2697 -1.5863  1.5888
  144OSM    H3G15860   2.834   4.142   7.036  0.5855  1.6872  2.3055
  144OSM    C4F15861   2.887   4.346   7.069 -0.2950 -0.5124  0.8568
  144OSM    H4F15862   2.784   4.383   7.047 -0.4991 -2.2018 -1.3786
  144OSM    H4G15863   2.944   4.426   7.018 -2.4549 -0.2403 -1.3215
  144OSM    C5F15864   2.921   4.347   7.217  0.4442 -0.5134  0.8762
  144OSM    H5F15865   2.847   4.278   7.263 -1.0179 -0.2636 -0.9626
  144OSM    H5G15866   2.913   4.451   7.255 -0.7530  0.4305 -1.7211
  144OSM    C6F15867   3.065   4.294   7.243 -0.2479 -0.3067 -0.2379
  144OSM    H6F15868   3.134   4.344   7.171  1.1243 -1.6804  0.0670
  144OSM    H6G15869   3.075   4.186   7.218  0.1242 -0.0048 -1.4726
  144OSM    C7F15870   3.119   4.332   7.383  0.0806 -0.5238 -0.3819
  144OSM    H7F15871   3.100   4.442   7.383  0.1626 -0.5034 -1.3224
  144OSM    H7G15872   3.228   4.311   7.390 -0.3464 -3.1242 -0.9339
  144OSM    C8F15873   3.057   4.250   7.500  0.2849 -0.7451 -0.0944
  144OSM    H8F15874   2.960   4.305   7.507  0.7857  0.1380  0.0097
  144OSM    H8G15875   3.115   4.290   7.586 -0.3903  1.7862 -0.7316
  144OSM    C9F15876   3.046   4.105   7.501 -0.4959  0.0242 -1.0755
  144OSM    H9F15877   3.058   4.056   7.403  1.3324  1.0538 -1.4177
  144OSM   C10F15878   3.001   4.030   7.604 -0.4192 -0.2899  0.1955
  144OSM   H10F15879   3.007   3.922   7.583 -0.9652  0.3105 -3.8005
  144OSM   C11F15880   2.956   4.081   7.741 -0.4568 -0.8732  0.2753
  144OSM   H11F15881   2.871   4.022   7.781  0.2824 -1.3433  1.1916
  144OSM   H11G15882   2.921   4.187   7.740 -1.7016 -1.2683 -0.7814
  144OSM   C12F15883   3.063   4.067   7.854  0.6489  0.0190 -0.0466
  144OSM   H12F15884   3.154   4.121   7.822 -0.4160  0.9224 -1.7571
  144OSM   H12G15885   3.077   3.956   7.854  2.2752  0.1905  1.2876
  144OSM   C13F15886   3.017   4.108   7.998 -0.2965  0.1538  0.1061
  144OSM   H13F15887   2.910   4.079   7.999  0.0947 -1.4935 -1.2543
  144OSM   H13G15888   3.021   4.218   8.013 -3.0627  0.4761 -0.9084
  144OSM   C14F15889   3.102   4.049   8.111  0.3570  0.2119  0.0922
  144OSM   H14F15890   3.210   4.066   8.092  1.1462 -3.0440  1.0246
  144OSM   H14G15891   3.084   3.939   8.103  0.5930  0.1332  0.5670
  144OSM   C15F15892   3.063   4.093   8.251 -0.2091 -0.9907  0.2349
  144OSM   H15F15893   2.973   4.044   8.293  0.0336  0.2661  2.3714
  144OSM   H15G15894   3.024   4.197   8.247  2.7199  0.2228  0.4607
  144OSM   C16F15895   3.181   4.090   8.348  0.3329 -0.1986  1.1759
  144OSM   H16F15896   3.234   3.993   8.343 -0.4184 -0.5467 -0.6040
  144OSM   H16G15897   3.135   4.103   8.448 -3.0454 -0.0837 -0.2447
  144OSM   C17F15898   3.286   4.198   8.322  0.2754  0.1553  0.1312
  144OSM   H17F15899   3.253   4.299   8.353  0.9683  0.4173  0.0306
  144OSM   H17G15900   3.304   4.205   8.213  0.6935 -1.6437  0.0414
  144OSM   C18F15901   3.427   4.165   8.388  0.0469  0.1252  0.0042
  144OSM   H18F15902   3.508   4.240   8.380  0.2450 -0.2197 -1.8277
  144OSM   H18G15903   3.463   4.072   8.338  0.2646 -0.7099  1.6647
  144OSM   H18H15904   3.407   4.144   8.495  0.7818  4.4021  1.1371
  145SAPE     N15905   1.900   5.356  10.918 -0.2054 -0.0842 -0.3755
  145SAPE   HN115906   1.840   5.303  10.985  0.1827 -0.1499 -0.0741
  145SAPE   HN215907   1.886   5.456  10.944  0.0851 -0.2854  0.5902
  145SAPE   HN315908   1.846   5.354  10.830 -2.3652  1.5176  0.8159
  145SAPE   C1215909   2.045   5.324  10.913 -0.2268 -0.1382 -0.1665
  145SAPE  H12A15910   2.052   5.221  10.871 -0.2100 -0.0090 -0.4800
  145SAPE  H12B15911   2.077   5.322  11.019 -0.5365 -0.7622 -0.0791
  145SAPE   C1115912   2.105   5.417  10.813  0.7514 -0.0902  0.2104
  145SAPE  H11A15913   2.067   5.389  10.713 -1.1537 -0.6259  1.0538
  145SAPE  H11B15914   2.214   5.395  10.809  0.1364 -3.5790  0.1157
  145SAPE     P15915   2.157   5.661  10.760 -0.0875 -0.1467 -0.0869
  145SAPE   O1315916   2.075   5.787  10.751 -0.2156 -0.0383 -0.4206
  145SAPE   O1415917   2.297   5.676  10.818  0.3961 -0.2569 -0.2066
  145SAPE   O1215918   2.080   5.554  10.849 -0.1116 -0.5347  0.4384
  145SAPE   O1115919   2.170   5.600  10.615  0.2677 -0.1932  0.1044
  145SAPE    C115920   2.303   5.568  10.565 -0.4026  0.0657  0.2513
  145SAPE    HA15921   2.371   5.655  10.554 -0.3518  0.1402  1.1279
  145SAPE    HB15922   2.344   5.501  10.644 -0.5083 -1.7529 -1.1742
  145SAPE    C215923   2.297   5.490  10.429 -0.3352 -0.3649  0.4739
  145SAPE    HS15924   2.398   5.452  10.405 -0.6700 -0.4458 -0.8990
  145SAPE   O2115925   2.247   5.584  10.333 -0.1555  0.6104 -0.1207
  145SAPE   C2115926   2.341   5.660  10.282  0.5943  0.7824 -0.2497
  145SAPE   O2215927   2.457   5.674  10.318  0.3228  0.5551 -0.4684
  145SAPE   C2215928   2.270   5.734  10.174  0.2628  0.8742 -0.3184
  145SAPE   H2R15929   2.162   5.713  10.168  0.3882  0.1677 -0.2018
  145SAPE   H2S15930   2.297   5.839  10.200 -0.6830  0.8571  0.8021
  145SAPE    C315931   2.204   5.368  10.439 -0.5202 -0.5883  0.0543
  145SAPE    HX15932   2.100   5.402  10.456  0.8176  3.8901  0.5245
  145SAPE    HY15933   2.228   5.311  10.532 -3.2288  1.3003  2.0920
  145SAPE   O3115934   2.213   5.290  10.321  0.0828 -0.7346  0.0118
  145SAPE   C3115935   2.116   5.206  10.299 -0.3383  0.1270  0.8255
  145SAPE   O3215936   2.014   5.188  10.359  0.0090 -0.2217 -0.2485
  145SAPE   C3215937   2.153   5.144  10.168  0.1710  0.1181  0.0943
  145SAPE   H2X15938   2.089   5.060  10.135  4.4007 -2.9512 -1.2688
  145SAPE   H2Y15939   2.247   5.094  10.201 -0.1901  0.5438  1.9073
  145SAPE   C2315940   2.316   5.677  10.033  0.0306 -0.2269  0.2200
  145SAPE   H3R15941   2.282   5.571  10.029 -0.7711 -0.0250  1.1672
  145SAPE   H3S15942   2.425   5.659  10.036  0.6093  2.7903  2.2125
  145SAPE   C2415943   2.283   5.776   9.919 -0.4321 -0.3840 -0.0660
  145SAPE   H4R15944   2.315   5.880   9.941 -1.8177  0.0089  0.2122
  145SAPE   H4S15945   2.172   5.785   9.917 -0.3066  1.7356 -1.6513
  145SAPE   C2515946   2.332   5.739   9.783  0.6633 -0.3879  0.0133
  145SAPE   H5R15947   2.394   5.649   9.780  0.3883 -0.5696 -0.3906
  145SAPE   C2615948   2.319   5.813   9.665  0.0997 -0.0463  0.4802
  145SAPE   H6R15949   2.365   5.779   9.572 -0.3125  1.9672 -0.5001
  145SAPE   C2715950   2.247   5.943   9.646 -0.3877 -0.0919  0.2223
  145SAPE   H7R15951   2.319   6.028   9.644  0.8165 -1.1044 -0.9736
  145SAPE   H7S15952   2.178   5.953   9.733  0.4254 -1.4372  1.0535
  145SAPE   C2815953   2.151   5.948   9.528  0.1433  0.1236 -0.0892
  145SAPE   H8R15954   2.045   5.953   9.555 -0.4705  2.1250 -2.4856
  145SAPE   C2915955   2.184   5.951   9.399 -0.2068  0.3225  0.2040
  145SAPE   H9R15956   2.106   5.948   9.322  1.0661  1.0441 -1.1662
  145SAPE  C21015957   2.319   5.950   9.333 -0.0558 -0.1389 -0.6566
  145SAPE  H10R15958   2.329   5.874   9.251 -1.3266  0.5385 -1.4655
  145SAPE  H10S15959   2.395   5.913   9.406 -0.0341  0.7164 -0.2442
  145SAPE  C21115960   2.363   6.091   9.291 -0.1699 -0.4858  0.6000
  145SAPE  H11R15961   2.426   6.152   9.358  1.1731  3.4900 -3.7584
  145SAPE  C21215962   2.311   6.156   9.191  0.3249 -0.0272  0.1850
  145SAPE  H12R15963   2.339   6.260   9.170 -0.8123 -0.0709 -1.8903
  145SAPE  C21315964   2.207   6.111   9.097 -0.4041  0.1077  0.0271
  145SAPE  H13R15965   2.143   6.200   9.084  1.2205  1.4899  1.0767
  145SAPE  H13S15966   2.144   6.039   9.154  1.0470 -0.8072  0.5514
  145SAPE  C21415967   2.260   6.059   8.963  0.0606 -0.7617  0.2879
  145SAPE  H14R15968   2.309   5.960   8.961  0.7813 -0.3911 -0.9955
  145SAPE  C21515969   2.251   6.125   8.844 -0.3203  0.9898  0.4788
  145SAPE  H15R15970   2.283   6.080   8.749 -2.6350  3.8421 -1.8374
  145SAPE  C21615971   2.188   6.266   8.818  0.2884 -0.0692  0.4240
  145SAPE  H16R15972   2.169   6.326   8.910  0.0199  2.5061 -1.2234
  145SAPE  H16S15973   2.087   6.261   8.773 -1.1544  5.4757  2.2329
  145SAPE  C21715974   2.282   6.341   8.726 -0.2660  0.6213  0.0514
  145SAPE  H17R15975   2.239   6.436   8.689 -0.0885  0.5793 -0.2667
  145SAPE  H17S15976   2.308   6.277   8.638  1.2732 -1.0310  1.6052
  145SAPE  C21815977   2.417   6.395   8.789 -0.1053 -0.5948 -0.1265
  145SAPE  H18R15978   2.479   6.304   8.794  0.7765  0.0511  1.1223
  145SAPE  H18S15979   2.402   6.436   8.891 -3.2409 -0.5360 -0.4960
  145SAPE  C21915980   2.511   6.488   8.698  0.4217  0.1244  0.0108
  145SAPE  H19R15981   2.600   6.502   8.762  2.1284  0.3718 -2.3117
  145SAPE  H19S15982   2.462   6.587   8.695 -2.0191 -0.8934  2.0642
  145SAPE  C22015983   2.540   6.426   8.565  0.2199 -0.4050 -0.5176
  145SAPE  H20R15984   2.570   6.320   8.584  0.9638 -0.0493  0.3854
  145SAPE  H20S15985   2.624   6.476   8.513  1.2138 -1.7552 -0.2851
  145SAPE  H20T15986   2.446   6.421   8.507  0.0922  1.2287 -0.4737
  145SAPE   C3315987   2.185   5.249  10.054  0.4361 -0.3500  0.2036
  145SAPE   H3X15988   2.249   5.331  10.092 -0.5602  0.4193  0.2460
  145SAPE   H3Y15989   2.090   5.292  10.017  2.2685  0.6139 -4.0204
  145SAPE   C3415990   2.257   5.174   9.935  0.6194  0.5048 -0.5849
  145SAPE   H4X15991   2.192   5.091   9.900 -0.3083 -0.1778  2.3986
  145SAPE   H4Y15992   2.341   5.132   9.996  1.0030  2.8931  0.6626
  145SAPE   C3515993   2.307   5.266   9.830  0.0721  0.2249  0.4204
  145SAPE   H5X15994   2.373   5.342   9.876  1.4077 -0.8796  0.3955
  145SAPE   H5Y15995   2.227   5.312   9.768 -0.5742 -0.7796  0.4822
  145SAPE   C3615996   2.385   5.182   9.729  0.0750 -0.2962 -0.3110
  145SAPE   H6X15997   2.324   5.092   9.705  0.4359 -1.2265  2.0149
  145SAPE   H6Y15998   2.481   5.150   9.776 -0.3519 -1.0901  0.0331
  145SAPE   C3715999   2.424   5.259   9.603  0.1646  0.5993  0.5300
  145SAPE   H7X16000   2.455   5.361   9.635  0.0586  0.3010  1.6324
  145SAPE   H7Y16001   2.329   5.270   9.546 -0.7734  1.3349  2.1608
  145SAPE   C3816002   2.539   5.195   9.513  0.1399  0.9762  0.1585
  145SAPE   H8X16003   2.517   5.086   9.511 -0.1264  1.0325 -0.6021
  145SAPE   H8Y16004   2.631   5.217   9.572  0.8898 -1.5295  0.0547
  145SAPE   C3916005   2.557   5.246   9.368  0.0539  0.8345 -0.4403
  145SAPE   H9X16006   2.632   5.172   9.332 -0.3220 -0.0967  0.6218
  145SAPE   H9Y16007   2.606   5.345   9.354  2.0276 -0.2081 -1.2809
  145SAPE  C31016008   2.430   5.225   9.289 -1.0518 -0.0887 -0.0419
  145SAPE  H10X16009   2.369   5.314   9.312  1.2016  1.4903  0.1504
  145SAPE  H10Y16010   2.367   5.138   9.318  1.8074 -1.7988  1.5472
  145SAPE  C31116011   2.462   5.239   9.147  0.7264  0.7035  0.4471
  145SAPE  H11X16012   2.363   5.247   9.096 -0.1133  1.4438  2.1162
  145SAPE  H11Y16013   2.506   5.144   9.109 -1.8472 -0.8898  1.2476
  145SAPE  C31216014   2.541   5.363   9.096 -0.1810  0.1515  0.0391
  145SAPE  H12X16015   2.643   5.364   9.139 -0.7789  0.1920  1.5366
  145SAPE  H12Y16016   2.491   5.456   9.130  1.4148  0.8115  0.6581
  145SAPE  C31316017   2.560   5.361   8.938  0.0604 -0.4528  0.0066
  145SAPE  H13X16018   2.617   5.269   8.916  0.3946 -0.5272  1.1008
  145SAPE  H13Y16019   2.632   5.444   8.922  0.8042 -0.8304  1.2083
  145SAPE  C31416020   2.426   5.390   8.858 -0.0069 -0.0470  0.7091
  145SAPE  H14X16021   2.393   5.495   8.869 -0.3927 -0.2978  2.0010
  145SAPE  H14Y16022   2.347   5.317   8.885 -1.6268  0.2213 -2.7593
  145SAPE  C31516023   2.451   5.369   8.703 -0.4580  0.5723 -0.4839
  145SAPE  H15X16024   2.484   5.264   8.692  0.1085  0.8143 -1.1721
  145SAPE  H15Y16025   2.532   5.438   8.671  1.8632 -0.7000  2.2516
  145SAPE  C31616026   2.322   5.406   8.619 -1.0495 -0.7436  0.6632
  145SAPE  H16X16027   2.328   5.511   8.583 -1.2173 -1.1390 -0.5845
  145SAPE  H16Y16028   2.231   5.404   8.682 -2.1060  0.1654 -0.7589
  145SAPE  C31716029   2.295   5.310   8.501 -0.3725 -0.4873 -0.4319
  145SAPE  H17X16030   2.307   5.205   8.536  0.3037 -0.8387 -1.6674
  145SAPE  H17Y16031   2.366   5.337   8.420 -0.7100  1.8958 -0.0076
  145SAPE  C31816032   2.149   5.332   8.450  0.3156  0.2135  0.2967
  145SAPE  H18X16033   2.070   5.307   8.523 -0.6178 -1.1003 -1.1126
  145SAPE  H18Y16034   2.126   5.264   8.365 -3.3737 -2.1128  2.8857
  145SAPE  H18Z16035   2.141   5.441   8.428  0.2331 -0.6194 -5.0883
  146SAPE     N16036   2.091   6.609  10.856 -0.1595 -0.9933 -1.1694
  146SAPE   HN116037   2.092   6.702  10.904 -2.9093 -1.3038 -0.3344
  146SAPE   HN216038   1.988   6.595  10.862 -0.7303  2.1474 -1.5570
  146SAPE   HN316039   2.143   6.530  10.901 -2.4099 -2.3228 -0.7586
  146SAPE   C1216040   2.123   6.626  10.708  1.5218 -0.3887  0.0593
  146SAPE  H12A16041   2.113   6.521  10.671  3.0931 -0.6349  0.2455
  146SAPE  H12B16042   2.226   6.665  10.696  0.5772  2.8790  1.6104
  146SAPE   C1116043   2.032   6.734  10.650 -0.1113  0.0938  0.3037
  146SAPE  H11A16044   1.930   6.720  10.692 -0.6731  1.3345 -0.5838
  146SAPE  H11B16045   2.026   6.714  10.541 -0.9160 -2.0215  0.6970
  146SAPE     P16046   1.980   6.986  10.689 -0.3422 -0.2664  0.0063
  146SAPE   O1316047   1.844   6.936  10.695 -0.2289  0.3010  0.4062
  146SAPE   O1416048   2.023   7.068  10.803  0.0463  0.0188 -0.1155
  146SAPE   O1216049   2.081   6.861  10.678 -0.7124 -0.1031  0.6202
  146SAPE   O1116050   1.995   7.062  10.563 -0.8131 -0.7291  0.0182
  146SAPE    C116051   2.117   7.054  10.483 -0.1324 -0.6570  0.2415
  146SAPE    HA16052   2.203   7.024  10.546  2.0167 -0.4802 -2.4031
  146SAPE    HB16053   2.101   6.974  10.408 -0.8382 -1.5682  1.3289
  146SAPE    C216054   2.157   7.196  10.432 -0.1290  0.0199 -0.0967
  146SAPE    HS16055   2.145   7.264  10.519 -3.3874 -1.5311  0.8135
  146SAPE   O2116056   2.073   7.237  10.326  0.4222  0.1751  0.9849
  146SAPE   C2116057   2.078   7.369  10.291  0.6982  0.6268  0.4403
  146SAPE   O2216058   2.141   7.452  10.351  0.0332  0.3301 -0.3008
  146SAPE   C2216059   1.991   7.395  10.166  0.1513  0.6363  0.6201
  146SAPE   H2R16060   1.885   7.370  10.184  0.3530  0.3863  1.5397
  146SAPE   H2S16061   2.005   7.503  10.144 -1.3613  0.5480 -1.0096
  146SAPE    C316062   2.310   7.186  10.399  0.0679 -0.0679 -0.0030
  146SAPE    HX16063   2.353   7.161  10.498 -0.8446 -0.8478  0.2175
  146SAPE    HY16064   2.349   7.287  10.372 -1.3994  0.6003  0.2726
  146SAPE   O3116065   2.344   7.085  10.302  0.0440 -0.4404  0.1396
  146SAPE   C3116066   2.370   7.128  10.181  0.6605 -0.4310  0.3773
  146SAPE   O3216067   2.359   7.245  10.146  0.1051  0.3811  0.3987
  146SAPE   C3216068   2.414   7.016  10.090 -0.0224 -0.0511 -0.1310
  146SAPE   H2X16069   2.332   6.941  10.099  0.3524 -0.5679 -0.9703
  146SAPE   H2Y16070   2.512   6.984  10.131 -0.4983  1.2565  2.2127
  146SAPE   C2316071   2.051   7.312  10.045 -0.6603 -0.4475  0.1901
  146SAPE   H3R16072   2.064   7.205  10.074  0.4206 -0.0851  1.1071
  146SAPE   H3S16073   2.154   7.348  10.025 -0.1241 -2.0745 -0.1386
  146SAPE   C2416074   1.958   7.303   9.926  0.3653  0.2649 -0.6687
  146SAPE   H4R16075   1.856   7.276   9.960  0.7287  1.5915  1.7170
  146SAPE   H4S16076   1.983   7.219   9.858  0.1007  0.0321 -0.4797
  146SAPE   C2516077   1.962   7.436   9.855  0.4592  0.4226 -0.3213
  146SAPE   H5R16078   1.933   7.522   9.916 -0.6256  0.2724 -0.5903
  146SAPE   C2616079   1.994   7.464   9.730 -0.4543 -0.4511  0.0778
  146SAPE   H6R16080   1.977   7.564   9.686 -0.8338 -0.6978 -0.3438
  146SAPE   C2716081   2.035   7.354   9.635 -0.1512 -0.0884 -0.2544
  146SAPE   H7R16082   1.948   7.285   9.622  0.5412 -0.8617 -0.9769
  146SAPE   H7S16083   2.116   7.292   9.680 -0.8208 -0.0253  1.0839
  146SAPE   C2816084   2.080   7.399   9.498 -0.8616 -0.4845  0.5568
  146SAPE   H8R16085   2.187   7.394   9.477 -0.5276 -0.0290  2.0125
  146SAPE   C2916086   1.993   7.426   9.399 -0.0897 -0.5215  0.0990
  146SAPE   H9R16087   2.035   7.434   9.297 -0.5773 -1.5987 -0.1997
  146SAPE  C21016088   1.844   7.441   9.400  0.4170 -0.3029 -0.9771
  146SAPE  H10R16089   1.811   7.532   9.344 -3.4396 -1.0937 -0.2675
  146SAPE  H10S16090   1.810   7.448   9.505 -0.7066 -2.1698 -1.1757
  146SAPE  C21116091   1.764   7.329   9.336 -0.0415  0.5485  0.8657
  146SAPE  H11R16092   1.802   7.233   9.375  1.3007  1.2180  1.2750
  146SAPE  C21216093   1.653   7.328   9.250 -0.1624 -0.3288 -0.1523
  146SAPE  H12R16094   1.602   7.236   9.218  1.2408 -1.4337  0.6298
  146SAPE  C21316095   1.581   7.451   9.191  0.4093  0.1030  0.2390
  146SAPE  H13R16096   1.578   7.431   9.081  1.1488  0.3362  0.1676
  146SAPE  H13S16097   1.650   7.535   9.215  1.2672 -0.4544 -0.2226
  146SAPE  C21416098   1.442   7.480   9.250  0.3650 -0.2344  0.0500
  146SAPE  H14R16099   1.446   7.526   9.350  0.9856  0.9209 -0.4868
  146SAPE  C21516100   1.325   7.458   9.191 -0.1584  0.4024  0.4079
  146SAPE  H15R16101   1.236   7.448   9.254 -0.0484 -1.2033  0.3403
  146SAPE  C21616102   1.303   7.408   9.049  1.1195  0.2527  0.3420
  146SAPE  H16R16103   1.374   7.327   9.023  2.0737  0.9441  0.7575
  146SAPE  H16S16104   1.336   7.481   8.972  0.0516 -0.6330 -1.0091
  146SAPE  C21716105   1.158   7.358   9.037  1.0082  0.0482  0.1997
  146SAPE  H17R16106   1.075   7.431   9.047  1.2286  0.1563  1.3382
  146SAPE  H17S16107   1.142   7.287   9.121  1.5715 -0.0361  0.2373
  146SAPE  C21816108   1.118   7.261   8.913 -0.5337 -0.1503 -0.2661
  146SAPE  H18R16109   1.171   7.168   8.942 -0.0973  0.2570  0.2441
  146SAPE  H18S16110   1.148   7.303   8.815 -1.3806 -1.4365 -1.1017
  146SAPE  C21916111   0.972   7.215   8.918  0.2916 -0.1522  1.1945
  146SAPE  H19R16112   0.944   7.170   9.015 -0.4826 -1.1684  0.5265
  146SAPE  H19S16113   0.959   7.137   8.839 -3.4880  1.1084  0.4041
  146SAPE  C22016114   0.882   7.331   8.877  0.2415  0.0250 -0.0709
  146SAPE  H20R16115   0.778   7.297   8.895  0.6077 -0.9913  0.2010
  146SAPE  H20S16116   0.911   7.361   8.774 -1.4023 -0.2280 -0.6333
  146SAPE  H20T16117   0.896   7.427   8.932  3.4316  0.6954 -1.8133
  146SAPE   C3316118   2.420   7.053   9.941 -0.0278 -1.5162  0.4378
  146SAPE   H3X16119   2.483   6.982   9.884  0.8889 -0.5822  0.2534
  146SAPE   H3Y16120   2.481   7.145   9.929  0.2039 -1.9833 -2.8769
  146SAPE   C3416121   2.289   7.045   9.871 -0.3860  0.0069  0.0931
  146SAPE   H4X16122   2.219   7.124   9.905 -0.0044  0.2941  0.2136
  146SAPE   H4Y16123   2.239   6.947   9.890  1.2473 -0.9621 -0.4164
  146SAPE   C3516124   2.290   7.059   9.709 -0.4099 -0.0338  0.0181
  146SAPE   H5X16125   2.333   7.158   9.684 -0.3019 -0.2285 -0.5959
  146SAPE   H5Y16126   2.185   7.068   9.672 -0.8170 -2.1303  0.5346
  146SAPE   C3616127   2.351   6.947   9.636 -0.5377  0.3491  0.0335
  146SAPE   H6X16128   2.328   6.853   9.691  0.2571  0.1368  0.0169
  146SAPE   H6Y16129   2.460   6.957   9.658 -0.5971  1.3351 -0.0786
  146SAPE   C3716130   2.324   6.941   9.483  0.1880  1.2445  0.2246
  146SAPE   H7X16131   2.213   6.954   9.482  0.2755  2.0460  0.0670
  146SAPE   H7Y16132   2.354   6.842   9.443  0.0584  1.3612 -0.1709
  146SAPE   C3816133   2.360   7.059   9.385  0.2884 -0.6090 -0.3350
  146SAPE   H8X16134   2.468   7.049   9.360  0.3951 -3.7913  0.8715
  146SAPE   H8Y16135   2.344   7.156   9.436 -0.2827 -1.5593  1.3738
  146SAPE   C3916136   2.292   7.065   9.249 -0.1001 -0.1346  0.0614
  146SAPE   H9X16137   2.335   6.990   9.179 -1.2696 -0.3125 -0.4764
  146SAPE   H9Y16138   2.319   7.159   9.197  0.1274 -0.2759 -0.0777
  146SAPE  C31016139   2.144   7.066   9.252  0.5480  0.0061 -0.3670
  146SAPE  H10X16140   2.100   7.137   9.325 -0.0767 -1.0127  0.2639
  146SAPE  H10Y16141   2.108   6.967   9.287  2.3379 -0.8773 -0.9069
  146SAPE  C31116142   2.086   7.091   9.111  0.4804  0.7847 -0.7299
  146SAPE  H11X16143   2.144   7.024   9.044  1.4588  1.5405 -0.6574
  146SAPE  H11Y16144   2.100   7.195   9.074 -0.2732  0.6424 -1.4589
  146SAPE  C31216145   1.935   7.046   9.118 -0.0189  0.2861  0.2543
  146SAPE  H12X16146   1.895   7.114   9.195  0.0037 -2.1560  2.5898
  146SAPE  H12Y16147   1.929   6.942   9.159 -1.3159  0.6389  1.0039
  146SAPE  C31316148   1.853   7.058   8.990 -0.6980  0.7701  0.3080
  146SAPE  H13X16149   1.887   6.986   8.912 -0.4149  0.7233  0.4721
  146SAPE  H13Y16150   1.864   7.160   8.947 -0.6996  0.4031 -0.6019
  146SAPE  C31416151   1.701   7.041   9.013  0.4734 -0.0884 -0.4700
  146SAPE  H14X16152   1.682   7.064   9.120  3.2643  0.2218  0.0460
  146SAPE  H14Y16153   1.673   6.934   9.010 -2.1850  0.3217  3.0647
  146SAPE  C31516154   1.613   7.138   8.934  0.5821  0.1236  0.7262
  146SAPE  H15X16155   1.646   7.234   8.979  0.5294  0.5004 -0.0196
  146SAPE  H15Y16156   1.506   7.116   8.953  0.2182 -0.3537 -1.6148
  146SAPE  C31616157   1.632   7.144   8.779  0.2827  0.2591  0.2519
  146SAPE  H16X16158   1.617   7.040   8.743 -1.4807  1.0448 -1.4755
  146SAPE  H16Y16159   1.733   7.184   8.754  0.7857 -1.1129  0.0154
  146SAPE  C31716160   1.524   7.226   8.700 -0.3977  0.0582 -0.1391
  146SAPE  H17X16161   1.425   7.175   8.712  0.3645 -1.4878 -0.1455
  146SAPE  H17Y16162   1.549   7.216   8.592 -0.6315 -1.0755 -0.0973
  146SAPE  C31816163   1.518   7.371   8.742 -0.5386  0.8213 -0.0008
  146SAPE  H18X16164   1.427   7.406   8.688 -3.6274 -2.4445  2.5545
  146SAPE  H18Y16165   1.605   7.432   8.713  1.0532 -1.4709 -0.2956
  146SAPE  H18Z16166   1.494   7.388   8.849 -0.1603  0.3893  0.1537
  147SAPE     N16167   4.330   3.781  11.267  0.3403 -0.3969  0.3882
  147SAPE   HN116168   4.320   3.682  11.295  2.1773 -1.2958 -1.8086
  147SAPE   HN216169   4.412   3.784  11.203  4.0897 -1.7821  4.5732
  147SAPE   HN316170   4.359   3.837  11.350  1.0782 -0.3878  0.1307
  147SAPE   C1216171   4.200   3.826  11.209 -0.5424  0.0611 -0.4347
  147SAPE  H12A16172   4.181   3.934  11.225 -0.6158  0.1157 -0.8874
  147SAPE  H12B16173   4.129   3.770  11.273 -0.3486  0.1828 -0.1106
  147SAPE   C1116174   4.208   3.805  11.057  0.6947 -0.4091 -0.4625
  147SAPE  H11A16175   4.298   3.859  11.020 -1.0034  1.8939 -1.5362
  147SAPE  H11B16176   4.120   3.856  11.012 -0.6687  1.0581  3.4664
  147SAPE     P16177   4.269   3.608  10.906  0.4533 -0.0905 -0.1408
  147SAPE   O1316178   4.410   3.647  10.881 -0.2846 -0.0123  0.2024
  147SAPE   O1416179   4.242   3.464  10.916  0.0818 -0.0450 -0.1623
  147SAPE   O1216180   4.219   3.671  11.035  0.5647  0.2205 -0.0728
  147SAPE   O1116181   4.178   3.665  10.791  0.6155 -0.0795  0.6033
  147SAPE    C116182   4.039   3.656  10.788  0.1090 -0.0657  0.1585
  147SAPE    HA16183   3.997   3.694  10.884  0.8357 -0.3941  0.6159
  147SAPE    HB16184   3.999   3.725  10.710  2.1154  1.7760  0.6582
  147SAPE    C216185   3.980   3.514  10.758 -0.2219  0.0839 -2.1741
  147SAPE    HS16186   4.032   3.436  10.816 -0.3713 -0.6431 -3.0064
  147SAPE   O2116187   3.989   3.491  10.620 -0.1911  0.0755  0.6845
  147SAPE   C2116188   4.030   3.369  10.583  0.3965 -0.0046  0.0975
  147SAPE   O2216189   4.035   3.267  10.648  0.0499  0.6060  0.1919
  147SAPE   C2216190   4.072   3.379  10.429  0.3363  0.0885  0.2561
  147SAPE   H2R16191   4.002   3.305  10.383  0.7604 -2.2235  3.0454
  147SAPE   H2S16192   4.045   3.479  10.390 -3.5696 -1.5329 -1.7293
  147SAPE    C316193   3.829   3.502  10.788  0.5645 -0.0060  0.0795
  147SAPE    HX16194   3.776   3.578  10.727 -1.6152 -1.2100  0.3639
  147SAPE    HY16195   3.809   3.528  10.894  1.6766  0.4476  0.1928
  147SAPE   O3116196   3.773   3.363  10.768  0.0034 -0.0256  0.2511
  147SAPE   C3116197   3.646   3.364  10.776  0.2849 -0.1696  0.1884
  147SAPE   O3216198   3.581   3.455  10.828 -0.5150 -0.1356 -0.1542
  147SAPE   C3216199   3.583   3.229  10.730 -0.1337 -0.6844  0.4491
  147SAPE   H2X16200   3.496   3.237  10.661  1.4334 -2.6826 -1.9562
  147SAPE   H2Y16201   3.555   3.169  10.819  1.5315  1.2363  2.4009
  147SAPE   C2316202   4.219   3.335  10.401  0.0148 -0.5680 -0.7360
  147SAPE   H3R16203   4.217   3.318  10.292 -1.0255  2.0964 -1.2026
  147SAPE   H3S16204   4.248   3.252  10.469  1.5144 -0.9999 -1.8675
  147SAPE   C2416205   4.310   3.453  10.430 -0.0282 -0.2642  0.4157
  147SAPE   H4R16206   4.312   3.483  10.537 -0.0874  3.0068 -0.3706
  147SAPE   H4S16207   4.274   3.539  10.369  2.3202 -0.2929 -1.1315
  147SAPE   C2516208   4.451   3.400  10.398 -0.2224 -0.5808  0.6054
  147SAPE   H5R16209   4.494   3.331  10.472  1.2557  0.2102  0.5216
  147SAPE   C2616210   4.529   3.430  10.284 -0.7292 -0.1756 -0.1586
  147SAPE   H6R16211   4.632   3.394  10.271 -0.7852 -0.2167 -0.4755
  147SAPE   C2716212   4.493   3.520  10.169 -0.4502  0.5036 -0.5185
  147SAPE   H7R16213   4.580   3.531  10.102  0.2521  4.0034  0.7418
  147SAPE   H7S16214   4.486   3.619  10.219 -1.0686 -1.0559  2.7588
  147SAPE   C2816215   4.365   3.503  10.094  0.5412  0.0465  0.6274
  147SAPE   H8R16216   4.290   3.438  10.142  0.7214 -0.1031  0.7062
  147SAPE   C2916217   4.323   3.590  10.004 -0.4946  0.0552  0.8284
  147SAPE   H9R16218   4.219   3.578   9.970 -0.1998 -2.0044  0.5594
  147SAPE  C21016219   4.399   3.711   9.946  0.3293 -0.0121 -0.2133
  147SAPE  H10R16220   4.447   3.671   9.854  0.0783 -3.3474  0.9884
  147SAPE  H10S16221   4.474   3.750  10.018 -0.2151  0.4695  0.0977
  147SAPE  C21116222   4.326   3.835   9.897  0.5787  0.1447 -0.1881
  147SAPE  H11R16223   4.341   3.929   9.952  0.2746 -0.1235  0.3599
  147SAPE  C21216224   4.270   3.842   9.777 -0.1936  0.2182  0.2816
  147SAPE  H12R16225   4.224   3.937   9.747 -1.0321  0.1378  1.2411
  147SAPE  C21316226   4.258   3.736   9.676  0.6577  0.4056  0.0602
  147SAPE  H13R16227   4.173   3.742   9.606  2.7838 -3.3254 -3.2606
  147SAPE  H13S16228   4.244   3.638   9.728  0.6108 -0.6596 -1.8771
  147SAPE  C21416229   4.378   3.731   9.596  0.5934  0.5103 -0.7613
  147SAPE  H14R16230   4.466   3.743   9.661 -1.0081  1.2480  1.3857
  147SAPE  C21516231   4.383   3.710   9.464  0.0881  0.4807 -0.0543
  147SAPE  H15R16232   4.478   3.705   9.408 -1.1346 -1.5445 -2.0953
  147SAPE  C21616233   4.268   3.693   9.371  0.2919 -0.3079  0.0252
  147SAPE  H16R16234   4.184   3.756   9.408 -0.2756 -0.8006 -0.4090
  147SAPE  H16S16235   4.223   3.592   9.371  2.5837 -1.4018  1.9339
  147SAPE  C21716236   4.305   3.744   9.235 -0.0473  0.3983  0.3962
  147SAPE  H17R16237   4.410   3.720   9.208 -0.6979 -1.7152 -0.5108
  147SAPE  H17S16238   4.294   3.854   9.225 -2.6788  0.1994  0.3653
  147SAPE  C21816239   4.219   3.669   9.131  0.2463 -0.6094 -0.4232
  147SAPE  H18R16240   4.116   3.684   9.170  0.5809  0.2539  0.1781
  147SAPE  H18S16241   4.235   3.559   9.126 -0.7668 -0.6935 -2.3083
  147SAPE  C21916242   4.233   3.716   8.982 -0.1403 -0.1086  0.0615
  147SAPE  H19R16243   4.219   3.826   8.980  1.1526  0.1125  1.4565
  147SAPE  H19S16244   4.156   3.656   8.928  1.3264 -0.4830 -1.6901
  147SAPE  C22016245   4.365   3.679   8.933 -1.0866  0.0799  0.6788
  147SAPE  H20R16246   4.376   3.729   8.834 -3.8152  0.8919  0.6927
  147SAPE  H20S16247   4.377   3.569   8.931 -1.6271  0.0048  1.2938
  147SAPE  H20T16248   4.447   3.718   8.996 -0.4195  0.4740 -0.3927
  147SAPE   C3316249   3.692   3.143  10.666 -0.0778 -0.3531  0.7238
  147SAPE   H3X16250   3.784   3.134  10.727  1.0918 -1.7194 -1.1518
  147SAPE   H3Y16251   3.714   3.183  10.565  0.8469 -0.7505  0.7602
  147SAPE   C3416252   3.650   2.998  10.638 -0.4955 -0.0503 -0.2499
  147SAPE   H4X16253   3.546   2.990  10.598 -0.2750 -1.9769 -0.5260
  147SAPE   H4Y16254   3.655   2.959  10.742 -3.2753  2.3558  0.9403
  147SAPE   C3516255   3.739   2.932  10.532  0.1933 -0.4084 -0.5666
  147SAPE   H5X16256   3.710   2.825  10.526  2.9000 -1.3066  0.8986
  147SAPE   H5Y16257   3.840   2.921  10.577  1.4121  0.4582 -2.9423
  147SAPE   C3616258   3.750   2.985  10.391 -0.4385  0.0152  0.3696
  147SAPE   H6X16259   3.817   2.929  10.322 -1.1037  1.2062 -1.3064
  147SAPE   H6Y16260   3.779   3.092  10.387  0.3037 -0.2150 -1.1164
  147SAPE   C3716261   3.616   2.979  10.314  0.0836 -0.0096  0.0271
  147SAPE   H7X16262   3.539   3.045  10.361 -0.5550 -0.0315 -0.9536
  147SAPE   H7Y16263   3.577   2.876  10.325 -0.4968  0.2906  0.8283
  147SAPE   C3816264   3.630   3.013  10.165 -0.5440 -0.2469  0.4174
  147SAPE   H8X16265   3.687   2.943  10.100  0.5696  2.3286 -1.5842
  147SAPE   H8Y16266   3.661   3.117  10.138 -2.9030 -0.2591 -3.0581
  147SAPE   C3916267   3.497   3.003  10.090 -0.2116  0.3808  0.2010
  147SAPE   H9X16268   3.429   3.085  10.121  1.5039  1.7138  0.5918
  147SAPE   H9Y16269   3.449   2.906  10.114  0.3913 -0.1651 -0.7312
  147SAPE  C31016270   3.524   3.023   9.936  0.6521 -0.1700 -0.3802
  147SAPE  H10X16271   3.579   2.941   9.886  1.0327 -0.7345  0.9366
  147SAPE  H10Y16272   3.575   3.122   9.931  1.1275 -0.3278  1.0252
  147SAPE  C31116273   3.387   3.041   9.865 -0.2168  0.4465 -0.4545
  147SAPE  H11X16274   3.336   3.128   9.911 -2.9694 -0.2469 -2.0039
  147SAPE  H11Y16275   3.327   2.950   9.884  1.2745 -0.1351  1.8449
  147SAPE  C31216276   3.399   3.058   9.718 -0.2819 -0.1813  0.3473
  147SAPE  H12X16277   3.458   3.148   9.690 -0.7229  0.4939  1.5126
  147SAPE  H12Y16278   3.293   3.076   9.688  0.8488  1.7116 -3.1472
  147SAPE  C31316279   3.465   2.941   9.644  0.5267  0.4302  0.7701
  147SAPE  H13X16280   3.402   2.850   9.660 -0.9783  1.1751 -0.6287
  147SAPE  H13Y16281   3.566   2.922   9.685  0.4770  2.8416  2.1973
  147SAPE  C31416282   3.492   2.967   9.491 -0.1203 -0.4751 -0.3127
  147SAPE  H14X16283   3.548   3.063   9.489 -0.8652 -0.0011  0.6667
  147SAPE  H14Y16284   3.396   2.998   9.444 -0.5042  0.1343  0.8456
  147SAPE  C31516285   3.559   2.853   9.421 -0.3069 -0.1807 -0.1398
  147SAPE  H15X16286   3.495   2.762   9.428 -3.0524  1.6467  0.0726
  147SAPE  H15Y16287   3.654   2.832   9.476  0.2827  1.5982 -0.4027
  147SAPE  C31616288   3.579   2.888   9.273  0.0022  0.1091  0.3291
  147SAPE  H16X16289   3.605   2.996   9.272 -0.7697  0.3727  2.7795
  147SAPE  H16Y16290   3.477   2.885   9.230 -0.0176 -1.3409  0.4181
  147SAPE  C31716291   3.683   2.801   9.202  0.4692  0.0767  0.0586
  147SAPE  H17X16292   3.658   2.693   9.207  2.0461 -0.2736  1.1425
  147SAPE  H17Y16293   3.770   2.817   9.269  0.4135  1.5259 -0.1695
  147SAPE  C31816294   3.724   2.835   9.060  0.1668 -0.0363 -0.4248
  147SAPE  H18X16295   3.742   2.945   9.059  0.9375 -0.1567 -0.7396
  147SAPE  H18Y16296   3.640   2.825   8.988  1.6554  0.0493 -2.2551
  147SAPE  H18Z16297   3.821   2.787   9.034  1.6672  1.4094  2.0577
  148SAPE     N16298   5.453   5.748  10.576 -0.3984 -0.4057  0.2901
  148SAPE   HN116299   5.495   5.725  10.669  3.2961 -1.7112 -1.4987
  148SAPE   HN216300   5.495   5.836  10.540 -1.3422 -1.0464 -2.6203
  148SAPE   HN316301   5.349   5.747  10.582 -0.3470 -2.2371  1.7221
  148SAPE   C1216302   5.480   5.630  10.489  0.0450  0.4928 -0.2506
  148SAPE  H12A16303   5.540   5.565  10.555  0.1789  1.9891  1.1603
  148SAPE  H12B16304   5.535   5.652  10.395 -0.0240 -0.1642 -0.4504
  148SAPE   C1116305   5.345   5.565  10.456  0.7113 -0.4710 -0.6210
  148SAPE  H11A16306   5.360   5.479  10.387  0.4835 -0.5804 -0.5358
  148SAPE  H11B16307   5.282   5.636  10.397  0.2217  0.6641  1.1870
  148SAPE     P16308   5.119   5.540  10.590 -0.3679 -0.1327 -0.0140
  148SAPE   O1316309   5.070   5.496  10.723 -0.7149  0.6505  0.3231
  148SAPE   O1416310   5.087   5.678  10.545 -1.0289  0.5771  0.4311
  148SAPE   O1216311   5.276   5.511  10.576  0.7542 -0.1275 -0.7492
  148SAPE   O1116312   5.058   5.445  10.472 -0.3883 -0.1858 -0.3539
  148SAPE    C116313   5.079   5.306  10.489 -1.4380 -0.3154  0.0621
  148SAPE    HA16314   5.189   5.289  10.494 -1.4853 -0.5395  0.3597
  148SAPE    HB16315   5.022   5.256  10.570 -1.9122 -0.8995 -0.6188
  148SAPE    C216316   5.030   5.231  10.366  0.0507 -0.2833 -0.0724
  148SAPE    HS16317   5.068   5.127  10.377  1.4819  0.2721  0.3963
  148SAPE   O2116318   5.076   5.302  10.249  0.7164  0.4581 -0.3204
  148SAPE   C2116319   5.196   5.272  10.207 -1.1823  0.5347 -0.2362
  148SAPE   O2216320   5.272   5.193  10.252 -0.7912  0.0714  0.1619
  148SAPE   C2216321   5.223   5.364  10.091 -1.1393 -0.9890  0.3260
  148SAPE   H2R16322   5.124   5.378  10.042 -3.0441 -1.4109  3.7492
  148SAPE   H2S16323   5.257   5.467  10.116  0.4918 -0.7108 -2.5422
  148SAPE    C316324   4.875   5.217  10.364  0.1991 -0.1109 -0.5506
  148SAPE    HX16325   4.842   5.321  10.342 -2.6764 -1.0120 -1.0544
  148SAPE    HY16326   4.844   5.182  10.465 -0.5230  1.3682 -0.2392
  148SAPE   O3116327   4.822   5.132  10.266 -0.2082 -0.0326  0.1433
  148SAPE   C3116328   4.700   5.152  10.235 -0.1140 -0.6056 -0.0607
  148SAPE   O3216329   4.624   5.222  10.297 -0.3623 -0.1164 -0.3386
  148SAPE   C3216330   4.661   5.069  10.110  0.1367 -0.3067 -0.7938
  148SAPE   H2X16331   4.551   5.060  10.125  0.5487 -2.0789  1.8343
  148SAPE   H2Y16332   4.705   4.969  10.128  0.0909  0.2586  3.2803
  148SAPE   C2316333   5.333   5.304  10.002  0.0393  0.1609  0.1967
  148SAPE   H3R16334   5.421   5.263  10.057 -1.4396 -2.1120  1.0361
  148SAPE   H3S16335   5.380   5.385   9.942  0.3622  0.3454  0.6933
  148SAPE   C2416336   5.266   5.197   9.899  0.1050  0.4945 -0.3150
  148SAPE   H4R16337   5.212   5.121   9.959 -1.0596  2.9129  1.9447
  148SAPE   H4S16338   5.346   5.152   9.837  1.8437  2.1396  0.5880
  148SAPE   C2516339   5.174   5.271   9.806  0.2423 -0.0753 -0.1528
  148SAPE   H5R16340   5.072   5.284   9.842  0.1257  0.7547 -0.7614
  148SAPE   C2616341   5.205   5.331   9.685 -0.0401 -0.5570  0.0197
  148SAPE   H6R16342   5.130   5.377   9.619 -1.7071  2.8946  3.8632
  148SAPE   C2716343   5.336   5.342   9.617 -0.4458  0.2897 -0.0658
  148SAPE   H7R16344   5.326   5.263   9.539 -0.2172  1.1617 -1.0086
  148SAPE   H7S16345   5.421   5.299   9.674 -2.1365 -0.8944  1.6485
  148SAPE   C2816346   5.371   5.472   9.562 -0.3809 -0.1984  0.8378
  148SAPE   H8R16347   5.327   5.559   9.612 -2.4404 -1.3189  1.0731
  148SAPE   C2916348   5.427   5.487   9.434 -0.3064 -0.2574  0.2926
  148SAPE   H9R16349   5.431   5.592   9.401  0.2544 -0.1998  0.5300
  148SAPE  C21016350   5.455   5.377   9.331 -0.3016 -0.6147  0.3087
  148SAPE  H10R16351   5.408   5.280   9.353 -0.6691 -0.7273 -0.8899
  148SAPE  H10S16352   5.565   5.358   9.336  0.3492  2.7473  2.5245
  148SAPE  C21116353   5.411   5.421   9.198  0.7381 -0.0395  0.0835
  148SAPE  H11R16354   5.319   5.482   9.194  0.7438 -0.0898 -1.3976
  148SAPE  C21216355   5.457   5.398   9.071  0.3258 -0.3945  0.2735
  148SAPE  H12R16356   5.404   5.452   8.991 -0.7908 -0.3365  1.0349
  148SAPE  C21316357   5.586   5.322   9.047 -0.6028 -0.1066  0.5487
  148SAPE  H13R16358   5.652   5.354   9.131 -1.2963 -1.5990  1.7224
  148SAPE  H13S16359   5.620   5.360   8.948 -2.5485 -0.2069 -0.1930
  148SAPE  C21416360   5.578   5.170   9.062  0.0005 -0.7930 -0.6802
  148SAPE  H14R16361   5.511   5.125   9.137  0.6717 -1.8111 -0.6713
  148SAPE  C21516362   5.614   5.081   8.969 -0.5694  0.3024 -0.7391
  148SAPE  H15R16363   5.602   4.976   8.998  3.7453 -0.5764 -1.4227
  148SAPE  C21616364   5.699   5.099   8.840  0.1993  0.0514 -0.4625
  148SAPE  H16R16365   5.772   5.019   8.814 -1.7102 -1.4547 -1.4285
  148SAPE  H16S16366   5.756   5.194   8.839 -0.5593  0.6545  2.7054
  148SAPE  C21716367   5.606   5.102   8.716 -0.1143 -0.2028  0.0850
  148SAPE  H17R16368   5.560   5.203   8.720 -0.1124 -0.2104  0.3874
  148SAPE  H17S16369   5.528   5.024   8.734 -0.2775  0.1394  0.9244
  148SAPE  C21816370   5.668   5.075   8.584 -0.7796 -0.4806  0.3652
  148SAPE  H18R16371   5.606   5.020   8.509  0.1125 -0.4438 -0.4110
  148SAPE  H18S16372   5.761   5.018   8.605  1.1098  2.6084  0.9601
  148SAPE  C21916373   5.701   5.201   8.501  0.3890 -1.0007  0.5055
  148SAPE  H19R16374   5.787   5.256   8.544 -0.8356  2.2159 -0.8433
  148SAPE  H19S16375   5.618   5.274   8.510 -0.7098 -1.9017 -1.5284
  148SAPE  C22016376   5.737   5.168   8.355 -0.2119 -0.3343 -0.2129
  148SAPE  H20R16377   5.817   5.093   8.338 -0.2268 -0.6002  0.8142
  148SAPE  H20S16378   5.767   5.267   8.315  0.4546 -0.2181  0.5657
  148SAPE  H20T16379   5.645   5.139   8.300 -0.1278  1.2970 -1.2742
  148SAPE   C3316380   4.705   5.133   9.977  0.1797  0.0943 -0.5098
  148SAPE   H3X16381   4.803   5.185   9.974 -0.4458  1.6068  2.1354
  148SAPE   H3Y16382   4.631   5.216   9.969  1.0262  0.9309  0.1240
  148SAPE   C3416383   4.703   5.032   9.868 -0.5183  0.3519  0.0888
  148SAPE   H4X16384   4.620   4.966   9.903  0.6614 -0.6887  1.0114
  148SAPE   H4Y16385   4.793   4.968   9.883 -0.6159  0.3562  0.7383
  148SAPE   C3516386   4.692   5.077   9.721  0.1844  1.1649  0.0134
  148SAPE   H5X16387   4.597   5.135   9.720 -1.9651 -2.1223  0.7225
  148SAPE   H5Y16388   4.680   4.991   9.652  1.7514 -0.2254  1.3814
  148SAPE   C3616389   4.805   5.170   9.677 -0.0623 -0.2653 -0.9132
  148SAPE   H6X16390   4.896   5.112   9.702 -0.7954 -0.3679  1.8578
  148SAPE   H6Y16391   4.795   5.254   9.749 -0.9493 -0.8270 -0.3573
  148SAPE   C3716392   4.796   5.205   9.532  0.0093  0.3009  0.2459
  148SAPE   H7X16393   4.695   5.250   9.528 -0.8615 -1.6331 -1.4579
  148SAPE   H7Y16394   4.801   5.112   9.471  2.0448  0.6442 -0.1681
  148SAPE   C3816395   4.893   5.311   9.473  0.1547  0.3008 -0.3439
  148SAPE   H8X16396   4.995   5.267   9.480  0.1155  0.3982  1.6087
  148SAPE   H8Y16397   4.886   5.398   9.542 -0.2769  1.0451 -1.3106
  148SAPE   C3916398   4.852   5.336   9.330 -0.4839  0.4360  0.0416
  148SAPE   H9X16399   4.742   5.355   9.331 -0.6033 -0.2379  0.3444
  148SAPE   H9Y16400   4.870   5.241   9.275  2.2911 -0.5889  2.4571
  148SAPE  C31016401   4.936   5.449   9.266  0.5013 -0.2910 -0.7198
  148SAPE  H10X16402   5.045   5.433   9.279  1.0483  2.2563 -1.6123
  148SAPE  H10Y16403   4.916   5.539   9.327 -0.2606 -0.9463  0.0250
  148SAPE  C31116404   4.910   5.447   9.113 -1.0490  0.4482 -0.2305
  148SAPE  H11X16405   4.959   5.356   9.072  0.0046  1.6936 -1.8977
  148SAPE  H11Y16406   4.959   5.532   9.061  0.4538  0.6576  1.4290
  148SAPE  C31216407   4.758   5.438   9.069  0.1934 -0.1463  0.3718
  148SAPE  H12X16408   4.709   5.528   9.112  1.0174  0.3934  0.2285
  148SAPE  H12Y16409   4.709   5.348   9.111  0.5068  0.1505  1.4066
  148SAPE  C31316410   4.749   5.421   8.918 -0.0417 -0.7995 -0.7841
  148SAPE  H13X16411   4.772   5.314   8.897  1.7839 -0.7071  0.5260
  148SAPE  H13Y16412   4.822   5.482   8.862  0.6506 -1.8717 -1.0751
  148SAPE  C31416413   4.604   5.422   8.861 -0.2139 -0.0702 -0.4335
  148SAPE  H14X16414   4.537   5.389   8.943  0.8713  1.1042  0.9938
  148SAPE  H14Y16415   4.593   5.347   8.780  0.4142 -0.0456 -0.5462
  148SAPE  C31516416   4.551   5.555   8.801 -0.0726 -0.1791  0.4138
  148SAPE  H15X16417   4.448   5.532   8.766  0.3251 -1.9030  0.2870
  148SAPE  H15Y16418   4.624   5.581   8.722 -0.6766  1.8786  0.4906
  148SAPE  C31616419   4.533   5.676   8.903  1.0485 -0.2424  0.1485
  148SAPE  H16X16420   4.629   5.714   8.943  1.4180 -1.2205  0.2099
  148SAPE  H16Y16421   4.479   5.632   8.989  0.1307  1.2956  0.3887
  148SAPE  C31716422   4.437   5.789   8.852 -0.3248  0.3457 -0.1804
  148SAPE  H17X16423   4.336   5.750   8.830 -1.4409  1.1956  2.8711
  148SAPE  H17Y16424   4.499   5.834   8.772 -0.1161  0.8239  0.2404
  148SAPE  C31816425   4.418   5.902   8.955 -0.4678 -0.7118 -0.6324
  148SAPE  H18X16426   4.331   5.888   9.022 -1.0807  0.6506 -1.1140
  148SAPE  H18Y16427   4.387   5.992   8.899  2.2969  0.8529  0.1793
  148SAPE  H18Z16428   4.511   5.926   9.010  0.2457  0.4286 -2.2803
  149SAPE     N16429   6.087   0.832  11.283 -0.0628  0.0860  0.2423
  149SAPE   HN116430   6.149   0.915  11.278 -0.3108  0.2293 -0.8113
  149SAPE   HN216431   6.063   0.790  11.191 -1.0864 -0.0321  0.5559
  149SAPE   HN316432   5.995   0.862  11.322 -0.9516  0.2630 -1.8420
  149SAPE   C1216433   6.163   0.756  11.384 -0.3470 -0.6924  0.2495
  149SAPE  H12A16434   6.095   0.669  11.398 -2.8582  1.0769 -0.4020
  149SAPE  H12B16435   6.177   0.819  11.475 -0.1935  1.8746 -1.4490
  149SAPE   C1116436   6.310   0.713  11.352  0.1345 -0.2257 -0.3501
  149SAPE  H11A16437   6.364   0.676  11.443  3.9907  1.8406 -1.5654
  149SAPE  H11B16438   6.369   0.800  11.317  0.9374 -1.2646 -1.7057
  149SAPE     P16439   6.415   0.574  11.162  0.0400  0.0110 -0.0609
  149SAPE   O1316440   6.517   0.492  11.232  0.0895  0.7866  0.4344
  149SAPE   O1416441   6.360   0.509  11.040 -0.0749 -0.5722  0.0401
  149SAPE   O1216442   6.301   0.612  11.254 -0.5387 -0.1930  0.2900
  149SAPE   O1116443   6.477   0.708  11.122 -0.4301 -0.0864  0.5241
  149SAPE    C116444   6.414   0.810  11.036  0.3403  0.2842 -0.2192
  149SAPE    HA16445   6.308   0.798  11.004  0.3211 -0.0794 -0.0320
  149SAPE    HB16446   6.416   0.903  11.096 -0.9653 -1.6055  3.0086
  149SAPE    C216447   6.500   0.829  10.908 -0.1347 -0.2120  0.3569
  149SAPE    HS16448   6.455   0.920  10.863 -3.6759 -0.5462  2.8062
  149SAPE   O2116449   6.480   0.714  10.818 -0.1255 -0.5973 -0.1933
  149SAPE   C2116450   6.387   0.725  10.728 -0.6138 -0.1346  0.9047
  149SAPE   O2216451   6.305   0.811  10.721 -0.1404 -0.6401 -0.8004
  149SAPE   C2216452   6.396   0.610  10.628  0.4061  0.1129 -0.6422
  149SAPE   H2R16453   6.395   0.514  10.685 -2.4460  1.1291  1.2409
  149SAPE   H2S16454   6.302   0.615  10.569  0.1194 -1.4540 -0.3733
  149SAPE    C316455   6.647   0.843  10.943  0.5458  0.1830  0.3917
  149SAPE    HX16456   6.695   0.761  11.000  0.2978  0.8706  1.6490
  149SAPE    HY16457   6.649   0.926  11.018  1.6128 -1.9008  2.7939
  149SAPE   O3116458   6.728   0.882  10.833  0.1370  0.0098  0.0285
  149SAPE   C3116459   6.783   0.781  10.760 -0.2818  0.2668 -0.3756
  149SAPE   O3216460   6.790   0.661  10.798 -0.2626 -0.8586  0.2734
  149SAPE   C3216461   6.832   0.834  10.623  0.0912  0.0270 -0.0181
  149SAPE   H2X16462   6.873   0.938  10.628 -3.7362  1.7532 -0.7109
  149SAPE   H2Y16463   6.745   0.837  10.554 -0.5078 -1.3354  0.6386
  149SAPE   C2316464   6.519   0.614  10.524 -0.2159 -0.5098 -0.4007
  149SAPE   H3R16465   6.604   0.587  10.590  0.3084 -2.1256 -1.6579
  149SAPE   H3S16466   6.551   0.713  10.487  2.6705 -0.6390  1.4818
  149SAPE   C2416467   6.527   0.497  10.423 -0.1161 -0.1779  0.7157
  149SAPE   H4R16468   6.486   0.414  10.484 -0.3142  0.2979  1.2461
  149SAPE   H4S16469   6.632   0.467  10.407  0.3865 -0.1618  3.4601
  149SAPE   C2516470   6.460   0.540  10.300  0.3757 -0.3738  0.8210
  149SAPE   H5R16471   6.352   0.521  10.303  0.6661 -2.0791  1.6118
  149SAPE   C2616472   6.515   0.613  10.200  0.1873  0.1076 -0.3971
  149SAPE   H6R16473   6.462   0.650  10.111 -0.3594  2.1749  0.7182
  149SAPE   C2716474   6.659   0.653  10.205 -0.6760  0.0480  0.1872
  149SAPE   H7R16475   6.708   0.659  10.305 -0.0270 -0.3691 -0.0981
  149SAPE   H7S16476   6.658   0.752  10.156 -0.1078 -1.3811 -2.9426
  149SAPE   C2816477   6.762   0.570  10.129 -0.9445  0.1962  0.5703
  149SAPE   H8R16478   6.821   0.507  10.197 -2.9324  0.0640  2.2692
  149SAPE   C2916479   6.778   0.565   9.996  0.7590 -0.5744 -0.4022
  149SAPE   H9R16480   6.870   0.518   9.957  1.8813  0.6481  0.6937
  149SAPE  C21016481   6.701   0.649   9.901  0.7130  0.3128 -0.9669
  149SAPE  H10R16482   6.757   0.703   9.821 -1.0644 -0.5036 -2.8425
  149SAPE  H10S16483   6.642   0.728   9.951 -2.7739  0.7536 -5.1956
  149SAPE  C21116484   6.600   0.562   9.838 -0.8995  0.3745 -0.8673
  149SAPE  H11R16485   6.540   0.507   9.913  1.8447 -0.0606  1.1728
  149SAPE  C21216486   6.575   0.548   9.704 -0.3824 -0.4686  0.3204
  149SAPE  H12R16487   6.496   0.480   9.671 -0.6464  0.8496 -1.9867
  149SAPE  C21316488   6.643   0.622   9.589  0.0702  0.3291  0.0492
  149SAPE  H13R16489   6.741   0.573   9.572 -1.3333 -1.6781 -3.0851
  149SAPE  H13S16490   6.660   0.729   9.612 -1.2148  0.3860  0.8231
  149SAPE  C21416491   6.562   0.631   9.467 -0.0921  0.0807  0.1795
  149SAPE  H14R16492   6.476   0.699   9.477  0.4617  1.0706 -1.3818
  149SAPE  C21516493   6.577   0.569   9.351 -0.0792  0.4209  0.0297
  149SAPE  H15R16494   6.509   0.595   9.268  0.8316  2.4077 -0.1356
  149SAPE  C21616495   6.687   0.475   9.306  0.1344  0.0119  0.1604
  149SAPE  H16R16496   6.754   0.431   9.384  1.6233 -0.5815 -1.3942
  149SAPE  H16S16497   6.748   0.530   9.232 -1.5064  1.9855  0.1832
  149SAPE  C21716498   6.621   0.343   9.253  0.0388 -0.3687  0.0001
  149SAPE  H17R16499   6.567   0.284   9.330  1.8394 -2.6163 -0.3508
  149SAPE  H17S16500   6.704   0.277   9.220 -0.8807 -0.0897 -3.2966
  149SAPE  C21816501   6.536   0.357   9.129  1.3421  0.0768  0.5231
  149SAPE  H18R16502   6.434   0.399   9.142 -0.1536 -1.9510 -3.1024
  149SAPE  H18S16503   6.519   0.254   9.090  3.1757 -0.1870  0.3021
  149SAPE  C21916504   6.602   0.433   9.020 -0.5814 -0.2877 -0.4008
  149SAPE  H19R16505   6.694   0.381   8.985 -0.6340  0.1299 -1.1723
  149SAPE  H19S16506   6.633   0.529   9.067  2.2248 -1.5202  0.4596
  149SAPE  C22016507   6.508   0.455   8.899  0.1240  0.7228 -0.0638
  149SAPE  H20R16508   6.440   0.540   8.920  3.3900  4.1340 -1.8318
  149SAPE  H20S16509   6.459   0.365   8.857  0.6402  0.3319  0.1615
  149SAPE  H20T16510   6.564   0.497   8.812 -4.5047  0.3783 -3.5605
  149SAPE   C3316511   6.937   0.751  10.549  0.1859 -0.1238 -0.2833
  149SAPE   H3X16512   6.921   0.641  10.550 -0.6075 -0.0295  1.7000
  149SAPE   H3Y16513   7.038   0.762  10.594  0.2961  1.5859 -0.9016
  149SAPE   C3416514   6.948   0.798  10.401  0.3629 -0.2125 -0.5954
  149SAPE   H4X16515   6.842   0.792  10.366  0.7435  2.9217 -2.6477
  149SAPE   H4Y16516   7.012   0.730  10.341 -0.2609  0.5078 -2.1424
  149SAPE   C3516517   7.005   0.935  10.385  0.2153 -0.6520  0.3248
  149SAPE   H5X16518   7.087   0.949  10.460  0.7118  1.7778 -0.5733
  149SAPE   H5Y16519   6.926   1.005  10.421 -0.2019 -0.6955 -0.4790
  149SAPE   C3616520   7.053   0.978  10.241 -0.3159  0.0319  0.1381
  149SAPE   H6X16521   7.147   0.923  10.219 -0.1911  0.2322  0.1642
  149SAPE   H6Y16522   7.066   1.088  10.248  1.3168 -0.0240 -1.3441
  149SAPE   C3716523   6.954   0.948  10.129 -1.0716 -0.7731 -0.5150
  149SAPE   H7X16524   6.864   1.009  10.151 -0.3002  0.2623 -0.1748
  149SAPE   H7Y16525   6.927   0.840  10.124  0.9543 -1.3360 -0.2088
  149SAPE   C3816526   6.999   0.991   9.994 -1.5026 -0.0204 -0.0823
  149SAPE   H8X16527   7.104   0.962   9.972 -2.4184 -3.1826 -0.8665
  149SAPE   H8Y16528   7.004   1.102   9.986 -0.6450 -0.0072  0.5205
  149SAPE   C3916529   6.904   0.943   9.881  0.1366 -0.4846  0.2963
  149SAPE   H9X16530   6.802   0.962   9.919  0.0442  0.0776 -0.2181
  149SAPE   H9Y16531   6.915   0.837   9.852 -0.2408 -0.2396 -0.8031
  149SAPE  C31016532   6.938   1.024   9.749  0.2350 -0.1634 -0.3609
  149SAPE  H10X16533   7.046   1.009   9.726  0.2382 -0.9501  0.1101
  149SAPE  H10Y16534   6.930   1.130   9.782 -0.9358 -1.0520  2.5589
  149SAPE  C31116535   6.854   0.979   9.633 -0.1896 -0.2331 -0.1988
  149SAPE  H11X16536   6.744   0.985   9.645 -0.1342 -0.5258  0.4386
  149SAPE  H11Y16537   6.877   0.873   9.609 -1.5995 -1.2795  2.6114
  149SAPE  C31216538   6.884   1.054   9.499  0.2369 -0.6298 -0.5396
  149SAPE  H12X16539   6.990   1.053   9.464  0.2985 -1.0378 -0.3523
  149SAPE  H12Y16540   6.858   1.158   9.530  0.2265 -0.3901 -1.3440
  149SAPE  C31316541   6.806   1.014   9.372 -0.0888  0.3439  1.0085
  149SAPE  H13X16542   6.785   1.100   9.305 -2.1861 -1.1598 -0.3803
  149SAPE  H13Y16543   6.711   0.971   9.409  0.7303  0.1939  3.0916
  149SAPE  C31416544   6.877   0.898   9.294 -0.0629  0.0251 -0.4175
  149SAPE  H14X16545   6.896   0.809   9.358  1.0770  0.9163  0.5498
  149SAPE  H14Y16546   6.977   0.935   9.261  0.0126  0.3066  0.1104
  149SAPE  C31516547   6.817   0.837   9.166 -0.3795 -0.4884  0.4874
  149SAPE  H15X16548   6.715   0.793   9.175 -1.4690  1.1635 -2.2555
  149SAPE  H15Y16549   6.886   0.754   9.140 -1.1623 -0.4411 -1.9941
  149SAPE  C31616550   6.820   0.940   9.055  0.7882  0.3127 -0.0306
  149SAPE  H16X16551   6.858   1.040   9.087  0.0126  0.9941 -1.1752
  149SAPE  H16Y16552   6.717   0.961   9.020  0.1308 -1.1008  0.9399
  149SAPE  C31716553   6.901   0.894   8.931  0.1044 -0.0023  0.4633
  149SAPE  H17X16554   6.856   0.803   8.886  0.4915  0.8359 -1.7543
  149SAPE  H17Y16555   6.994   0.854   8.976 -1.0016 -2.9006  0.4175
  149SAPE  C31816556   6.927   1.005   8.822  0.1003  0.1442  0.3274
  149SAPE  H18X16557   6.998   0.961   8.750  0.5030 -0.9960  1.3822
  149SAPE  H18Y16558   6.972   1.101   8.858 -0.1400  1.2675 -2.1700
  149SAPE  H18Z16559   6.842   1.034   8.757  0.4902  0.8775  0.1296
  150SAPE     N16560   2.495   6.089  11.181  0.5103  0.2400 -0.2479
  150SAPE   HN116561   2.595   6.067  11.162  0.6117 -1.8498  2.2184
  150SAPE   HN216562   2.479   6.186  11.148  4.1756  0.7310 -1.0461
  150SAPE   HN316563   2.484   6.085  11.284  2.2780  1.0676  0.0054
  150SAPE   C1216564   2.414   5.993  11.097  0.5422 -0.0633 -0.4531
  150SAPE  H12A16565   2.320   5.958  11.147  0.6778  0.1325 -0.0597
  150SAPE  H12B16566   2.472   5.899  11.080 -0.3418 -0.3179 -2.3303
  150SAPE   C1116567   2.388   6.042  10.957  0.4360 -0.0447  0.3792
  150SAPE  H11A16568   2.347   5.954  10.904  0.3588 -1.1080  2.1344
  150SAPE  H11B16569   2.484   6.070  10.908  0.9646 -0.7670  0.9683
  150SAPE     P16570   2.312   6.292  10.949 -0.3972  0.3849 -0.0436
  150SAPE   O1316571   2.188   6.366  10.936  0.1859 -0.5256 -0.2671
  150SAPE   O1416572   2.402   6.326  11.061  0.0394  0.2148 -0.1804
  150SAPE   O1216573   2.283   6.141  10.960 -0.2668 -0.0522 -0.1991
  150SAPE   O1116574   2.397   6.313  10.821  0.7355 -0.3931 -0.5665
  150SAPE    C116575   2.350   6.264  10.697 -0.1165  0.3661  0.1629
  150SAPE    HA16576   2.381   6.158  10.691 -0.1162 -0.1269  5.0858
  150SAPE    HB16577   2.242   6.279  10.672 -0.3580 -1.0572  0.2996
  150SAPE    C216578   2.427   6.324  10.583 -0.2628 -0.0745  0.3403
  150SAPE    HS16579   2.533   6.318  10.614 -0.6781  0.6970  2.0518
  150SAPE   O2116580   2.391   6.464  10.563 -0.1830  0.5886 -0.0169
  150SAPE   C2116581   2.498   6.535  10.533  0.3683  0.4903 -0.3541
  150SAPE   O2216582   2.611   6.497  10.511  0.1968 -0.3178 -0.2626
  150SAPE   C2216583   2.444   6.679  10.500 -0.2386  0.0733 -0.8388
  150SAPE   H2R16584   2.416   6.730  10.594  0.8278 -1.5340  0.4063
  150SAPE   H2S16585   2.532   6.733  10.459 -2.4388  1.6457 -3.8467
  150SAPE    C316586   2.408   6.250  10.450  0.3360 -0.1717 -0.0381
  150SAPE    HX16587   2.438   6.144  10.470 -1.4106 -0.2996  2.3828
  150SAPE    HY16588   2.474   6.285  10.367 -0.5363 -1.1760 -1.2042
  150SAPE   O3116589   2.273   6.257  10.391 -0.0507 -0.2501 -0.7719
  150SAPE   C3116590   2.234   6.154  10.309  0.6854 -0.5286 -0.4141
  150SAPE   O3216591   2.308   6.075  10.261 -0.3394 -0.1348  0.0001
  150SAPE   C3216592   2.087   6.161  10.270  0.3252 -0.5537 -0.0479
  150SAPE   H2X16593   2.072   6.257  10.216 -3.3923 -0.0837  1.5349
  150SAPE   H2Y16594   2.033   6.164  10.367  2.0553 -2.8125  1.0750
  150SAPE   C2316595   2.336   6.676  10.395  0.0842 -0.3579  0.2624
  150SAPE   H3R16596   2.285   6.775  10.391  0.3033 -0.2536  0.0481
  150SAPE   H3S16597   2.258   6.602  10.424  1.2674 -1.9964 -0.5371
  150SAPE   C2416598   2.387   6.638  10.256  0.0264 -0.5162  0.0154
  150SAPE   H4R16599   2.458   6.554  10.272 -0.3472 -0.5116  1.8667
  150SAPE   H4S16600   2.460   6.709  10.211  1.1493 -1.4440  0.3058
  150SAPE   C2516601   2.273   6.618  10.159  0.0374  0.2576  0.1928
  150SAPE   H5R16602   2.191   6.690  10.175  0.4828  0.4346  1.9247
  150SAPE   C2616603   2.258   6.532  10.059  0.1743  0.3685 -0.3543
  150SAPE   H6R16604   2.163   6.531  10.004  1.5040 -1.4803 -2.8402
  150SAPE   C2716605   2.355   6.425  10.015 -0.0223  0.7484  0.3876
  150SAPE   H7R16606   2.412   6.380  10.099  0.2224  0.6813  0.1868
  150SAPE   H7S16607   2.433   6.472   9.952  1.5433 -0.3247  1.4331
  150SAPE   C2816608   2.292   6.302   9.944 -0.7241 -0.5705 -0.3925
  150SAPE   H8R16609   2.297   6.208  10.000 -1.3793  0.2434  1.0806
  150SAPE   C2916610   2.231   6.311   9.825 -0.3500  0.2387 -0.1683
  150SAPE   H9R16611   2.195   6.217   9.780 -1.5988  0.8429 -0.4779
  150SAPE  C21016612   2.225   6.435   9.737  0.0852 -0.1937 -0.0794
  150SAPE  H10R16613   2.250   6.525   9.798  0.7682  0.9629 -1.9630
  150SAPE  H10S16614   2.129   6.445   9.682  0.5968 -2.1088 -1.4143
  150SAPE  C21116615   2.335   6.448   9.632 -0.3685 -0.2935 -0.6969
  150SAPE  H11R16616   2.429   6.409   9.671 -0.5328  1.5240  1.7455
  150SAPE  C21216617   2.318   6.493   9.506 -0.0395 -0.3242 -0.2952
  150SAPE  H12R16618   2.408   6.503   9.443  0.0001 -2.4687 -0.6715
  150SAPE  C21316619   2.182   6.543   9.447  0.2954  1.1134 -0.1806
  150SAPE  H13R16620   2.196   6.639   9.394 -1.0888  0.3327 -2.0768
  150SAPE  H13S16621   2.107   6.571   9.524 -0.2548 -0.0557 -0.2717
  150SAPE  C21416622   2.111   6.452   9.351 -0.6549  0.2009  0.5193
  150SAPE  H14R16623   2.042   6.384   9.403  0.7270 -0.3786  1.6701
  150SAPE  C21516624   2.123   6.455   9.220  0.0647  0.3161  0.2905
  150SAPE  H15R16625   2.051   6.394   9.163 -2.6452  1.1372  2.6404
  150SAPE  C21616626   2.216   6.549   9.142  0.3096  0.7471 -0.0089
  150SAPE  H16R16627   2.264   6.482   9.067  1.1300 -0.7445  1.7671
  150SAPE  H16S16628   2.288   6.599   9.210  0.5797  0.3605 -0.0037
  150SAPE  C21716629   2.134   6.658   9.062  0.2272 -0.1878 -0.9448
  150SAPE  H17R16630   2.206   6.736   9.028 -1.1907  0.5555 -2.3619
  150SAPE  H17S16631   2.064   6.715   9.127  0.6406 -0.5759 -0.1345
  150SAPE  C21816632   2.060   6.598   8.938 -0.4035 -0.0323 -0.3135
  150SAPE  H18R16633   1.999   6.510   8.967  0.1026  0.1823  1.5470
  150SAPE  H18S16634   2.137   6.553   8.872  0.2389 -1.1729  1.1605
  150SAPE  C21916635   1.972   6.703   8.878  0.2448 -0.8458  0.0705
  150SAPE  H19R16636   2.024   6.799   8.861 -0.4387 -0.4068  0.3957
  150SAPE  H19S16637   1.888   6.736   8.943  1.8674 -1.1979  2.4720
  150SAPE  C22016638   1.909   6.645   8.753  0.6601 -0.3887 -0.6201
  150SAPE  H20R16639   1.823   6.581   8.781  0.4956 -0.0310 -0.2980
  150SAPE  H20S16640   1.978   6.590   8.687  0.8429 -1.0986  0.1417
  150SAPE  H20T16641   1.861   6.721   8.688  0.1263 -1.7262 -1.8114
  150SAPE   C3316642   2.029   6.065  10.168  0.7027  1.0615  0.0243
  150SAPE   H3X16643   2.050   5.961  10.201 -0.2833  1.0095  0.5085
  150SAPE   H3Y16644   2.068   6.078  10.065 -2.2160  0.4447 -1.2706
  150SAPE   C3416645   1.875   6.072  10.150  0.4848  0.1622  0.0339
  150SAPE   H4X16646   1.857   6.175  10.112 -1.8655 -0.2871 -0.2706
  150SAPE   H4Y16647   1.827   6.066  10.250  0.4058 -0.0923 -0.0177
  150SAPE   C3516648   1.803   5.968  10.057 -0.5350 -0.0202 -0.5186
  150SAPE   H5X16649   1.829   5.861  10.073  0.1776 -0.2166 -2.6614
  150SAPE   H5Y16650   1.825   6.006   9.955 -0.3998 -1.3899 -1.0249
  150SAPE   C3616651   1.650   5.980  10.052  0.9452  0.6362 -0.4377
  150SAPE   H6X16652   1.617   6.086  10.043  2.9997  1.5746  1.9468
  150SAPE   H6Y16653   1.597   5.946  10.144 -1.9737  1.9235 -1.5305
  150SAPE   C3716654   1.593   5.893   9.934  0.3880  0.7359 -0.6851
  150SAPE   H7X16655   1.639   5.793   9.943  0.4014  0.8241  0.3390
  150SAPE   H7Y16656   1.636   5.937   9.842  0.0188  2.4677 -0.0752
  150SAPE   C3816657   1.438   5.879   9.938 -0.2361 -0.1374  0.4355
  150SAPE   H8X16658   1.397   5.982   9.947  0.0572 -0.0292  0.5506
  150SAPE   H8Y16659   1.408   5.824  10.029 -2.7524  0.6628  0.1639
  150SAPE   C3916660   1.374   5.805   9.813 -0.0761  0.2064  0.3920
  150SAPE   H9X16661   1.264   5.812   9.818 -0.1904 -1.3597  0.6057
  150SAPE   H9Y16662   1.392   5.695   9.825 -0.9531 -0.0165 -0.2842
  150SAPE  C31016663   1.430   5.850   9.683  0.2565 -0.2311 -0.1059
  150SAPE  H10X16664   1.540   5.845   9.674  0.3432  0.6951  0.3253
  150SAPE  H10Y16665   1.403   5.956   9.663  0.6347 -0.4106 -1.6999
  150SAPE  C31116666   1.380   5.762   9.568 -0.4300  0.0468 -0.0835
  150SAPE  H11X16667   1.270   5.749   9.581 -0.4863 -2.5249 -2.1435
  150SAPE  H11Y16668   1.425   5.661   9.579 -0.5033 -0.1628 -1.4927
  150SAPE  C31216669   1.429   5.813   9.428  0.0072 -0.5697 -0.1738
  150SAPE  H12X16670   1.532   5.772   9.418  0.1914 -0.5532  1.4304
  150SAPE  H12Y16671   1.438   5.922   9.447 -1.6249 -0.7958  2.3901
  150SAPE  C31316672   1.343   5.768   9.307  0.4579 -0.8909  0.1018
  150SAPE  H13X16673   1.236   5.792   9.326 -0.3770 -1.7012 -2.9127
  150SAPE  H13Y16674   1.343   5.657   9.306 -1.8815 -0.9504  0.5022
  150SAPE  C31416675   1.400   5.818   9.171 -0.5514  0.3726 -0.1600
  150SAPE  H14X16676   1.458   5.735   9.126 -1.4497 -0.8165  0.8043
  150SAPE  H14Y16677   1.472   5.903   9.171 -2.5057  2.1565 -1.2404
  150SAPE  C31516678   1.284   5.845   9.068  0.3690  0.0823  0.4272
  150SAPE  H15X16679   1.261   5.954   9.069  1.0625  0.2369  0.4147
  150SAPE  H15Y16680   1.194   5.784   9.090  0.2192  1.0574  2.7666
  150SAPE  C31616681   1.322   5.816   8.916 -0.2551 -0.2826 -0.6843
  150SAPE  H16X16682   1.227   5.826   8.859  0.0223 -0.3211 -1.1657
  150SAPE  H16Y16683   1.362   5.714   8.899 -0.9122 -0.9790  1.5984
  150SAPE  C31716684   1.438   5.907   8.879  0.3187 -0.4924  0.9787
  150SAPE  H17X16685   1.517   5.908   8.957  1.4025  1.9377 -0.0710
  150SAPE  H17Y16686   1.400   6.011   8.875 -1.9707 -1.3167 -0.0028
  150SAPE  C31816687   1.504   5.869   8.743  0.1641 -0.3663 -0.0276
  150SAPE  H18X16688   1.581   5.947   8.725  0.0646 -0.5443 -1.2757
  150SAPE  H18Y16689   1.429   5.868   8.661  1.7249 -0.7917 -1.4873
  150SAPE  H18Z16690   1.549   5.768   8.754  1.5761  0.2330 -0.1136
  151SAPE     N16691   4.616   3.753  10.756  0.1600  0.8335 -0.4522
  151SAPE   HN116692   4.538   3.703  10.803  1.2767 -1.6117 -1.0475
  151SAPE   HN216693   4.703   3.697  10.765  0.0490  0.5392 -1.1777
  151SAPE   HN316694   4.626   3.847  10.800  0.6334 -0.5317  2.5858
  151SAPE   C1216695   4.590   3.766  10.606 -0.1233 -0.7850  0.2955
  151SAPE  H12A16696   4.505   3.837  10.598  0.1139 -0.4580  0.6800
  151SAPE  H12B16697   4.552   3.665  10.577 -2.2988  0.1143 -0.1583
  151SAPE   C1116698   4.717   3.805  10.532  0.5979  0.3373  0.2418
  151SAPE  H11A16699   4.737   3.914  10.545 -0.1564  0.6964 -1.4026
  151SAPE  H11B16700   4.704   3.788  10.423 -0.2098  2.2289 -0.0017
  151SAPE     P16701   4.890   3.590  10.544 -0.3896 -0.0995 -0.0815
  151SAPE   O1316702   5.008   3.564  10.629  0.3847 -0.0042  0.5649
  151SAPE   O1416703   4.775   3.501  10.564 -0.4389 -0.1665 -0.5693
  151SAPE   O1216704   4.833   3.737  10.587  0.1337  0.5962 -0.2410
  151SAPE   O1116705   4.934   3.608  10.392 -0.3713 -0.2170  0.3521
  151SAPE    C116706   5.047   3.545  10.337 -0.6664 -0.3935  0.6990
  151SAPE    HA16707   5.079   3.460  10.401  0.5770 -2.3390 -2.2789
  151SAPE    HB16708   5.006   3.493  10.248  1.9555  0.4625 -1.1110
  151SAPE    C216709   5.170   3.633  10.298 -0.1317 -0.4389  0.1958
  151SAPE    HS16710   5.209   3.675  10.393  0.3418 -0.7762  0.1579
  151SAPE   O2116711   5.114   3.738  10.221 -0.6307  0.2244 -0.0619
  151SAPE   C2116712   5.194   3.852  10.229 -0.3520 -0.4399  0.7161
  151SAPE   O2216713   5.304   3.862  10.280 -0.4053 -0.0636 -0.5819
  151SAPE   C2216714   5.132   3.959  10.138 -0.0701  0.3179  0.0893
  151SAPE   H2R16715   5.064   3.913  10.064 -0.1208  0.6778 -0.0925
  151SAPE   H2S16716   5.080   4.038  10.196  1.4488  1.3120  0.1594
  151SAPE    C316717   5.280   3.554  10.217  1.1592  0.3560  0.8857
  151SAPE    HX16718   5.316   3.463  10.270 -1.2822 -1.6866 -0.7252
  151SAPE    HY16719   5.358   3.633  10.208 -1.3353  2.8900 -0.1436
  151SAPE   O3116720   5.224   3.530  10.083 -0.3716  0.1131  0.6323
  151SAPE   C3116721   5.322   3.474  10.010 -0.7914 -0.1570 -0.0129
  151SAPE   O3216722   5.439   3.469  10.047  0.4244 -0.5174 -0.6656
  151SAPE   C3216723   5.270   3.422   9.876 -0.2023  0.2930 -0.2938
  151SAPE   H2X16724   5.170   3.470   9.868 -0.3959 -0.3272 -2.1291
  151SAPE   H2Y16725   5.250   3.313   9.878 -2.1868  0.6132 -0.2789
  151SAPE   C2316726   5.243   4.030  10.060 -0.5703  1.0256  0.6940
  151SAPE   H3R16727   5.318   4.074  10.130 -0.6412 -1.1449  2.2475
  151SAPE   H3S16728   5.211   4.116   9.998  0.8734  1.6542  0.7840
  151SAPE   C2416729   5.319   3.934   9.962 -0.0546  0.4255 -0.5052
  151SAPE   H4R16730   5.383   3.871  10.027 -0.4345  1.3596  0.8290
  151SAPE   H4S16731   5.383   3.992   9.892 -0.0277  1.6611  0.5024
  151SAPE   C2516732   5.231   3.849   9.876  0.0811 -0.6502  0.3311
  151SAPE   H5R16733   5.210   3.750   9.919  2.2997 -2.2709 -1.9797
  151SAPE   C2616734   5.186   3.882   9.753  0.0640 -0.0428  0.3294
  151SAPE   H6R16735   5.131   3.804   9.697  2.6155 -1.8902  0.2530
  151SAPE   C2716736   5.218   4.015   9.689 -0.0718  0.1999  0.9463
  151SAPE   H7R16737   5.311   4.005   9.630 -0.0003 -2.2423  1.3689
  151SAPE   H7S16738   5.235   4.096   9.763  0.0373  1.5036 -0.4655
  151SAPE   C2816739   5.095   4.051   9.606  0.4054  0.3589 -0.6560
  151SAPE   H8R16740   5.016   4.089   9.672  0.7183 -2.5365  1.6214
  151SAPE   C2916741   5.081   4.039   9.472 -0.4027  0.2823 -0.7173
  151SAPE   H9R16742   4.986   4.069   9.427 -1.1662 -0.3648  0.4315
  151SAPE  C21016743   5.192   3.993   9.372 -0.2693 -0.5554  0.5383
  151SAPE  H10R16744   5.276   3.939   9.421  0.0646 -0.7408 -0.2173
  151SAPE  H10S16745   5.255   4.080   9.343  0.4543 -0.8205  1.2640
  151SAPE  C21116746   5.151   3.905   9.260  0.7868 -0.7880  0.5939
  151SAPE  H11R16747   5.086   3.822   9.291 -1.6300 -0.0287 -2.0221
  151SAPE  C21216748   5.183   3.910   9.133 -0.0824 -0.3275  0.8821
  151SAPE  H12R16749   5.136   3.830   9.075 -2.0834  2.3823 -1.5362
  151SAPE  C21316750   5.270   4.004   9.051 -0.0794 -0.8964 -0.5016
  151SAPE  H13R16751   5.320   3.939   8.975 -1.6647  0.5969 -2.9758
  151SAPE  H13S16752   5.341   4.044   9.127 -0.5777  1.6382 -1.2646
  151SAPE  C21416753   5.200   4.114   8.977 -1.0608 -0.6051  0.1110
  151SAPE  H14R16754   5.175   4.207   9.031 -1.2044 -0.5275 -0.0864
  151SAPE  C21516755   5.177   4.106   8.846 -0.3826  0.0929 -0.6340
  151SAPE  H15R16756   5.135   4.192   8.792 -2.8619 -1.2310 -0.9786
  151SAPE  C21616757   5.205   3.987   8.756 -0.1376 -0.1296 -0.3671
  151SAPE  H16R16758   5.167   3.888   8.789 -0.8884  0.1908 -0.2376
  151SAPE  H16S16759   5.315   3.979   8.746 -0.0778  1.0475 -0.7871
  151SAPE  C21716760   5.157   4.017   8.606 -0.3957  0.2965  0.6044
  151SAPE  H17R16761   5.184   4.121   8.581  0.7689  0.0537  0.7974
  151SAPE  H17S16762   5.051   4.000   8.577 -0.4030 -0.9595  1.2891
  151SAPE  C21816763   5.229   3.922   8.514 -0.6261  0.0648  0.3591
  151SAPE  H18R16764   5.198   3.819   8.543 -0.6104  0.8199  3.2667
  151SAPE  H18S16765   5.337   3.921   8.539 -0.8541 -0.9581  1.4006
  151SAPE  C21916766   5.223   3.949   8.363 -0.7476  0.4168 -0.3219
  151SAPE  H19R16767   5.284   3.872   8.312  3.3952  2.0855  1.5776
  151SAPE  H19S16768   5.268   4.049   8.344  0.9325 -0.5692 -1.8318
  151SAPE  C22016769   5.088   3.926   8.295 -0.9321 -0.0619  0.0356
  151SAPE  H20R16770   5.008   3.999   8.320 -0.8828  0.3826 -1.0775
  151SAPE  H20S16771   5.053   3.822   8.309  0.1677 -0.5033 -0.4575
  151SAPE  H20T16772   5.105   3.925   8.186 -1.6484 -0.6370 -0.0781
  151SAPE   C3316773   5.359   3.483   9.765  0.1955  1.0795  0.2957
  151SAPE   H3X16774   5.468   3.465   9.784 -0.1152 -0.9635  0.3884
  151SAPE   H3Y16775   5.354   3.594   9.775 -1.1742  0.9313  1.6028
  151SAPE   C3416776   5.324   3.418   9.628  0.2392  0.0338  0.3876
  151SAPE   H4X16777   5.314   3.309   9.646 -0.0954  0.1548  0.9649
  151SAPE   H4Y16778   5.410   3.428   9.560 -0.8915  1.1813 -0.9329
  151SAPE   C3516779   5.214   3.499   9.553 -0.2136  0.3161  0.2232
  151SAPE   H5X16780   5.228   3.605   9.584  0.4699  0.3465 -0.1733
  151SAPE   H5Y16781   5.114   3.463   9.586 -0.2982 -0.4010 -0.7434
  151SAPE   C3616782   5.227   3.491   9.399  0.7775 -0.0536 -0.7351
  151SAPE   H6X16783   5.324   3.537   9.372  1.3586 -0.0145  1.2907
  151SAPE   H6Y16784   5.144   3.558   9.367  0.6089 -0.6099 -1.4808
  151SAPE   C3716785   5.208   3.345   9.359 -0.0455  0.5997  0.4648
  151SAPE   H7X16786   5.105   3.310   9.382 -0.9125  0.6466 -2.8786
  151SAPE   H7Y16787   5.276   3.268   9.402 -0.5806 -0.1357  0.0023
  151SAPE   C3816788   5.239   3.335   9.210 -0.2081  0.4266 -0.1287
  151SAPE   H8X16789   5.340   3.378   9.188  0.1929 -0.9819 -1.1922
  151SAPE   H8Y16790   5.166   3.403   9.160 -1.6471 -1.4352 -0.6734
  151SAPE   C3916791   5.220   3.195   9.153  0.0504 -0.4629 -0.4524
  151SAPE   H9X16792   5.112   3.182   9.134 -0.1358  1.5461 -0.9719
  151SAPE   H9Y16793   5.249   3.127   9.237  1.6755 -1.1589 -1.5277
  151SAPE  C31016794   5.318   3.168   9.039 -1.0876 -0.2424  0.5913
  151SAPE  H10X16795   5.417   3.218   9.047 -1.3006  0.1228  1.0009
  151SAPE  H10Y16796   5.278   3.233   8.958 -1.3258  2.2362  2.5701
  151SAPE  C31116797   5.312   3.024   8.997 -0.5887  0.0751  0.7265
  151SAPE  H11X16798   5.360   3.025   8.897  1.1317 -2.5800  1.4516
  151SAPE  H11Y16799   5.208   2.987   8.981 -0.6658  0.3784  0.5120
  151SAPE  C31216800   5.399   2.943   9.090 -0.3214  0.0440  0.1558
  151SAPE  H12X16801   5.361   2.950   9.194  0.9588 -2.3511  0.8487
  151SAPE  H12Y16802   5.497   2.994   9.095  0.2247 -0.8493 -1.1006
  151SAPE  C31316803   5.448   2.798   9.060 -0.2796  0.2822 -0.1620
  151SAPE  H13X16804   5.458   2.794   8.950 -0.3144 -2.7804 -0.1380
  151SAPE  H13Y16805   5.356   2.736   9.071 -0.1789 -0.2286 -1.9096
  151SAPE  C31416806   5.555   2.735   9.148 -0.0451 -0.2769 -0.2076
  151SAPE  H14X16807   5.656   2.771   9.119 -0.0930  0.8780  0.9643
  151SAPE  H14Y16808   5.551   2.630   9.113 -0.2822  0.1871 -1.6629
  151SAPE  C31516809   5.527   2.760   9.295  0.3414  0.0763  0.0033
  151SAPE  H15X16810   5.433   2.710   9.325 -0.1135  0.3587 -0.9026
  151SAPE  H15Y16811   5.502   2.868   9.307  0.0969 -0.0058  0.2381
  151SAPE  C31616812   5.641   2.705   9.384 -0.0934  0.2835 -0.3082
  151SAPE  H16X16813   5.625   2.758   9.481  0.0306  0.3575 -0.3285
  151SAPE  H16Y16814   5.743   2.733   9.351  0.9569 -0.3298  2.1703
  151SAPE  C31716815   5.637   2.553   9.396 -0.6730 -0.0111  0.3293
  151SAPE  H17X16816   5.633   2.508   9.294  4.4261 -0.1838 -0.0686
  151SAPE  H17Y16817   5.544   2.517   9.444  0.0387 -0.7910  1.1715
  151SAPE  C31816818   5.755   2.496   9.484  0.2222  0.4436  0.4435
  151SAPE  H18X16819   5.849   2.542   9.449  1.3764  0.0516  2.8496
  151SAPE  H18Y16820   5.742   2.386   9.486 -0.5897  0.5175  0.0437
  151SAPE  H18Z16821   5.740   2.542   9.584 -1.5631 -0.2494  0.5392
  152SAPE     N16822   0.307   3.741  10.685 -0.7219 -0.6744 -0.4770
  152SAPE   HN116823   0.224   3.751  10.747 -0.2703 -2.1498  0.4158
  152SAPE   HN216824   0.355   3.651  10.705  1.2441  0.4930  0.3224
  152SAPE   HN316825   0.381   3.813  10.699  0.0841 -1.3919 -0.9893
  152SAPE   C1216826   0.263   3.741  10.545  0.5695 -0.2785  0.0455
  152SAPE  H12A16827   0.355   3.737  10.482  1.9488 -1.3446  2.0427
  152SAPE  H12B16828   0.202   3.830  10.519  1.9050  0.5071 -0.5011
  152SAPE   C1116829   0.183   3.612  10.501  0.3266  0.0951  0.2754
  152SAPE  H11A16830   0.255   3.527  10.508  0.9752  0.2373 -3.0751
  152SAPE  H11B16831   0.159   3.629  10.394 -0.1255  1.4612  0.5826
  152SAPE     P16832   0.053   3.496  10.704 -0.0907 -0.2537 -0.0054
  152SAPE   O1316833   0.185   3.486  10.767 -0.0357 -0.3873  0.4944
  152SAPE   O1416834  -0.052   3.537  10.793  0.6194 -0.0701 -0.3370
  152SAPE   O1216835   0.059   3.589  10.585  0.5957 -0.6099  0.2382
  152SAPE   O1116836   0.014   3.356  10.642 -0.1433  0.5960 -0.2516
  152SAPE    C116837  -0.080   3.352  10.532  0.0720  0.0803  0.3403
  152SAPE    HA16838  -0.179   3.321  10.569  0.3513  1.1097  2.0785
  152SAPE    HB16839  -0.083   3.442  10.466  0.5485 -1.0515 -1.2853
  152SAPE    C216840  -0.037   3.234  10.446 -0.2737 -0.5305  0.8241
  152SAPE    HS16841  -0.031   3.144  10.512 -1.6287 -1.7214 -0.5899
  152SAPE   O2116842   0.088   3.270  10.398 -0.2570 -0.1225  0.2851
  152SAPE   C2116843   0.165   3.174  10.359 -0.3504  0.1777  0.3900
  152SAPE   O2216844   0.141   3.055  10.375  0.0908  0.1977  0.1235
  152SAPE   C2216845   0.295   3.241  10.305  0.4715 -0.2592  0.3250
  152SAPE   H2R16846   0.267   3.338  10.259  0.4480 -1.1753 -1.6844
  152SAPE   H2S16847   0.355   3.269  10.394  1.8320  0.0680 -0.6627
  152SAPE    C316848  -0.137   3.185  10.327  0.0518  0.2175 -0.8598
  152SAPE    HX16849  -0.234   3.164  10.376  0.5625  0.1655  0.1549
  152SAPE    HY16850  -0.101   3.084  10.298  1.7088  0.2674  0.8522
  152SAPE   O3116851  -0.161   3.285  10.224  1.0783 -0.1078 -0.5733
  152SAPE   C3116852  -0.118   3.256  10.108  0.2924  0.1358 -0.0184
  152SAPE   O3216853  -0.061   3.153  10.074  0.6133  0.0438 -0.2963
  152SAPE   C3216854  -0.156   3.374  10.020  0.1144  0.0777 -0.0057
  152SAPE   H2X16855  -0.227   3.442  10.073 -0.8058 -0.0261 -1.0651
  152SAPE   H2Y16856  -0.207   3.328   9.933 -0.7896  1.1568 -0.0742
  152SAPE   C2316857   0.395   3.155  10.218 -0.2289  0.3242 -0.5972
  152SAPE   H3R16858   0.413   3.061  10.275 -0.7752  1.3571  1.3634
  152SAPE   H3S16859   0.488   3.214  10.229 -0.4903  0.7980 -0.8970
  152SAPE   C2416860   0.355   3.130  10.079 -0.0915  0.1487  1.0589
  152SAPE   H4R16861   0.341   3.227  10.027 -0.5728 -0.9204 -0.9010
  152SAPE   H4S16862   0.265   3.066  10.074 -0.2903  0.3156  2.2378
  152SAPE   C2516863   0.468   3.065  10.001 -0.5898 -0.1435 -0.3139
  152SAPE   H5R16864   0.540   3.010  10.063  0.4716  0.1780 -1.2260
  152SAPE   C2616865   0.509   3.075   9.871 -0.4642 -0.0818  0.5510
  152SAPE   H6R16866   0.595   3.016   9.836  1.5476  1.0474  3.2808
  152SAPE   C2716867   0.443   3.154   9.763 -0.1446 -0.5070 -0.1759
  152SAPE   H7R16868   0.381   3.233   9.810 -1.4732 -0.8486 -1.3203
  152SAPE   H7S16869   0.387   3.083   9.699  0.2058 -0.2618 -0.7638
  152SAPE   C2816870   0.555   3.221   9.684  0.0470  0.3054 -0.1425
  152SAPE   H8R16871   0.602   3.301   9.744  0.0960 -0.2838  0.6298
  152SAPE   C2916872   0.591   3.180   9.559 -0.5357 -0.5034 -0.9279
  152SAPE   H9R16873   0.675   3.234   9.514  1.2297 -1.5020  1.0139
  152SAPE  C21016874   0.538   3.074   9.478  0.0872  0.3533  0.8811
  152SAPE  H10R16875   0.434   3.088   9.441 -0.5762 -4.2052  0.3948
  152SAPE  H10S16876   0.530   2.985   9.544 -3.1799  0.4741  0.8514
  152SAPE  C21116877   0.623   3.038   9.358 -0.3665  0.9550 -0.6142
  152SAPE  H11R16878   0.718   2.988   9.384 -1.4329  0.3681  2.7116
  152SAPE  C21216879   0.594   3.041   9.232  0.4016 -0.0744  0.0326
  152SAPE  H12R16880   0.675   2.998   9.170  0.7105 -2.7481  2.0918
  152SAPE  C21316881   0.470   3.098   9.163 -0.2287  0.0246 -0.0724
  152SAPE  H13R16882   0.521   3.151   9.080  1.1728 -0.3060  0.5388
  152SAPE  H13S16883   0.423   3.178   9.224 -0.0211 -0.8543  1.2970
  152SAPE  C21416884   0.364   2.996   9.110 -0.8142 -1.1958 -0.2887
  152SAPE  H14R16885   0.282   2.985   9.183 -1.9297 -0.8916 -1.4532
  152SAPE  C21516886   0.354   2.946   8.986 -0.4104 -0.7475  0.1538
  152SAPE  H15R16887   0.281   2.865   8.970 -0.1386 -1.1191  0.7664
  152SAPE  C21616888   0.448   2.974   8.863  0.2919  0.5203 -1.3944
  152SAPE  H16R16889   0.454   2.877   8.810 -0.7777  0.3790 -1.2821
  152SAPE  H16S16890   0.549   2.994   8.903 -0.0961  0.7010 -0.4543
  152SAPE  C21716891   0.405   3.088   8.764 -0.3732 -0.2681 -0.0367
  152SAPE  H17R16892   0.481   3.089   8.682  0.5084 -1.8842  0.7186
  152SAPE  H17S16893   0.399   3.188   8.810 -1.3286 -0.8536  1.1748
  152SAPE  C21816894   0.271   3.073   8.690 -0.4624 -0.0647 -0.0813
  152SAPE  H18R16895   0.261   3.148   8.609 -0.8779  1.1433  1.0403
  152SAPE  H18S16896   0.183   3.093   8.756  0.9374 -0.1082  1.8837
  152SAPE  C21916897   0.246   2.932   8.634 -0.7764  0.2535  0.4317
  152SAPE  H19R16898   0.235   2.861   8.718  1.8372 -2.2071 -1.1143
  152SAPE  H19S16899   0.317   2.880   8.567  0.2886 -0.3570  1.9882
  152SAPE  C22016900   0.113   2.935   8.551  0.0977 -0.4623 -0.3673
  152SAPE  H20R16901   0.026   2.962   8.615 -0.7046  0.8326 -1.9069
  152SAPE  H20S16902   0.094   2.834   8.508  1.0530 -1.4441  1.4176
  152SAPE  H20T16903   0.119   3.011   8.469  1.6333 -0.0639  0.0913
  152SAPE   C3316904  -0.037   3.453   9.975 -0.1865 -0.9651  0.3622
  152SAPE   H3X16905   0.029   3.476  10.061 -0.6677 -1.7498  0.9551
  152SAPE   H3Y16906  -0.084   3.547   9.937  0.2843 -1.3791 -1.3323
  152SAPE   C3416907   0.053   3.390   9.859  0.2451  0.8596 -0.7065
  152SAPE   H4X16908   0.086   3.292   9.901  1.2481  1.1220 -0.8544
  152SAPE   H4Y16909   0.137   3.457   9.832  1.7616 -1.1068 -1.0843
  152SAPE   C3516910  -0.027   3.357   9.728 -0.4166 -0.0607 -0.5607
  152SAPE   H5X16911  -0.094   3.439   9.695 -1.0193 -0.8916 -1.4533
  152SAPE   H5Y16912  -0.092   3.269   9.739 -1.4124  0.6864 -0.3508
  152SAPE   C3616913   0.073   3.347   9.616 -0.3370  0.2961 -0.4944
  152SAPE   H6X16914   0.156   3.277   9.638  1.7396  2.3666 -1.3033
  152SAPE   H6Y16915   0.116   3.448   9.601 -1.3344  1.1358  1.9821
  152SAPE   C3716916   0.006   3.301   9.487  0.0921 -0.2290  0.1953
  152SAPE   H7X16917  -0.084   3.359   9.458 -0.0459 -1.1739 -1.3774
  152SAPE   H7Y16918  -0.042   3.201   9.505 -1.6997  0.7273  1.0482
  152SAPE   C3816919   0.095   3.298   9.363 -0.6731 -0.5544  0.2686
  152SAPE   H8X16920   0.169   3.217   9.379 -0.3938 -0.3192  0.1631
  152SAPE   H8Y16921   0.150   3.394   9.356  0.9594 -1.4289  0.5483
  152SAPE   C3916922   0.009   3.274   9.236 -0.3323 -0.3674 -0.4795
  152SAPE   H9X16923  -0.077   3.345   9.235 -0.4768 -0.5410 -0.3628
  152SAPE   H9Y16924  -0.044   3.177   9.245 -0.1557 -0.2632  2.9061
  152SAPE  C31016925   0.080   3.287   9.102 -0.1739 -0.9963 -0.4975
  152SAPE  H10X16926   0.138   3.196   9.074  0.8151  0.1932 -2.5679
  152SAPE  H10Y16927   0.151   3.372   9.099 -0.6810 -0.4665  1.2215
  152SAPE  C31116928  -0.023   3.292   8.987  0.7692  0.0392 -0.4024
  152SAPE  H11X16929  -0.107   3.358   9.016 -0.3073 -0.5557 -2.0576
  152SAPE  H11Y16930  -0.056   3.189   8.965  0.6329  0.5094 -2.6497
  152SAPE  C31216931   0.019   3.352   8.851  0.0663 -0.7604 -0.5147
  152SAPE  H12X16932   0.109   3.298   8.816  1.5659  1.3292 -0.1239
  152SAPE  H12Y16933   0.054   3.457   8.863 -0.4621 -0.8772  3.4640
  152SAPE  C31316934  -0.098   3.350   8.747 -0.2001 -0.4178  0.1394
  152SAPE  H13X16935  -0.049   3.401   8.661  2.9375  0.1656  2.1274
  152SAPE  H13Y16936  -0.179   3.414   8.789 -0.5784 -1.5993  1.2728
  152SAPE  C31416937  -0.151   3.210   8.723 -0.2455 -0.6014 -0.3842
  152SAPE  H14X16938  -0.225   3.184   8.802 -1.8950  0.1306 -1.6359
  152SAPE  H14Y16939  -0.070   3.135   8.733  0.7219  0.0323 -2.8278
  152SAPE  C31516940  -0.227   3.198   8.588  0.4827 -0.2202  0.2130
  152SAPE  H15X16941  -0.302   3.116   8.587 -3.7708  3.1526  2.5487
  152SAPE  H15Y16942  -0.158   3.196   8.502  1.4756 -0.0085  0.9857
  152SAPE  C31616943  -0.313   3.321   8.559 -0.0271  0.1242  0.0707
  152SAPE  H16X16944  -0.255   3.415   8.548 -0.7419  0.7332  1.3137
  152SAPE  H16Y16945  -0.383   3.345   8.642  1.1384  0.3031  1.0351
  152SAPE  C31716946  -0.413   3.310   8.441  0.3328  0.0511 -0.3333
  152SAPE  H17X16947  -0.495   3.238   8.459 -0.4363  0.4324 -2.0608
  152SAPE  H17Y16948  -0.375   3.282   8.340  0.1403  0.3864 -0.5007
  152SAPE  C31816949  -0.506   3.438   8.428 -0.3606 -0.1437 -0.5306
  152SAPE  H18X16950  -0.599   3.423   8.369 -1.7871 -1.4411  1.8799
  152SAPE  H18Y16951  -0.455   3.522   8.377  1.8082 -0.6015  0.8029
  152SAPE  H18Z16952  -0.547   3.454   8.530  1.8450  0.5753  0.2893
  153SAPE     N16953   0.396   4.312  10.919  0.4243  0.5284 -0.1203
  153SAPE   HN116954   0.350   4.368  10.994 -0.3332 -1.9132  1.3355
  153SAPE   HN216955   0.470   4.276  10.982  0.3568  3.0904  1.5946
  153SAPE   HN316956   0.449   4.366  10.848  0.4751  2.1172  1.0641
  153SAPE   C1216957   0.302   4.207  10.866  0.0542  0.2805 -0.5390
  153SAPE  H12A16958   0.243   4.245  10.780  1.0385 -0.4065 -1.5508
  153SAPE  H12B16959   0.229   4.173  10.943 -0.5321 -1.7252 -1.8779
  153SAPE   C1116960   0.388   4.090  10.812  0.6698  0.7732 -0.6887
  153SAPE  H11A16961   0.317   4.026  10.757 -0.6974  1.9700 -0.3735
  153SAPE  H11B16962   0.428   4.025  10.892  0.3722 -0.1511 -1.2739
  153SAPE     P16963   0.552   4.021  10.631  0.0026 -0.0992  0.1520
  153SAPE   O1316964   0.685   4.063  10.586  0.3221 -0.5451  0.9328
  153SAPE   O1416965   0.539   3.884  10.685  0.2868  0.4534  0.3107
  153SAPE   O1216966   0.490   4.134  10.722  0.6968 -0.0699 -0.2807
  153SAPE   O1116967   0.456   4.027  10.508  0.2633 -0.7505  0.9690
  153SAPE    C116968   0.493   3.978  10.379 -0.2783 -0.0359  0.2840
  153SAPE    HA16969   0.570   3.899  10.394 -0.9772 -0.9788 -0.9249
  153SAPE    HB16970   0.405   3.932  10.330  0.0306  0.4756 -0.7669
  153SAPE    C216971   0.569   4.081  10.287 -0.3336  0.6981  0.1085
  153SAPE    HS16972   0.645   4.136  10.347 -0.3625  1.1993 -0.3084
  153SAPE   O2116973   0.466   4.172  10.241 -0.1157 -0.1065  0.3355
  153SAPE   C2116974   0.514   4.291  10.207 -0.5203  0.2008  0.0664
  153SAPE   O2216975   0.632   4.321  10.212 -0.0797  0.1683  0.3993
  153SAPE   C2216976   0.401   4.396  10.186  0.3161  0.2625  0.1543
  153SAPE   H2R16977   0.303   4.353  10.214 -0.6492  0.6679 -2.3842
  153SAPE   H2S16978   0.410   4.474  10.265 -1.1056 -1.9845  2.7040
  153SAPE    C316979   0.631   4.006  10.164  0.0945  0.3715  0.3766
  153SAPE    HX16980   0.546   3.949  10.121  0.2955 -0.3906  0.9632
  153SAPE    HY16981   0.704   3.930  10.198 -1.1248 -0.1609  1.9853
  153SAPE   O3116982   0.678   4.093  10.062 -0.2938 -0.2315  0.3687
  153SAPE   C3116983   0.804   4.137  10.068 -0.5460 -0.3176 -0.1585
  153SAPE   O3216984   0.879   4.113  10.158  0.3863  0.6918 -0.3742
  153SAPE   C3216985   0.841   4.204   9.927  0.3891  0.5476 -0.2202
  153SAPE   H2X16986   0.948   4.233   9.934  1.8195 -3.8750 -0.7467
  153SAPE   H2Y16987   0.774   4.292   9.922 -1.6631 -0.9542 -0.5371
  153SAPE   C2316988   0.390   4.449  10.047 -0.3612  0.2221  0.5494
  153SAPE   H3R16989   0.284   4.479  10.031 -0.7396 -1.7663 -0.9733
  153SAPE   H3S16990   0.413   4.379   9.965  1.5756  0.9189  0.4427
  153SAPE   C2416991   0.469   4.579  10.018 -0.3570  0.0298 -1.2311
  153SAPE   H4R16992   0.464   4.648  10.105 -1.1439 -2.7041  1.0711
  153SAPE   H4S16993   0.411   4.637   9.943 -1.1675  2.0453  0.8413
  153SAPE   C2516994   0.611   4.553   9.976  0.0455  0.0971  0.1494
  153SAPE   H5R16995   0.685   4.535  10.056 -0.3255  0.5875  0.6114
  153SAPE   C2616996   0.668   4.564   9.857 -0.2021 -0.2150  0.1996
  153SAPE   H6R16997   0.777   4.553   9.843 -0.1416 -0.2440  0.6972
  153SAPE   C2716998   0.595   4.599   9.732  0.4447 -0.0968  0.1650
  153SAPE   H7R16999   0.615   4.704   9.702  0.5612 -0.3418 -0.6414
  153SAPE   H7S17000   0.486   4.592   9.753  0.4117 -0.6297 -0.1575
  153SAPE   C2817001   0.639   4.517   9.604  0.0897  0.2209 -0.2099
  153SAPE   H8R17002   0.630   4.408   9.610 -2.8753  0.4372  0.7493
  153SAPE   C2917003   0.666   4.567   9.481 -0.6350  0.3041 -0.2011
  153SAPE   H9R17004   0.697   4.496   9.402  1.1728  0.2624  0.5053
  153SAPE  C21017005   0.647   4.710   9.433  0.5463  0.5874 -0.7392
  153SAPE  H10R17006   0.730   4.773   9.394  1.2252  1.7469  2.3149
  153SAPE  H10S17007   0.597   4.766   9.514 -1.4707  3.4684 -3.7037
  153SAPE  C21117008   0.537   4.702   9.329 -0.4105  0.3079 -0.2366
  153SAPE  H11R17009   0.434   4.703   9.366  0.5988  0.2285  2.8852
  153SAPE  C21217010   0.558   4.689   9.197  0.2628  0.0340 -0.2144
  153SAPE  H12R17011   0.468   4.686   9.133  0.3071 -0.2634 -0.2679
  153SAPE  C21317012   0.689   4.674   9.118  0.0582 -0.3716 -0.2124
  153SAPE  H13R17013   0.672   4.603   9.034  0.2600  1.6975 -2.0965
  153SAPE  H13S17014   0.762   4.636   9.192 -0.5505  1.1280  1.2204
  153SAPE  C21417015   0.750   4.808   9.080  0.6043 -0.3762 -0.8917
  153SAPE  H14R17016   0.698   4.894   9.124  1.2457  0.5349 -1.8715
  153SAPE  C21517017   0.840   4.836   8.989  0.0949  0.7590  0.5380
  153SAPE  H15R17018   0.874   4.940   8.975 -1.3788  0.9954 -1.7943
  153SAPE  C21617019   0.910   4.736   8.905 -0.4066 -0.1734  0.6211
  153SAPE  H16R17020   0.899   4.630   8.936 -0.3781 -0.1946  0.5574
  153SAPE  H16S17021   1.015   4.765   8.926 -0.8063  0.9756  1.1101
  153SAPE  C21717022   0.883   4.745   8.754 -0.7055 -0.0491 -0.3379
  153SAPE  H17R17023   0.953   4.678   8.701 -0.1929  0.2688 -0.0659
  153SAPE  H17S17024   0.906   4.848   8.718  2.6882  0.1463  1.9500
  153SAPE  C21817025   0.732   4.715   8.719  0.1721  0.6055  0.2395
  153SAPE  H18R17026   0.668   4.796   8.759  0.0331 -0.1371  1.5788
  153SAPE  H18S17027   0.697   4.624   8.773 -0.0602  0.2203 -0.5411
  153SAPE  C21917028   0.696   4.694   8.567  0.1267 -0.8092  0.2435
  153SAPE  H19R17029   0.601   4.636   8.570  0.0811 -0.9886 -2.6527
  153SAPE  H19S17030   0.769   4.630   8.514 -0.5257  0.1640 -1.9374
  153SAPE  C22017031   0.661   4.817   8.484 -0.3468 -0.1855  0.1870
  153SAPE  H20R17032   0.755   4.875   8.477  0.2003 -1.1385 -0.7755
  153SAPE  H20S17033   0.587   4.885   8.531  0.2404  1.1129 -0.7034
  153SAPE  H20T17034   0.631   4.798   8.379 -0.4818  2.6798 -0.3507
  153SAPE   C3317035   0.816   4.114   9.804  0.1624  0.0799  0.3128
  153SAPE   H3X17036   0.711   4.086   9.780  0.4726 -0.4648 -0.4650
  153SAPE   H3Y17037   0.865   4.016   9.822  0.8562  0.2708 -0.4496
  153SAPE   C3417038   0.888   4.177   9.680  0.3040 -0.3318 -0.1046
  153SAPE   H4X17039   0.989   4.210   9.711 -0.3314 -0.3090  2.0744
  153SAPE   H4Y17040   0.821   4.260   9.649  0.3926  0.0695  0.7695
  153SAPE   C3517041   0.915   4.090   9.555  0.3661  0.1542 -0.4823
  153SAPE   H5X17042   0.816   4.071   9.507  0.6156  0.3312 -1.0717
  153SAPE   H5Y17043   0.957   3.989   9.576 -0.7016 -0.0293  0.9368
  153SAPE   C3617044   1.006   4.168   9.455  0.4707  1.3960  0.6480
  153SAPE   H6X17045   1.111   4.153   9.487  0.9798 -0.6379 -1.6583
  153SAPE   H6Y17046   0.983   4.276   9.464 -0.0335  1.3069  0.5035
  153SAPE   C3717047   0.995   4.121   9.305 -0.2879  0.4533  0.1423
  153SAPE   H7X17048   0.901   4.161   9.260 -1.6579 -0.6750  1.8873
  153SAPE   H7Y17049   0.994   4.011   9.289  2.4918  0.5348 -1.3214
  153SAPE   C3817050   1.111   4.178   9.222 -0.0746  0.1558  0.0734
  153SAPE   H8X17051   1.197   4.107   9.219 -1.3004 -1.3330 -1.3769
  153SAPE   H8Y17052   1.144   4.270   9.274 -0.8329  0.2809  0.3448
  153SAPE   C3917053   1.066   4.207   9.078 -0.0790  0.1468  0.0914
  153SAPE   H9X17054   1.044   4.110   9.028  0.8760  0.3035 -0.6629
  153SAPE   H9Y17055   1.145   4.259   9.021 -0.0544  1.4392  1.2540
  153SAPE  C31017056   0.942   4.310   9.066 -0.8184  0.1126 -0.2902
  153SAPE  H10X17057   0.952   4.395   9.137  0.3243  0.3924 -0.7575
  153SAPE  H10Y17058   0.851   4.270   9.115 -0.9362  1.6627  0.8490
  153SAPE  C31117059   0.913   4.365   8.931 -0.0154 -0.4875  0.2151
  153SAPE  H11X17060   1.001   4.422   8.895 -0.4212 -0.9775 -1.6748
  153SAPE  H11Y17061   0.826   4.434   8.934  0.8926  0.6771  0.3174
  153SAPE  C31217062   0.878   4.257   8.829 -0.4770 -0.3595  0.6894
  153SAPE  H12X17063   0.779   4.218   8.860 -0.7078  0.1893  0.6643
  153SAPE  H12Y17064   0.950   4.174   8.842  1.6946  1.3614  0.3478
  153SAPE  C31317065   0.898   4.300   8.682  0.1744  0.1054 -0.3424
  153SAPE  H13X17066   1.008   4.317   8.675  0.1370  0.5166  0.0407
  153SAPE  H13Y17067   0.838   4.392   8.665  0.1709  0.1545 -0.0648
  153SAPE  C31417068   0.853   4.203   8.579 -0.3752  0.1530 -0.4617
  153SAPE  H14X17069   0.757   4.154   8.608  0.3713  0.4967  2.9774
  153SAPE  H14Y17070   0.934   4.128   8.579 -0.8918 -0.5732  3.2496
  153SAPE  C31517071   0.842   4.249   8.430  0.4193  0.3411 -0.6325
  153SAPE  H15X17072   0.934   4.276   8.375 -0.8953  2.1619 -2.0829
  153SAPE  H15Y17073   0.772   4.336   8.427 -0.9552 -0.5619  1.9373
  153SAPE  C31617074   0.773   4.146   8.335 -0.4000  0.4059 -0.1279
  153SAPE  H16X17075   0.826   4.049   8.346 -1.2305 -0.1378 -0.7436
  153SAPE  H16Y17076   0.785   4.174   8.228 -2.2152  0.4821 -0.3436
  153SAPE  C31717077   0.623   4.136   8.364 -0.3391 -0.1964  0.7066
  153SAPE  H17X17078   0.585   4.240   8.371  0.2636  0.0019  1.2133
  153SAPE  H17Y17079   0.614   4.088   8.464 -0.4198  0.5954  1.0908
  153SAPE  C31817080   0.550   4.048   8.262  0.3572 -0.3236  0.9358
  153SAPE  H18X17081   0.591   3.947   8.240 -2.5807 -1.0802 -1.7387
  153SAPE  H18Y17082   0.534   4.111   8.171  0.9553  0.8970  1.6510
  153SAPE  H18Z17083   0.450   4.029   8.306 -1.6653 -0.6990 -3.3026
  154SAPE     N17084   0.744   5.055  10.990 -0.1189 -0.8667 -0.2088
  154SAPE   HN117085   0.663   4.992  11.008  0.8047 -2.1722 -0.5607
  154SAPE   HN217086   0.736   5.150  11.033  1.5248 -1.3161  1.2137
  154SAPE   HN317087   0.755   5.066  10.888  1.5866 -0.2799  0.0111
  154SAPE   C1217088   0.866   4.990  11.051 -0.0325  0.0137  0.0132
  154SAPE  H12A17089   0.859   5.006  11.161 -0.5553 -1.8870  0.3005
  154SAPE  H12B17090   0.955   5.044  11.012  0.2711 -1.3608 -1.3153
  154SAPE   C1117091   0.877   4.850  10.999 -0.6481 -0.6420  0.6802
  154SAPE  H11A17092   0.801   4.778  11.039 -0.3079 -1.5049 -0.1944
  154SAPE  H11B17093   0.974   4.814  11.039 -0.1616  0.9088  0.9388
  154SAPE     P17094   0.900   4.717  10.779  0.2916 -0.1998 -0.2337
  154SAPE   O1317095   1.026   4.647  10.815  0.0384  0.1301 -0.3241
  154SAPE   O1417096   0.776   4.642  10.779  0.3285  0.3387  0.0878
  154SAPE   O1217097   0.885   4.853  10.852 -0.4731 -0.1349  0.4998
  154SAPE   O1117098   0.930   4.775  10.629 -0.2931  0.7149 -0.1349
  154SAPE    C117099   0.916   4.684  10.515  0.3867 -0.3833 -0.4495
  154SAPE    HA17100   0.831   4.613  10.529 -0.8378  0.0391 -4.5251
  154SAPE    HB17101   0.898   4.745  10.424 -0.5642  0.7059  0.4286
  154SAPE    C217102   1.045   4.597  10.493 -0.6735 -0.8432 -0.3146
  154SAPE    HS17103   1.074   4.557  10.593  2.5107 -0.9160 -1.1754
  154SAPE   O2117104   1.153   4.686  10.448  0.5967 -0.4804 -0.0349
  154SAPE   C2117105   1.278   4.631  10.453 -0.3339  0.0489 -0.4992
  154SAPE   O2217106   1.304   4.538  10.532 -0.3365  0.1543 -0.2957
  154SAPE   C2217107   1.379   4.712  10.379 -0.8720  0.2728 -0.5489
  154SAPE   H2R17108   1.327   4.735  10.283  1.1976 -2.3870 -2.4606
  154SAPE   H2S17109   1.417   4.798  10.439 -0.5580  1.3667 -2.2278
  154SAPE    C317110   1.027   4.468  10.402  0.5159 -0.1026  0.2068
  154SAPE    HX17111   0.955   4.403  10.458 -0.3150  0.2149 -0.4716
  154SAPE    HY17112   1.119   4.405  10.398  1.1108  0.7908 -0.3069
  154SAPE   O3117113   0.966   4.507  10.271 -0.4594  0.5637  0.3720
  154SAPE   C3117114   1.061   4.511  10.180 -0.2957 -0.0530 -0.3613
  154SAPE   O3217115   1.177   4.479  10.197 -0.0354  0.0623  0.0393
  154SAPE   C3217116   1.008   4.553  10.036  0.5111  1.1409  0.4634
  154SAPE   H2X17117   0.974   4.658  10.050 -1.6203  0.9858 -2.5845
  154SAPE   H2Y17118   0.913   4.499  10.022  1.3495 -0.1662 -0.3868
  154SAPE   C2317119   1.504   4.621  10.338 -0.1344  0.2153  0.8492
  154SAPE   H3R17120   1.461   4.536  10.281 -0.9337  1.5227 -0.5942
  154SAPE   H3S17121   1.561   4.594  10.429  0.7861 -1.3456 -0.1300
  154SAPE   C2417122   1.582   4.699  10.231  0.4923 -0.1147 -0.2925
  154SAPE   H4R17123   1.623   4.790  10.279 -2.3214  0.9188  0.3679
  154SAPE   H4S17124   1.496   4.741  10.174 -1.7788 -0.6932  2.4318
  154SAPE   C2517125   1.680   4.609  10.166  0.0385  0.6016 -0.8308
  154SAPE   H5R17126   1.756   4.581  10.242 -0.5258  0.4890 -0.2988
  154SAPE   C2617127   1.695   4.579  10.039  0.5232 -1.0280  0.1511
  154SAPE   H6R17128   1.782   4.519  10.007  1.9171  0.1872  1.5140
  154SAPE   C2717129   1.607   4.639   9.926  0.5512  0.1093 -0.8037
  154SAPE   H7R17130   1.635   4.745   9.909 -0.4157  1.0438  2.6634
  154SAPE   H7S17131   1.509   4.656   9.975  1.5288 -2.0384  2.2298
  154SAPE   C2817132   1.600   4.560   9.798 -0.1045  0.3481  0.3715
  154SAPE   H8R17133   1.519   4.486   9.794 -0.5833  0.8338  1.1371
  154SAPE   C2917134   1.683   4.585   9.693  0.5789  0.8101 -0.0207
  154SAPE   H9R17135   1.663   4.544   9.593  2.7726  2.4278 -1.2109
  154SAPE  C21017136   1.782   4.698   9.685  0.0567 -0.0205  0.0657
  154SAPE  H10R17137   1.810   4.745   9.781 -0.7737  1.3183 -0.3157
  154SAPE  H10S17138   1.715   4.776   9.643 -0.4884 -2.2054 -3.4989
  154SAPE  C21117139   1.901   4.686   9.597 -0.7807 -0.6517  0.0505
  154SAPE  H11R17140   1.995   4.671   9.652 -0.6309  0.0783  0.0004
  154SAPE  C21217141   1.908   4.687   9.462 -0.1383  0.7332  0.5847
  154SAPE  H12R17142   2.003   4.703   9.410  0.1525  1.4111  1.3089
  154SAPE  C21317143   1.793   4.694   9.363 -0.3338 -0.5586 -0.2185
  154SAPE  H13R17144   1.805   4.789   9.306 -0.6342  0.2798  1.0723
  154SAPE  H13S17145   1.693   4.691   9.411 -0.5393 -0.4688 -0.6322
  154SAPE  C21417146   1.796   4.578   9.267 -0.2543  0.0946 -0.6688
  154SAPE  H14R17147   1.795   4.477   9.311  0.4791  0.8820  1.3026
  154SAPE  C21517148   1.805   4.584   9.133 -1.0168 -0.2110 -0.7641
  154SAPE  H15R17149   1.807   4.492   9.072 -0.4576 -0.4530 -0.3854
  154SAPE  C21617150   1.817   4.710   9.047 -0.5870  0.6938 -0.3804
  154SAPE  H16R17151   1.922   4.724   9.013  0.7485 -0.4844  2.7791
  154SAPE  H16S17152   1.811   4.801   9.110  0.3684  1.3728 -1.2470
  154SAPE  C21717153   1.709   4.706   8.942 -0.2278 -0.2251  0.0831
  154SAPE  H17R17154   1.616   4.713   9.003 -0.2205 -0.9920  0.1980
  154SAPE  H17S17155   1.698   4.614   8.880 -0.4112  0.2368 -0.5790
  154SAPE  C21817156   1.709   4.833   8.853  0.1024 -0.4932 -0.3426
  154SAPE  H18R17157   1.611   4.846   8.801 -1.4242 -0.9679  2.2175
  154SAPE  H18S17158   1.785   4.823   8.773  0.3308  0.5099 -0.2609
  154SAPE  C21917159   1.729   4.965   8.926  0.0860  0.2963 -0.2218
  154SAPE  H19R17160   1.830   4.984   8.970 -0.0127  1.7528 -0.5843
  154SAPE  H19S17161   1.668   4.969   9.018  2.0494  1.7897  1.0937
  154SAPE  C22017162   1.692   5.085   8.842 -0.4148  0.1160  0.4613
  154SAPE  H20R17163   1.583   5.086   8.822 -0.0244 -0.7232 -1.9927
  154SAPE  H20S17164   1.762   5.082   8.756 -1.7918  1.3125 -0.7682
  154SAPE  H20T17165   1.717   5.173   8.905  0.9729  0.5419 -0.6375
  154SAPE   C3317166   1.115   4.525   9.929 -0.2205 -0.7251 -0.5693
  154SAPE   H3X17167   1.163   4.427   9.949  0.3396 -0.5159 -0.8477
  154SAPE   H3Y17168   1.187   4.608   9.945 -0.2794 -0.6800 -0.5395
  154SAPE   C3417169   1.068   4.511   9.787  0.3280  0.1291 -0.1445
  154SAPE   H4X17170   1.020   4.609   9.769 -2.4287 -1.0420  0.2050
  154SAPE   H4Y17171   0.988   4.435   9.770 -1.0840  1.6457 -0.5267
  154SAPE   C3517172   1.178   4.462   9.694 -0.1251 -0.5798 -0.2594
  154SAPE   H5X17173   1.197   4.353   9.689 -0.6280 -0.6784 -0.0897
  154SAPE   H5Y17174   1.274   4.509   9.724  0.1825  1.0933 -3.4537
  154SAPE   C3617175   1.177   4.518   9.548 -0.1463 -0.2945 -0.3978
  154SAPE   H6X17176   1.211   4.442   9.474  0.8248 -0.9498  0.6904
  154SAPE   H6Y17177   1.263   4.589   9.547  2.4266 -3.1977 -1.1443
  154SAPE   C3717178   1.037   4.577   9.492  0.4226  0.3009 -0.5485
  154SAPE   H7X17179   1.044   4.676   9.542  1.5375  0.5315 -1.1321
  154SAPE   H7Y17180   0.957   4.518   9.542  0.8206  0.2098 -0.0118
  154SAPE   C3817181   1.028   4.563   9.347  0.4587 -0.8613  0.3971
  154SAPE   H8X17182   0.933   4.615   9.322  0.8464  0.3109  1.2474
  154SAPE   H8Y17183   1.024   4.455   9.322  0.9012 -0.7040 -0.3866
  154SAPE   C3917184   1.151   4.628   9.270  0.7849  0.5820  0.0201
  154SAPE   H9X17185   1.247   4.613   9.324  0.4701 -2.7572 -0.0929
  154SAPE   H9Y17186   1.130   4.737   9.271 -3.7385 -0.0909 -0.0238
  154SAPE  C31017187   1.170   4.575   9.130  0.0330  0.3064  0.5246
  154SAPE  H10X17188   1.074   4.579   9.074  0.9897 -1.1376 -1.3524
  154SAPE  H10Y17189   1.209   4.471   9.141  0.1052  0.3420  0.6076
  154SAPE  C31117190   1.274   4.638   9.036  0.4214  0.3298  0.7734
  154SAPE  H11X17191   1.376   4.622   9.078  0.4767 -0.0969  0.4915
  154SAPE  H11Y17192   1.233   4.740   9.022 -0.4070 -0.2853 -1.8271
  154SAPE  C31217193   1.277   4.587   8.892 -0.0256  0.3323 -0.3818
  154SAPE  H12X17194   1.172   4.593   8.856  0.2857  2.0180 -1.1261
  154SAPE  H12Y17195   1.303   4.480   8.882 -3.7160 -0.6130 -1.3078
  154SAPE  C31317196   1.371   4.661   8.788  0.0428 -0.6457  0.0615
  154SAPE  H13X17197   1.480   4.638   8.797  0.3159  1.3071  3.6520
  154SAPE  H13Y17198   1.362   4.768   8.818 -0.0166 -0.4358 -0.6742
  154SAPE  C31417199   1.327   4.649   8.644 -0.4032 -0.3548 -0.1240
  154SAPE  H14X17200   1.230   4.701   8.625 -1.0520 -1.7176 -0.6772
  154SAPE  H14Y17201   1.317   4.539   8.637 -0.5501 -0.4058  0.8157
  154SAPE  C31517202   1.439   4.705   8.555  0.2894  0.1725  0.3551
  154SAPE  H15X17203   1.406   4.669   8.455 -3.3335  1.7508  0.8225
  154SAPE  H15Y17204   1.540   4.667   8.579  1.1158  1.6744 -0.5418
  154SAPE  C31617205   1.448   4.856   8.542 -0.2142  0.0562  0.1971
  154SAPE  H16X17206   1.437   4.896   8.645 -0.6563  0.3012  0.0570
  154SAPE  H16Y17207   1.362   4.891   8.482  0.4767 -0.0928 -0.9010
  154SAPE  C31717208   1.582   4.906   8.483  0.5384  0.5958 -0.3836
  154SAPE  H17X17209   1.662   4.841   8.523 -0.9930 -1.5938 -0.6929
  154SAPE  H17Y17210   1.603   5.010   8.517 -0.0051  0.5925 -0.0300
  154SAPE  C31817211   1.581   4.893   8.331 -0.5288  0.6225 -0.0962
  154SAPE  H18X17212   1.562   4.786   8.307  1.2096  0.3987 -0.6073
  154SAPE  H18Y17213   1.671   4.910   8.268 -0.4672 -1.5071 -0.6589
  154SAPE  H18Z17214   1.492   4.949   8.297 -1.4436  0.4040  1.8103
  155SAPE     N17215   2.355   4.765  11.262  0.0189  0.2848  0.5105
  155SAPE   HN117216   2.349   4.845  11.195 -1.6543  1.5381  2.0645
  155SAPE   HN217217   2.284   4.765  11.338  0.9772  0.7498  1.4346
  155SAPE   HN317218   2.446   4.771  11.311 -0.1500 -0.3860  0.9115
  155SAPE   C1217219   2.357   4.639  11.179  0.0888 -0.2571  0.1543
  155SAPE  H12A17220   2.252   4.622  11.149 -0.3765  0.8102  1.1308
  155SAPE  H12B17221   2.391   4.566  11.256 -1.6014 -0.7897  0.4380
  155SAPE   C1117222   2.457   4.657  11.060 -0.1978  0.5784  0.2211
  155SAPE  H11A17223   2.454   4.567  10.995  2.0343  0.1874  0.5784
  155SAPE  H11B17224   2.562   4.665  11.096 -0.0696  1.0676 -0.2437
  155SAPE     P17225   2.334   4.792  10.879 -0.1155  0.1675 -0.1669
  155SAPE   O1317226   2.210   4.726  10.927 -0.4233 -0.1519 -0.3540
  155SAPE   O1417227   2.315   4.932  10.839  0.5472  0.3611  0.2175
  155SAPE   O1217228   2.449   4.779  10.981  0.6109  0.3623  0.1979
  155SAPE   O1117229   2.394   4.715  10.754 -0.2922 -0.1968  0.0129
  155SAPE    C117230   2.536   4.719  10.730 -0.0591 -0.0298 -0.4161
  155SAPE    HA17231   2.590   4.795  10.792  0.4819  0.1059 -1.0349
  155SAPE    HB17232   2.580   4.619  10.746  0.7566 -0.1689 -3.0461
  155SAPE    C217233   2.564   4.755  10.583  0.1770 -0.4875 -0.0978
  155SAPE    HS17234   2.503   4.847  10.577  2.6305  1.1450 -2.3613
  155SAPE   O2117235   2.516   4.646  10.501  0.8114  0.2875  0.2316
  155SAPE   C2117236   2.449   4.677  10.401 -0.3061 -0.1315  0.1687
  155SAPE   O2217237   2.404   4.789  10.376  0.2357  0.3886  0.4878
  155SAPE   C2217238   2.430   4.562  10.312 -0.8668  0.8613 -0.0337
  155SAPE   H2R17239   2.393   4.475  10.370  1.1714 -0.3766 -0.4762
  155SAPE   H2S17240   2.371   4.594  10.223 -1.4023 -1.0021 -0.3833
  155SAPE    C317241   2.713   4.791  10.558  0.4835 -0.3454 -0.5383
  155SAPE    HX17242   2.774   4.708  10.598  2.0678  0.2711 -1.5924
  155SAPE    HY17243   2.737   4.875  10.627 -1.4402 -1.4543  1.6481
  155SAPE   O3117244   2.748   4.810  10.424  0.4068  0.7464  0.4955
  155SAPE   C3117245   2.706   4.912  10.361  0.2157 -0.3241  0.3061
  155SAPE   O3217246   2.668   5.013  10.415  0.3014 -0.0402 -0.3165
  155SAPE   C3217247   2.715   4.883  10.212 -0.0374  0.0359 -0.0483
  155SAPE   H2X17248   2.750   4.780  10.192  0.6640  0.3695 -0.5897
  155SAPE   H2Y17249   2.795   4.957  10.189 -0.3715  0.4040 -0.0351
  155SAPE   C2317250   2.563   4.512  10.254 -0.1065  0.4821 -0.5708
  155SAPE   H3R17251   2.626   4.490  10.344 -0.8313  1.0104  0.0777
  155SAPE   H3S17252   2.618   4.585  10.192  0.1116 -0.3147 -1.3408
  155SAPE   C2417253   2.529   4.386  10.164  0.0138  0.4070  0.2977
  155SAPE   H4R17254   2.483   4.423  10.070  1.3576  1.0219 -0.1525
  155SAPE   H4S17255   2.466   4.310  10.214  1.5315 -2.4423 -1.8326
  155SAPE   C2517256   2.664   4.323  10.133 -0.0136  0.3753  0.4972
  155SAPE   H5R17257   2.718   4.292  10.224 -0.5341  0.1737  0.7425
  155SAPE   C2617258   2.706   4.297  10.006 -0.4487 -0.4032 -0.0230
  155SAPE   H6R17259   2.808   4.256  10.001 -0.1714  0.0609  1.3415
  155SAPE   C2717260   2.637   4.326   9.870 -0.1136  0.6321 -1.1226
  155SAPE   H7R17261   2.528   4.307   9.884  0.3823 -1.0921  1.1868
  155SAPE   H7S17262   2.680   4.252   9.799 -0.7496 -0.1574 -0.7134
  155SAPE   C2817263   2.637   4.471   9.832  0.3229 -0.7292  0.3193
  155SAPE   H8R17264   2.635   4.542   9.915  2.4507 -0.4900  0.2185
  155SAPE   C2917265   2.667   4.507   9.706  0.3939  0.7036  0.0619
  155SAPE   H9R17266   2.664   4.613   9.677  2.1572  0.4642 -1.1611
  155SAPE  C21017267   2.705   4.423   9.587 -0.0898 -0.2982  0.7426
  155SAPE  H10R17268   2.757   4.330   9.621  0.4989 -1.5801 -3.0944
  155SAPE  H10S17269   2.768   4.493   9.528 -3.2598  3.3380  1.3261
  155SAPE  C21117270   2.593   4.359   9.502  0.0284  0.2216  1.2269
  155SAPE  H11R17271   2.500   4.341   9.558  0.5545  0.7508  2.2954
  155SAPE  C21217272   2.583   4.332   9.368  0.6088 -0.9505  0.2902
  155SAPE  H12R17273   2.493   4.285   9.326  0.5944 -0.0302 -0.7585
  155SAPE  C21317274   2.692   4.360   9.259  0.1216 -0.3089 -0.2985
  155SAPE  H13R17275   2.720   4.261   9.215 -1.5574 -1.3839  0.8949
  155SAPE  H13S17276   2.781   4.405   9.306  0.9397 -1.3609 -0.7906
  155SAPE  C21417277   2.653   4.462   9.156  0.2746 -0.2045 -0.1036
  155SAPE  H14R17278   2.696   4.561   9.175  3.1446 -1.4520  0.3457
  155SAPE  C21517279   2.591   4.442   9.036 -0.2225  0.7530  0.8623
  155SAPE  H15R17280   2.551   4.522   8.973 -0.4396 -1.5754 -2.1681
  155SAPE  C21617281   2.563   4.303   8.983  0.1000 -0.4555  0.0407
  155SAPE  H16R17282   2.452   4.291   8.981 -0.1257  1.4933 -0.5670
  155SAPE  H16S17283   2.622   4.215   9.017 -0.8940 -1.9869 -1.9232
  155SAPE  C21717284   2.596   4.307   8.833  0.2258  0.1375 -0.2479
  155SAPE  H17R17285   2.707   4.303   8.828  0.5421  4.4713 -0.1808
  155SAPE  H17S17286   2.562   4.398   8.779  0.0135  0.7648  0.9057
  155SAPE  C21817287   2.546   4.173   8.770 -0.2511  0.2944 -0.4031
  155SAPE  H18R17288   2.556   4.099   8.853 -3.3412 -1.3231 -1.3435
  155SAPE  H18S17289   2.614   4.137   8.690 -1.2804 -0.3185 -1.0135
  155SAPE  C21917290   2.398   4.176   8.729 -0.1959  0.2617 -0.5561
  155SAPE  H19R17291   2.393   4.239   8.637 -0.5988  0.8849 -0.1187
  155SAPE  H19S17292   2.346   4.231   8.811  0.6587  1.0451 -0.5117
  155SAPE  C22017293   2.327   4.047   8.688  0.0912 -0.4233 -0.2807
  155SAPE  H20R17294   2.302   3.976   8.770 -0.6579  0.4396  0.2496
  155SAPE  H20S17295   2.401   3.996   8.622  1.5482 -0.0544  1.0099
  155SAPE  H20T17296   2.229   4.074   8.643  0.7413  2.3299 -0.2137
  155SAPE   C3317297   2.593   4.921  10.137 -0.2981 -0.1272 -0.0926
  155SAPE   H3X17298   2.554   5.019  10.171  0.7442 -0.0658  0.9897
  155SAPE   H3Y17299   2.518   4.839  10.144  1.4633 -1.7551  0.8155
  155SAPE   C3417300   2.629   4.918   9.981  0.4072 -0.9563  1.3992
  155SAPE   H4X17301   2.535   4.943   9.928 -0.2269 -1.1778  2.3943
  155SAPE   H4Y17302   2.662   4.816   9.952  0.4176 -0.1239 -1.8589
  155SAPE   C3517303   2.743   5.011   9.934 -0.6414  0.0987  0.2795
  155SAPE   H5X17304   2.835   4.966   9.976  0.3285  0.3275 -1.5072
  155SAPE   H5Y17305   2.740   5.116   9.972  0.3765  0.0942  0.3852
  155SAPE   C3617306   2.767   5.023   9.782 -0.0939 -0.1862 -0.3146
  155SAPE   H6X17307   2.706   5.105   9.738  2.6864  2.2571  0.0623
  155SAPE   H6Y17308   2.744   4.926   9.733 -0.4310  0.3648 -1.2773
  155SAPE   C3717309   2.906   5.066   9.752 -0.1115 -0.3031  0.1347
  155SAPE   H7X17310   2.980   4.994   9.791 -1.7638 -0.7853  2.5733
  155SAPE   H7Y17311   2.921   5.163   9.804  1.1058  0.3898 -1.4116
  155SAPE   C3817312   2.916   5.096   9.599 -0.0628  0.6894  0.4227
  155SAPE   H8X17313   3.005   5.158   9.577  1.4415 -1.9533 -1.5728
  155SAPE   H8Y17314   2.824   5.147   9.563  0.3539  0.1614 -1.5608
  155SAPE   C3917315   2.922   4.968   9.505  1.0691  0.0582  0.4316
  155SAPE   H9X17316   2.846   4.896   9.541  0.1367  0.4971 -0.6206
  155SAPE   H9Y17317   3.024   4.925   9.519  0.8838 -0.5780 -0.1864
  155SAPE  C31017318   2.901   4.982   9.352 -0.4323 -0.4594 -0.3709
  155SAPE  H10X17319   2.970   5.054   9.304 -1.2390 -0.9569 -2.3891
  155SAPE  H10Y17320   2.799   5.024   9.338 -1.1153 -1.0854  2.2289
  155SAPE  C31117321   2.917   4.850   9.272  0.1861  1.0364 -0.5381
  155SAPE  H11X17322   2.839   4.777   9.304  0.0225 -0.8014 -4.5573
  155SAPE  H11Y17323   3.013   4.798   9.292 -0.6485 -0.7308 -0.8724
  155SAPE  C31217324   2.907   4.865   9.117  0.9146  0.3100  0.2655
  155SAPE  H12X17325   2.950   4.780   9.061 -2.5767 -0.7872 -1.0211
  155SAPE  H12Y17326   2.960   4.958   9.091  3.6040 -0.9534  0.9212
  155SAPE  C31317327   2.759   4.863   9.065  0.2334  0.1451 -0.0747
  155SAPE  H13X17328   2.686   4.924   9.122  0.0646 -1.0761  1.0509
  155SAPE  H13Y17329   2.720   4.761   9.088 -0.2862  0.6347  1.2872
  155SAPE  C31417330   2.744   4.880   8.911  0.3472 -0.3452  0.5923
  155SAPE  H14X17331   2.806   4.803   8.861  2.1666  0.7807  1.0076
  155SAPE  H14Y17332   2.794   4.974   8.879 -1.9029  1.1783  1.2460
  155SAPE  C31517333   2.602   4.878   8.849 -0.1749 -0.2204  0.3924
  155SAPE  H15X17334   2.550   4.943   8.922 -0.0689  0.1180  0.1703
  155SAPE  H15Y17335   2.566   4.773   8.848 -1.0589  0.0655 -0.9554
  155SAPE  C31617336   2.601   4.925   8.695  0.0719 -0.5159  0.1122
  155SAPE  H16X17337   2.671   4.864   8.635  0.1061 -2.8310  2.3528
  155SAPE  H16Y17338   2.632   5.032   8.687 -2.0206  0.0146 -1.6820
  155SAPE  C31717339   2.464   4.938   8.621  0.0503 -0.3754  0.0801
  155SAPE  H17X17340   2.484   4.983   8.522  2.7874  2.9642  1.9379
  155SAPE  H17Y17341   2.396   5.010   8.671 -0.2710  0.7924 -1.9172
  155SAPE  C31817342   2.402   4.797   8.609 -0.2998  0.0343  0.3261
  155SAPE  H18X17343   2.477   4.734   8.555  0.3060  1.3723 -0.4407
  155SAPE  H18Y17344   2.306   4.796   8.553  0.2023 -0.2561 -0.5511
  155SAPE  H18Z17345   2.379   4.750   8.707 -3.7727 -3.0347 -1.7002
  156SAPE     N17346   6.495   4.427  10.812  0.6331  0.1449 -0.0010
  156SAPE   HN117347   6.496   4.457  10.911 -2.1987  1.1411 -0.1718
  156SAPE   HN217348   6.545   4.336  10.801  0.8140 -0.3050  3.5308
  156SAPE   HN317349   6.538   4.495  10.745 -3.6660 -0.1108 -3.4745
  156SAPE   C1217350   6.348   4.415  10.786  0.4292  0.0200  0.3064
  156SAPE  H12A17351   6.292   4.494  10.841  1.2666  0.5440  0.4236
  156SAPE  H12B17352   6.318   4.321  10.837  0.1503 -0.0172  0.0709
  156SAPE   C1117353   6.314   4.411  10.638 -0.0321 -0.0628  0.4965
  156SAPE  H11A17354   6.363   4.330  10.580  1.4937  1.0300  0.2130
  156SAPE  H11B17355   6.350   4.508  10.597  0.9906  0.1746  1.8939
  156SAPE     P17356   6.080   4.501  10.546  0.6009 -0.0774 -0.1858
  156SAPE   O1317357   5.955   4.432  10.511 -0.2007 -0.3868 -0.0296
  156SAPE   O1417358   6.072   4.629  10.624  0.1651  0.0974  0.4073
  156SAPE   O1217359   6.170   4.394  10.622 -0.4910 -0.7058 -0.0412
  156SAPE   O1117360   6.169   4.529  10.411  0.2619  0.1579 -0.0436
  156SAPE    C117361   6.190   4.416  10.321 -0.2823 -0.6304 -0.2944
  156SAPE    HA17362   6.271   4.349  10.356 -1.9244 -1.7266  1.5890
  156SAPE    HB17363   6.102   4.348  10.314  0.3291 -1.5048  0.4153
  156SAPE    C217364   6.218   4.478  10.185 -0.7002 -0.1026 -0.2499
  156SAPE    HS17365   6.139   4.553  10.164 -1.8356 -0.5001  2.2257
  156SAPE   O2117366   6.225   4.373  10.084 -0.4608  0.3540  0.0206
  156SAPE   C2117367   6.106   4.320  10.049  0.6097  0.2781 -0.2569
  156SAPE   O2217368   5.997   4.367  10.080  0.1259  0.2856 -0.2192
  156SAPE   C2217369   6.130   4.186   9.976 -0.5275 -0.5768 -0.5658
  156SAPE   H2R17370   6.233   4.175   9.934 -0.3119 -2.5728  0.3903
  156SAPE   H2S17371   6.122   4.106  10.053 -1.5830 -1.5935 -1.7013
  156SAPE    C317372   6.360   4.554  10.182 -0.2162  0.0258 -0.3873
  156SAPE    HX17373   6.444   4.489  10.215 -0.9548  0.5811  2.9081
  156SAPE    HY17374   6.360   4.628  10.264 -0.3223 -0.5103  0.1016
  156SAPE   O3117375   6.373   4.620  10.053 -0.9092  0.3027 -0.2326
  156SAPE   C3117376   6.435   4.561   9.957  0.0734  0.2497  0.1321
  156SAPE   O3217377   6.509   4.469   9.968  0.1682  0.5131  0.2015
  156SAPE   C3217378   6.402   4.637   9.830  0.7008 -0.1274 -0.1892
  156SAPE   H2X17379   6.444   4.740   9.833  0.9615 -0.0898 -2.8229
  156SAPE   H2Y17380   6.291   4.641   9.822  0.6707 -0.3721  0.0719
  156SAPE   C2317381   6.018   4.164   9.872  0.0467 -0.2394  0.5672
  156SAPE   H3R17382   5.921   4.185   9.923  0.7648  2.3285  0.9926
  156SAPE   H3S17383   6.025   4.064   9.824  1.4017  0.9783 -1.9445
  156SAPE   C2417384   6.045   4.269   9.761  0.4969  0.2011 -0.1983
  156SAPE   H4R17385   6.152   4.270   9.728 -0.0990 -0.7919 -2.3623
  156SAPE   H4S17386   6.029   4.367   9.810 -3.0445 -0.5472  0.4267
  156SAPE   C2517387   5.944   4.270   9.648 -0.7154  0.8555  0.3497
  156SAPE   H5R17388   5.843   4.311   9.665 -1.5487  0.0306 -2.2172
  156SAPE   C2617389   5.978   4.228   9.525 -0.1801  0.5142  0.7251
  156SAPE   H6R17390   5.892   4.228   9.458 -0.6134 -1.1367  1.2240
  156SAPE   C2717391   6.104   4.171   9.468  0.6216  0.0974  0.5107
  156SAPE   H7R17392   6.162   4.121   9.548  0.1169  0.1624  0.9225
  156SAPE   H7S17393   6.168   4.258   9.443  1.7640  0.0233  2.9546
  156SAPE   C2817394   6.082   4.081   9.351  0.1143 -0.0067  0.9648
  156SAPE   H8R17395   6.051   3.978   9.374  0.0971 -0.0927  0.5671
  156SAPE   C2917396   6.105   4.118   9.224  0.0762  1.0185  0.5078
  156SAPE   H9R17397   6.080   4.042   9.148 -0.7896  1.7226  0.0735
  156SAPE  C21017398   6.139   4.255   9.176  0.0678 -0.5692 -0.1035
  156SAPE  H10R17399   6.237   4.258   9.124 -0.5894  1.4363 -1.3275
  156SAPE  H10S17400   6.161   4.326   9.259  1.0115  2.1503 -2.5015
  156SAPE  C21117401   6.032   4.315   9.088  0.5213  0.2658 -0.4620
  156SAPE  H11R17402   5.947   4.356   9.145  0.9786  0.4298  0.1177
  156SAPE  C21217403   6.033   4.320   8.957 -0.1241 -0.3208  0.8070
  156SAPE  H12R17404   5.933   4.343   8.917  0.2576  1.7019  0.8966
  156SAPE  C21317405   6.138   4.279   8.857  0.0177  0.0317 -0.8008
  156SAPE  H13R17406   6.073   4.217   8.792  0.6059  0.3170 -1.6780
  156SAPE  H13S17407   6.198   4.199   8.905 -1.7012  0.5026  2.4066
  156SAPE  C21417408   6.221   4.391   8.797 -0.3710  0.1248 -0.1118
  156SAPE  H14R17409   6.300   4.431   8.863  1.6693 -1.2552 -1.6195
  156SAPE  C21517410   6.211   4.439   8.675 -0.4158  0.9769 -0.1527
  156SAPE  H15R17411   6.278   4.521   8.644  0.1846 -0.0414 -1.6756
  156SAPE  C21617412   6.114   4.400   8.567  0.5494 -0.8035 -0.3248
  156SAPE  H16R17413   6.025   4.348   8.610  1.4655 -1.3808  0.9418
  156SAPE  H16S17414   6.155   4.331   8.490  0.5112 -0.1070 -0.9728
  156SAPE  C21717415   6.054   4.524   8.495  0.4784 -0.0003 -0.7927
  156SAPE  H17R17416   6.011   4.596   8.568  1.5258  0.4563 -0.6021
  156SAPE  H17S17417   5.970   4.488   8.432 -2.5627  3.3843  1.0059
  156SAPE  C21817418   6.152   4.592   8.401  0.1362 -0.0636  0.8045
  156SAPE  H18R17419   6.190   4.515   8.329  2.7972  1.3533  0.5497
  156SAPE  H18S17420   6.234   4.616   8.471  1.9567 -2.2180 -0.4321
  156SAPE  C21917421   6.111   4.720   8.333  0.0286 -0.9490  0.8500
  156SAPE  H19R17422   6.028   4.696   8.263  0.8836 -0.4138 -0.3815
  156SAPE  H19S17423   6.193   4.759   8.270 -1.7381  0.4665 -0.6985
  156SAPE  C22017424   6.050   4.827   8.425  0.3956  0.7117 -0.0969
  156SAPE  H20R17425   6.063   4.929   8.384  4.0203 -0.6339 -2.8604
  156SAPE  H20S17426   6.114   4.825   8.516 -0.0715  1.6812  0.2698
  156SAPE  H20T17427   5.947   4.809   8.461  0.6276 -0.7164 -0.0950
  156SAPE   C3317428   6.446   4.572   9.693 -1.0370 -0.1106  0.3255
  156SAPE   H3X17429   6.557   4.577   9.696 -0.9111  3.3436 -2.9536
  156SAPE   H3Y17430   6.402   4.650   9.627 -1.7755  0.4522  1.4399
  156SAPE   C3417431   6.410   4.427   9.667 -0.0158  0.0231  0.1029
  156SAPE   H4X17432   6.299   4.426   9.666 -0.0159 -0.0733  0.1684
  156SAPE   H4Y17433   6.449   4.360   9.747 -0.2480 -1.0467 -0.6524
  156SAPE   C3517434   6.456   4.381   9.522  0.6318 -0.6106 -0.4865
  156SAPE   H5X17435   6.498   4.466   9.463 -1.3715 -0.6033 -1.9846
  156SAPE   H5Y17436   6.373   4.348   9.457  1.0980  1.1726 -2.0990
  156SAPE   C3617437   6.557   4.269   9.519  0.4889  0.7390  0.2200
  156SAPE   H6X17438   6.519   4.178   9.572  2.2026  0.2437  0.6475
  156SAPE   H6Y17439   6.630   4.315   9.589 -1.3329  1.6075  1.6616
  156SAPE   C3717440   6.606   4.235   9.375  0.5521 -0.0665 -0.2021
  156SAPE   H7X17441   6.688   4.161   9.384  1.7797  1.3785  1.1320
  156SAPE   H7Y17442   6.639   4.331   9.330 -1.2740  1.2737  1.1375
  156SAPE   C3817443   6.511   4.173   9.270  0.3411  0.4343 -0.2005
  156SAPE   H8X17444   6.420   4.236   9.261 -1.9606 -2.4772  0.9322
  156SAPE   H8Y17445   6.470   4.078   9.311  0.6877  0.1014 -0.6117
  156SAPE   C3917446   6.575   4.147   9.136  0.6714  0.2340 -0.3949
  156SAPE   H9X17447   6.496   4.091   9.081 -0.3515  0.6622  0.5973
  156SAPE   H9Y17448   6.675   4.100   9.151 -0.2306 -1.5712  0.3779
  156SAPE  C31017449   6.615   4.271   9.059  1.0984  0.4396  0.2560
  156SAPE  H10X17450   6.684   4.337   9.116 -0.1854  2.2987 -0.2311
  156SAPE  H10Y17451   6.524   4.331   9.034  1.2527 -0.3828 -2.6191
  156SAPE  C31117452   6.681   4.222   8.927  0.4596  0.4083 -0.0019
  156SAPE  H11X17453   6.641   4.121   8.904 -1.1914 -0.1059  4.2713
  156SAPE  H11Y17454   6.791   4.213   8.943  0.2508  0.0191  1.2987
  156SAPE  C31217455   6.649   4.316   8.810 -0.5251  0.5625  0.2486
  156SAPE  H12X17456   6.697   4.414   8.830  0.4621  0.3264 -0.8639
  156SAPE  H12Y17457   6.539   4.328   8.809 -0.6214 -0.1261  1.1902
  156SAPE  C31317458   6.708   4.241   8.687 -0.3475  0.3974 -0.8158
  156SAPE  H13X17459   6.653   4.148   8.660  0.5086 -0.7394  1.1639
  156SAPE  H13Y17460   6.805   4.198   8.721 -0.0450  0.7279 -1.2566
  156SAPE  C31417461   6.725   4.327   8.562  0.3593 -0.0263 -0.0989
  156SAPE  H14X17462   6.791   4.290   8.480 -1.6400 -0.7484 -1.4659
  156SAPE  H14Y17463   6.761   4.428   8.592 -1.7924  1.3678 -1.8056
  156SAPE  C31517464   6.580   4.343   8.489 -0.9560 -0.0607 -0.5346
  156SAPE  H15X17465   6.498   4.384   8.552 -0.5026  1.4951 -0.9073
  156SAPE  H15Y17466   6.560   4.240   8.453  1.9929 -0.9216  0.0037
  156SAPE  C31617467   6.591   4.433   8.365  0.7474  1.1654  0.0424
  156SAPE  H16X17468   6.647   4.387   8.281 -0.5727  1.0450 -0.7942
  156SAPE  H16Y17469   6.642   4.529   8.386 -0.1313  1.5573  0.4232
  156SAPE  C31717470   6.450   4.461   8.297  0.9537  0.8619  0.6559
  156SAPE  H17X17471   6.379   4.510   8.367 -3.6419 -1.0853 -2.1525
  156SAPE  H17Y17472   6.402   4.364   8.269 -0.5188  1.7315  0.0747
  156SAPE  C31817473   6.452   4.532   8.161 -1.0088  0.0711 -0.1082
  156SAPE  H18X17474   6.459   4.641   8.178 -0.3947 -0.1472  1.2141
  156SAPE  H18Y17475   6.352   4.519   8.113 -0.6123  1.2646 -1.3151
  156SAPE  H18Z17476   6.523   4.481   8.093 -2.6741 -1.3502 -0.8686
  157SAPE     N17477   5.939   2.398  10.787  0.4194  0.4802 -0.0607
  157SAPE   HN117478   5.960   2.480  10.726  2.8124  0.1927  0.2730
  157SAPE   HN217479   5.885   2.436  10.868  2.1619 -0.5666  1.6971
  157SAPE   HN317480   6.026   2.365  10.832 -0.5976 -1.1292  0.8279
  157SAPE   C1217481   5.851   2.294  10.722  0.0380 -0.4766 -0.8127
  157SAPE  H12A17482   5.845   2.205  10.788  2.2510 -0.8928 -1.0923
  157SAPE  H12B17483   5.898   2.265  10.626 -0.2445  0.0030 -1.1040
  157SAPE   C1117484   5.715   2.372  10.699 -0.4016  0.5374 -0.0768
  157SAPE  H11A17485   5.646   2.301  10.650  0.0670  0.4166 -0.5779
  157SAPE  H11B17486   5.735   2.449  10.621 -1.6218  1.2309  0.2695
  157SAPE     P17487   5.588   2.569  10.819 -0.0265  0.4795 -0.0194
  157SAPE   O1317488   5.514   2.585  10.946 -0.1481 -0.8060  0.6533
  157SAPE   O1417489   5.696   2.664  10.789 -0.1921  0.7407 -0.3224
  157SAPE   O1217490   5.660   2.426  10.817  0.3223 -0.6420 -0.4770
  157SAPE   O1117491   5.492   2.562  10.695 -0.2633  0.5507 -0.0279
  157SAPE    C117492   5.374   2.481  10.698  0.8350  0.2768 -0.4444
  157SAPE    HA17493   5.369   2.420  10.791 -1.0891  1.8224  0.5517
  157SAPE    HB17494   5.288   2.550  10.711 -3.4203 -4.3323 -1.2279
  157SAPE    C217495   5.334   2.419  10.559 -0.3019  0.1430 -0.0738
  157SAPE    HS17496   5.399   2.335  10.528  1.5237  1.8852 -1.2194
  157SAPE   O2117497   5.361   2.530  10.470 -0.1553 -0.1774  0.4393
  157SAPE   C2117498   5.472   2.513  10.388 -0.4074  0.3884  0.3572
  157SAPE   O2217499   5.552   2.421  10.400 -0.4177  0.1527  0.5522
  157SAPE   C2217500   5.466   2.620  10.281 -0.2785  0.3784  0.3293
  157SAPE   H2R17501   5.470   2.710  10.347 -1.9280  0.0746  0.8844
  157SAPE   H2S17502   5.555   2.625  10.214 -1.6531 -1.1099 -1.7251
  157SAPE    C317503   5.191   2.368  10.562  0.3697  0.3991  0.3045
  157SAPE    HX17504   5.132   2.462  10.576  0.7525  1.0729 -2.1042
  157SAPE    HY17505   5.158   2.316  10.654 -1.2036  1.9604  0.6844
  157SAPE   O3117506   5.143   2.310  10.433 -0.0718  0.4372  0.1863
  157SAPE   C3117507   5.139   2.176  10.441 -0.0299 -0.7334  0.8136
  157SAPE   O3217508   5.216   2.110  10.510 -1.0435  0.5437 -0.5154
  157SAPE   C3217509   5.036   2.123  10.342  0.6338 -0.0488 -0.1369
  157SAPE   H2X17510   4.939   2.168  10.374 -0.1450 -0.4003 -1.8803
  157SAPE   H2Y17511   5.032   2.012  10.354  1.9709 -0.0578  0.3745
  157SAPE   C2317512   5.334   2.608  10.201 -0.3691 -0.3546 -0.3750
  157SAPE   H3R17513   5.331   2.700  10.140  0.3619  0.6683  1.0832
  157SAPE   H3S17514   5.243   2.606  10.265 -1.0441  0.2009 -1.2944
  157SAPE   C2417515   5.327   2.484  10.107 -0.1117  0.4112 -0.5360
  157SAPE   H4R17516   5.227   2.497  10.059  0.1434 -0.8203 -1.4492
  157SAPE   H4S17517   5.311   2.390  10.164  2.1051  0.1240 -0.3176
  157SAPE   C2517518   5.443   2.468  10.013  0.4052 -0.6041  0.2478
  157SAPE   H5R17519   5.516   2.392  10.045  0.2974 -0.1234  1.7042
  157SAPE   C2617520   5.459   2.512   9.888 -0.3555 -0.6980 -0.4211
  157SAPE   H6R17521   5.550   2.485   9.833 -1.2594 -1.9763 -1.3635
  157SAPE   C2717522   5.363   2.594   9.815  1.1734 -0.1171  0.1238
  157SAPE   H7R17523   5.313   2.658   9.891 -0.0889  0.3634 -1.0743
  157SAPE   H7S17524   5.283   2.528   9.775 -1.5185  1.1451  2.9880
  157SAPE   C2817525   5.429   2.684   9.709  0.2473 -0.3406 -0.6691
  157SAPE   H8R17526   5.536   2.674   9.686  0.1704  0.1063 -1.2276
  157SAPE   C2917527   5.362   2.778   9.641  0.0448 -1.2043 -0.0257
  157SAPE   H9R17528   5.410   2.838   9.562  0.0980 -0.5572  0.4865
  157SAPE  C21017529   5.213   2.795   9.657  0.3328  0.1911  0.0547
  157SAPE  H10R17530   5.158   2.734   9.732  0.6173  0.7162  0.6952
  157SAPE  H10S17531   5.173   2.759   9.560 -0.3296 -2.2481  1.1487
  157SAPE  C21117532   5.188   2.940   9.672 -0.1177  0.1373 -0.0318
  157SAPE  H11R17533   5.231   2.987   9.762  2.0531 -0.0253 -0.9205
  157SAPE  C21217534   5.115   3.013   9.587 -0.2593  0.1066 -0.4780
  157SAPE  H12R17535   5.110   3.121   9.611 -1.8421 -0.2628  1.0812
  157SAPE  C21317536   5.032   2.972   9.468 -0.1344  0.5676  0.9452
  157SAPE  H13R17537   5.028   2.861   9.472  2.7866  0.3313 -0.2720
  157SAPE  H13S17538   5.093   2.999   9.379 -0.5019  0.6961  0.7256
  157SAPE  C21417539   4.896   3.035   9.445  0.2001  0.3023 -0.3184
  157SAPE  H14R17540   4.875   3.130   9.496 -0.8810  1.3696 -2.6282
  157SAPE  C21517541   4.793   2.972   9.376  0.5893  0.5112  0.3785
  157SAPE  H15R17542   4.697   3.022   9.357  0.1147 -0.5093 -0.0180
  157SAPE  C21617543   4.801   2.835   9.314  0.7127 -0.5381 -0.0703
  157SAPE  H16R17544   4.773   2.768   9.398 -0.5494  0.3660  0.2696
  157SAPE  H16S17545   4.899   2.818   9.266  0.3912  0.3340 -1.0560
  157SAPE  C21717546   4.691   2.782   9.212 -0.4742 -0.2413  0.1112
  157SAPE  H17R17547   4.601   2.785   9.278 -0.4882  3.2980  0.1179
  157SAPE  H17S17548   4.709   2.676   9.183  0.5090 -0.4066  1.2253
  157SAPE  C21817549   4.675   2.873   9.087  0.3838 -0.5308 -0.0712
  157SAPE  H18R17550   4.768   2.876   9.026 -0.3686 -4.3429 -1.7081
  157SAPE  H18S17551   4.647   2.974   9.125 -0.8120 -0.7190 -0.3904
  157SAPE  C21917552   4.561   2.831   8.988  0.3252  0.2696 -0.3256
  157SAPE  H19R17553   4.583   2.728   8.952 -1.0864 -0.4965  0.8911
  157SAPE  H19S17554   4.557   2.900   8.901  2.1590  0.8407  0.0123
  157SAPE  C22017555   4.421   2.809   9.055 -0.0915 -0.1189 -0.2772
  157SAPE  H20R17556   4.422   2.718   9.119 -1.6273 -2.2672 -3.0634
  157SAPE  H20S17557   4.351   2.782   8.973 -0.7391  0.2029  0.1682
  157SAPE  H20T17558   4.383   2.895   9.112 -0.4062 -0.5365  0.1483
  157SAPE   C3317559   5.059   2.150  10.193 -0.6432  0.1395  0.0979
  157SAPE   H3X17560   5.063   2.259  10.174  0.0130  0.4102  1.5901
  157SAPE   H3Y17561   4.976   2.110  10.132 -0.6840 -0.9753  0.8494
  157SAPE   C3417562   5.189   2.096  10.128  0.2327  0.7845  0.2691
  157SAPE   H4X17563   5.187   1.985  10.133 -2.2476  0.6912 -0.9512
  157SAPE   H4Y17564   5.281   2.128  10.182 -0.0263 -0.7640  1.7058
  157SAPE   C3517565   5.199   2.144   9.988  0.4054 -1.0606  0.5950
  157SAPE   H5X17566   5.166   2.249   9.971 -0.8995 -1.4961  0.3266
  157SAPE   H5Y17567   5.121   2.087   9.934 -0.0577  1.4306 -1.5663
  157SAPE   C3617568   5.328   2.105   9.908  0.6274 -0.4434 -0.5071
  157SAPE   H6X17569   5.338   1.999   9.939 -4.1328 -0.8315  0.3958
  157SAPE   H6Y17570   5.414   2.167   9.941  0.1124  1.3417 -2.2984
  157SAPE   C3717571   5.315   2.134   9.754 -0.5597  1.0006  0.3066
  157SAPE   H7X17572   5.302   2.242   9.733 -1.2879  0.7229 -0.8258
  157SAPE   H7Y17573   5.219   2.097   9.712 -0.0265 -0.3670  0.2543
  157SAPE   C3817574   5.423   2.069   9.669 -0.3087 -0.9561 -0.0232
  157SAPE   H8X17575   5.423   1.959   9.680 -1.4150 -1.1733 -1.7994
  157SAPE   H8Y17576   5.515   2.124   9.698 -1.7156  0.3425  2.2887
  157SAPE   C3917577   5.425   2.109   9.516  0.1397  0.5716  0.1172
  157SAPE   H9X17578   5.389   2.214   9.506 -1.4329  0.0521  0.0963
  157SAPE   H9Y17579   5.345   2.050   9.466  2.0975 -0.7696 -1.5818
  157SAPE  C31017580   5.563   2.090   9.457 -0.0358  0.0480 -0.2215
  157SAPE  H10X17581   5.596   1.985   9.472 -2.2391 -0.4810  1.3509
  157SAPE  H10Y17582   5.637   2.158   9.507 -0.3741 -0.8207  1.5545
  157SAPE  C31117583   5.562   2.109   9.304 -0.2654 -0.0132 -0.4786
  157SAPE  H11X17584   5.669   2.115   9.278 -0.8535  2.8318 -2.6657
  157SAPE  H11Y17585   5.529   2.213   9.284  0.6440  0.5987  1.0402
  157SAPE  C31217586   5.482   2.009   9.220 -0.2948  0.6263 -0.5468
  157SAPE  H12X17587   5.374   2.028   9.239 -0.7817 -2.1254 -0.1741
  157SAPE  H12Y17588   5.500   1.904   9.248 -1.9432  0.3273 -0.4804
  157SAPE  C31317589   5.528   2.019   9.072  0.1591 -0.1371  0.1577
  157SAPE  H13X17590   5.622   2.078   9.065  0.9001 -1.4080 -1.1324
  157SAPE  H13Y17591   5.449   2.066   9.009 -0.3473 -3.6675 -2.1476
  157SAPE  C31417592   5.548   1.889   9.005 -0.2519 -0.0108 -0.6061
  157SAPE  H14X17593   5.449   1.839   8.997  0.1256 -0.5883 -1.9190
  157SAPE  H14Y17594   5.610   1.815   9.058 -2.6798 -2.4613 -0.9599
  157SAPE  C31517595   5.623   1.902   8.868  0.6624 -0.0159 -0.1214
  157SAPE  H15X17596   5.729   1.925   8.890 -0.2309  2.2999  2.3293
  157SAPE  H15Y17597   5.586   1.981   8.799 -0.9405 -0.8284 -0.2377
  157SAPE  C31617598   5.615   1.773   8.784 -0.8856  0.2338 -0.7153
  157SAPE  H16X17599   5.643   1.696   8.860 -3.5041  1.7214  1.9713
  157SAPE  H16Y17600   5.698   1.784   8.712 -2.6134 -0.5955 -2.9490
  157SAPE  C31717601   5.480   1.748   8.720 -0.9206  0.0513 -0.2534
  157SAPE  H17X17602   5.461   1.844   8.666 -0.1421  0.6407  0.4885
  157SAPE  H17Y17603   5.404   1.739   8.801 -0.8010 -2.5849 -0.3438
  157SAPE  C31817604   5.465   1.615   8.645 -0.5450 -0.0790 -0.0544
  157SAPE  H18X17605   5.382   1.621   8.572 -1.3171 -0.7464  0.7410
  157SAPE  H18Y17606   5.465   1.522   8.707 -1.3851 -0.8130 -1.1114
  157SAPE  H18Z17607   5.561   1.605   8.589 -0.7253 -1.3560 -0.1759
  158SAPE     N17608   6.519   3.719  10.707 -0.5036 -0.2156  0.2643
  158SAPE   HN117609   6.445   3.652  10.681 -0.6163 -0.0503  0.1567
  158SAPE   HN217610   6.583   3.670  10.773  0.2729  1.2490  0.6644
  158SAPE   HN317611   6.463   3.791  10.757  1.0816  0.0665  1.7543
  158SAPE   C1217612   6.576   3.785  10.581  0.4249 -0.2176  0.0718
  158SAPE  H12A17613   6.503   3.831  10.510  2.6645 -1.3246 -3.1718
  158SAPE  H12B17614   6.613   3.698  10.522 -0.9341 -0.0813 -1.0316
  158SAPE   C1117615   6.687   3.881  10.615  0.3084  0.2660 -0.0011
  158SAPE  H11A17616   6.735   3.901  10.517  1.5874  0.8404  0.7185
  158SAPE  H11B17617   6.750   3.831  10.691 -1.6714 -2.4849 -0.0185
  158SAPE     P17618   6.714   4.098  10.736 -0.3737  0.2081  0.0491
  158SAPE   O1317619   6.656   4.233  10.762  0.1042 -0.0131  0.6074
  158SAPE   O1417620   6.776   4.031  10.854  0.4948 -0.8465 -0.2610
  158SAPE   O1217621   6.626   4.002  10.650  0.2946 -0.0150 -0.2969
  158SAPE   O1117622   6.838   4.120  10.640  0.3863  0.7399  0.2747
  158SAPE    C117623   6.847   4.237  10.564 -0.1102 -0.4668  0.0744
  158SAPE    HA17624   6.767   4.313  10.579  1.2414  1.0219 -0.0819
  158SAPE    HB17625   6.940   4.292  10.588 -0.7208  0.4337  0.4226
  158SAPE    C217626   6.831   4.205  10.417  0.3572  0.3157 -1.1754
  158SAPE    HS17627   6.850   4.297  10.359  0.8799  0.3681 -0.9254
  158SAPE   O2117628   6.705   4.145  10.383  0.1900 -0.2079  0.1971
  158SAPE   C2117629   6.600   4.227  10.394 -0.5560  0.1515  0.2871
  158SAPE   O2217630   6.602   4.346  10.415  0.4661  0.5638 -0.1625
  158SAPE   C2217631   6.483   4.150  10.351 -0.4415 -0.1890  0.1929
  158SAPE   H2R17632   6.508   4.050  10.391  0.7028  1.2657  3.4573
  158SAPE   H2S17633   6.394   4.172  10.413  0.4672 -0.5275  1.6688
  158SAPE    C317634   6.942   4.111  10.369 -0.6791  0.6633 -0.0783
  158SAPE    HX17635   6.961   4.034  10.447  0.1449  1.7491  0.8422
  158SAPE    HY17636   7.032   4.176  10.369  2.1642 -2.9560  1.6716
  158SAPE   O3117637   6.933   4.063  10.232  0.3306 -0.5035 -0.3812
  158SAPE   C3117638   6.913   3.935  10.209 -0.7196  0.2308  0.5317
  158SAPE   O3217639   6.907   3.849  10.297 -0.1906 -0.0335  0.2119
  158SAPE   C3217640   6.907   3.900  10.061 -0.0419 -0.3258 -0.8441
  158SAPE   H2X17641   6.803   3.920  10.028 -1.1483  0.0320  2.5119
  158SAPE   H2Y17642   6.909   3.790  10.047 -2.6279 -0.6228  0.4456
  158SAPE   C2317643   6.445   4.145  10.202 -0.6315 -0.2988 -0.5816
  158SAPE   H3R17644   6.430   4.248  10.161 -1.8392 -0.1565  0.1519
  158SAPE   H3S17645   6.347   4.093  10.203 -0.5605 -0.4396  0.6840
  158SAPE   C2417646   6.531   4.049  10.113 -0.1567 -0.0350 -1.0885
  158SAPE   H4R17647   6.492   3.946  10.132 -0.8731  0.6627  1.5919
  158SAPE   H4S17648   6.640   4.038  10.133 -0.2719  0.2471 -0.2879
  158SAPE   C2517649   6.510   4.072   9.970 -0.1555 -0.4708  0.3993
  158SAPE   H5R17650   6.488   4.178   9.955  2.6708  0.3826  1.6518
  158SAPE   C2617651   6.535   3.989   9.865  0.1430 -0.1341  0.0302
  158SAPE   H6R17652   6.514   4.022   9.762  1.4819  0.4787 -0.0633
  158SAPE   C2717653   6.572   3.843   9.880 -0.4641 -0.3751 -0.6284
  158SAPE   H7R17654   6.541   3.798   9.977 -0.6154  0.3671 -0.3220
  158SAPE   H7S17655   6.683   3.844   9.880 -0.1914  2.8608  3.9345
  158SAPE   C2817656   6.522   3.754   9.771  0.0367 -0.2613 -0.0006
  158SAPE   H8R17657   6.426   3.703   9.785 -0.8897  1.5317  0.4735
  158SAPE   C2917658   6.578   3.737   9.656  0.0997  0.5923 -0.1284
  158SAPE   H9R17659   6.531   3.667   9.585  0.7211  0.1835 -0.1359
  158SAPE  C21017660   6.706   3.797   9.604 -0.3638 -0.1076  0.2548
  158SAPE  H10R17661   6.783   3.718   9.584 -0.9883 -0.4094 -1.0966
  158SAPE  H10S17662   6.760   3.872   9.665 -0.6086 -0.3296  0.7486
  158SAPE  C21117663   6.690   3.866   9.471  0.6156 -0.2095  0.1835
  158SAPE  H11R17664   6.624   3.954   9.479 -0.3576 -1.0656  2.3123
  158SAPE  C21217665   6.743   3.836   9.348  0.5115  0.0664  0.3877
  158SAPE  H12R17666   6.709   3.885   9.256 -0.6164 -1.8658 -0.2916
  158SAPE  C21317667   6.843   3.723   9.331 -0.2662 -0.4051 -0.0386
  158SAPE  H13R17668   6.837   3.649   9.413 -0.0423 -0.0355  0.3183
  158SAPE  H13S17669   6.948   3.760   9.337 -1.3152  3.0791 -0.7483
  158SAPE  C21417670   6.822   3.648   9.196  0.5889  0.3006  0.3336
  158SAPE  H14R17671   6.761   3.557   9.204 -0.3631  0.7033 -1.8750
  158SAPE  C21517672   6.869   3.691   9.078 -0.3567 -0.6714 -0.6219
  158SAPE  H15R17673   6.861   3.636   8.983 -2.1067  1.6842 -1.9316
  158SAPE  C21617674   6.954   3.816   9.058 -0.4048  0.1160  0.2333
  158SAPE  H16R17675   7.044   3.782   9.003 -1.3808  1.2985 -2.2081
  158SAPE  H16S17676   7.002   3.862   9.147  0.8893  0.9714 -0.8815
  158SAPE  C21717677   6.889   3.918   8.969  1.2324  0.8643  0.0216
  158SAPE  H17R17678   6.954   4.008   8.961  2.1209  0.2513  0.3458
  158SAPE  H17S17679   6.798   3.947   9.026 -0.4449 -3.6571  0.0460
  158SAPE  C21817680   6.834   3.868   8.834  0.2300  0.4607  0.5836
  158SAPE  H18R17681   6.760   3.941   8.797  0.2767  1.1008  1.7021
  158SAPE  H18S17682   6.766   3.786   8.865  1.0579 -1.0506 -1.4101
  158SAPE  C21917683   6.937   3.807   8.742  0.4447  0.1177 -0.1926
  158SAPE  H19R17684   7.002   3.743   8.804 -0.6894 -1.0466 -0.1612
  158SAPE  H19S17685   6.999   3.886   8.694  0.4734  0.1196 -0.1529
  158SAPE  C22017686   6.870   3.728   8.629  0.1093  0.2773  0.0789
  158SAPE  H20R17687   6.780   3.789   8.610  0.5334  0.7090 -0.5622
  158SAPE  H20S17688   6.846   3.625   8.662  0.1257  0.5859  1.0922
  158SAPE  H20T17689   6.950   3.717   8.552 -0.3089 -0.0632 -0.3115
  158SAPE   C3317690   6.997   3.991   9.984 -0.4076  0.0750 -0.4317
  158SAPE   H3X17691   7.104   3.974  10.011 -0.3301  0.0010 -0.7833
  158SAPE   H3Y17692   6.981   4.100  10.002 -1.3420  0.2960 -2.3791
  158SAPE   C3417693   6.988   3.966   9.828  0.4242 -1.0106 -0.5872
  158SAPE   H4X17694   6.897   4.018   9.792  0.1316 -1.2661 -0.2139
  158SAPE   H4Y17695   6.961   3.860   9.811 -1.4996 -0.7817  0.8375
  158SAPE   C3517696   7.108   4.003   9.748 -0.4561  0.2230 -0.6985
  158SAPE   H5X17697   7.191   3.935   9.775  0.4822  1.2705 -0.8612
  158SAPE   H5Y17698   7.141   4.109   9.741 -0.4142  0.1136 -2.5144
  158SAPE   C3617699   7.094   3.962   9.596 -0.2350 -0.1884  0.1707
  158SAPE   H6X17700   7.006   4.022   9.564  0.5201  2.4108  2.5298
  158SAPE   H6Y17701   7.072   3.853   9.588  0.3776 -0.3062  0.0890
  158SAPE   C3717702   7.210   4.008   9.508  0.0352 -0.4874 -0.0699
  158SAPE   H7X17703   7.297   3.966   9.564 -0.8756 -0.2917  1.5366
  158SAPE   H7Y17704   7.229   4.117   9.516 -0.7027 -0.2537 -1.1991
  158SAPE   C3817705   7.210   3.956   9.362 -0.3145 -0.7154  0.3312
  158SAPE   H8X17706   7.134   4.018   9.310  1.5746  1.6017  0.1928
  158SAPE   H8Y17707   7.167   3.855   9.343 -0.5673 -0.8886  1.7404
  158SAPE   C3917708   7.348   3.968   9.297 -1.0493 -0.4024  0.9312
  158SAPE   H9X17709   7.424   3.906   9.349 -0.8448 -1.5218 -0.6349
  158SAPE   H9Y17710   7.385   4.073   9.300 -2.4327  0.3128 -2.3899
  158SAPE  C31017711   7.356   3.927   9.149  0.1279  0.4456 -0.5475
  158SAPE  H10X17712   7.258   3.958   9.105 -0.5297 -1.1756 -0.3038
  158SAPE  H10Y17713   7.349   3.817   9.142 -1.0409  0.3432  1.4320
  158SAPE  C31117714   7.477   3.986   9.076  0.0241  0.0478  0.4257
  158SAPE  H11X17715   7.570   3.965   9.133  0.7039 -0.6166 -0.8842
  158SAPE  H11Y17716   7.454   4.094   9.066 -1.4072 -0.3688 -1.2300
  158SAPE  C31217717   7.495   3.931   8.929 -0.1317  0.2329  0.2626
  158SAPE  H12X17718   7.515   3.821   8.931 -0.0023  0.2680  2.3418
  158SAPE  H12Y17719   7.581   3.979   8.878  0.0831  2.1903  2.3276
  158SAPE  C31317720   7.359   3.939   8.847  0.7482  0.0741 -0.0204
  158SAPE  H13X17721   7.315   4.040   8.856  1.7830  0.4527  1.0387
  158SAPE  H13Y17722   7.282   3.867   8.882 -0.2568  0.3766 -1.5195
  158SAPE  C31417723   7.376   3.913   8.699 -0.4858  0.1515  0.0230
  158SAPE  H14X17724   7.467   3.972   8.674 -0.6464  1.0370  1.4211
  158SAPE  H14Y17725   7.285   3.946   8.645 -0.9062 -0.1112  0.5656
  158SAPE  C31517726   7.397   3.768   8.656  0.5053  0.1290 -0.2632
  158SAPE  H15X17727   7.317   3.711   8.708 -0.5726  1.3028 -0.5728
  158SAPE  H15Y17728   7.496   3.745   8.699 -0.5496  0.6849  2.6729
  158SAPE  C31617729   7.388   3.764   8.503  0.1675 -0.1167  0.1769
  158SAPE  H16X17730   7.427   3.860   8.463  0.3765 -0.0665  0.5024
  158SAPE  H16Y17731   7.279   3.772   8.482  0.0667 -1.9014 -0.1832
  158SAPE  C31717732   7.441   3.633   8.436  0.6445  1.0287 -0.2996
  158SAPE  H17X17733   7.398   3.543   8.485  1.3347 -0.0589 -1.6191
  158SAPE  H17Y17734   7.551   3.617   8.445  0.3423 -1.5811 -0.2923
  158SAPE  C31817735   7.414   3.628   8.284 -0.1488 -0.2269 -0.8424
  158SAPE  H18X17736   7.451   3.532   8.242 -0.7127 -0.6757 -0.3354
  158SAPE  H18Y17737   7.465   3.700   8.216 -1.6355  0.7793 -0.9643
  158SAPE  H18Z17738   7.304   3.643   8.270 -0.2330  1.7374  1.2160
  159SAPE     N17739   5.234   0.488   6.374 -0.2605 -0.0911 -0.5780
  159SAPE   HN117740   5.132   0.500   6.390  0.0270 -0.6239  2.2077
  159SAPE   HN217741   5.247   0.400   6.321  0.4523  0.1166 -0.7542
  159SAPE   HN317742   5.281   0.472   6.465  1.1497 -0.5290 -1.3601
  159SAPE   C1217743   5.268   0.622   6.310  0.5043  0.0104  0.0923
  159SAPE  H12A17744   5.254   0.609   6.200  0.5355 -1.4977  0.2390
  159SAPE  H12B17745   5.373   0.659   6.322  0.7209 -0.3879 -0.5317
  159SAPE   C1117746   5.175   0.721   6.366  0.8072 -0.6519  0.5471
  159SAPE  H11A17747   5.163   0.808   6.299  2.1470 -0.6444  0.2883
  159SAPE  H11B17748   5.237   0.757   6.452 -1.3384  1.5340  1.2777
  159SAPE     P17749   4.965   0.737   6.527 -0.2997  0.2352 -0.2079
  159SAPE   O1317750   4.850   0.818   6.477 -0.3899 -0.2741  0.2437
  159SAPE   O1417751   4.928   0.628   6.621  0.1046 -0.2888  0.1920
  159SAPE   O1217752   5.048   0.674   6.402 -0.3518 -0.1632 -0.4049
  159SAPE   O1117753   5.070   0.831   6.598  0.2673  0.4672 -0.0679
  159SAPE    C117754   5.172   0.774   6.685 -0.1310 -0.3407 -0.2158
  159SAPE    HA17755   5.193   0.666   6.670  0.2123 -0.3112  0.0379
  159SAPE    HB17756   5.269   0.817   6.654  0.0692 -0.5081  0.1640
  159SAPE    C217757   5.131   0.801   6.833  0.3968  1.0504 -0.1174
  159SAPE    HS17758   5.209   0.772   6.907  1.5824  1.0734 -1.3073
  159SAPE   O2117759   5.002   0.743   6.865  0.1631 -0.0563 -0.1723
  159SAPE   C2117760   5.013   0.613   6.889 -0.6516  0.1453  0.2378
  159SAPE   O2217761   5.121   0.551   6.886 -0.1357 -0.5558  0.2169
  159SAPE   C2217762   4.876   0.554   6.923 -0.1563  0.0965 -0.0899
  159SAPE   H2R17763   4.819   0.639   6.967 -1.4929 -1.0387  0.4301
  159SAPE   H2S17764   4.824   0.527   6.828 -0.8889  2.1412 -0.3382
  159SAPE    C317765   5.129   0.953   6.852 -0.4143  0.2519  0.4548
  159SAPE    HX17766   5.062   1.006   6.781 -1.3710 -0.3112  0.9210
  159SAPE    HY17767   5.235   0.981   6.831 -0.5431  0.2583 -0.2250
  159SAPE   O3117768   5.111   0.997   6.987 -0.4688 -0.0993  0.2934
  159SAPE   C3117769   4.988   1.021   7.030 -0.1374 -0.9786 -0.0724
  159SAPE   O3217770   4.885   1.037   6.963  0.0401 -0.0569  0.2208
  159SAPE   C3217771   4.997   1.061   7.178 -0.4143 -0.6690 -0.2753
  159SAPE   H2X17772   5.023   1.169   7.182 -0.8390 -0.4433 -2.4247
  159SAPE   H2Y17773   5.073   1.002   7.234  0.3892  2.0335  1.6808
  159SAPE   C2317774   4.876   0.425   7.005  1.0300 -0.9874 -0.7007
  159SAPE   H3R17775   4.897   0.337   6.940 -0.9704 -0.9070 -1.5116
  159SAPE   H3S17776   4.772   0.400   7.035  0.0998 -0.2491 -3.0910
  159SAPE   C2417777   4.964   0.427   7.139  0.4168 -0.5117 -0.1448
  159SAPE   H4R17778   5.067   0.434   7.098 -0.1484 -0.3025 -1.6014
  159SAPE   H4S17779   4.951   0.324   7.181  0.4817 -0.5056 -0.1101
  159SAPE   C2517780   4.918   0.540   7.230  0.0471  0.4668  0.5417
  159SAPE   H5R17781   4.812   0.539   7.257  0.3051  1.6481  1.7140
  159SAPE   C2617782   5.008   0.624   7.278 -0.5022 -0.0151  0.7271
  159SAPE   H6R17783   4.969   0.707   7.339  1.2521  1.2149  0.2726
  159SAPE   C2717784   5.158   0.633   7.262  0.4103  0.2357  0.4518
  159SAPE   H7R17785   5.179   0.622   7.154  0.2255  2.9706  0.0619
  159SAPE   H7S17786   5.202   0.545   7.314  1.8763  2.1335  2.6640
  159SAPE   C2817787   5.220   0.761   7.301 -0.9338 -0.0828  0.4176
  159SAPE   H8R17788   5.233   0.830   7.217 -1.3737  1.1681  1.3377
  159SAPE   C2917789   5.259   0.805   7.424 -0.1114  0.3816 -0.0098
  159SAPE   H9R17790   5.304   0.906   7.431 -0.4378  0.6092 -0.9526
  159SAPE  C21017791   5.245   0.731   7.556  0.3254 -0.4074 -0.4036
  159SAPE  H10R17792   5.343   0.698   7.597  0.4309 -1.4513 -1.4520
  159SAPE  H10S17793   5.190   0.638   7.530 -0.4439 -0.1439  0.2495
  159SAPE  C21117794   5.174   0.808   7.668  0.8475  0.1010  0.4044
  159SAPE  H11R17795   5.091   0.876   7.645  1.3288  1.1351  1.5934
  159SAPE  C21217796   5.206   0.812   7.799 -0.1454  0.6000  0.0732
  159SAPE  H12R17797   5.144   0.881   7.856 -1.6106 -0.8980  0.3552
  159SAPE  C21317798   5.316   0.738   7.870  0.4146 -0.8581 -0.5507
  159SAPE  H13R17799   5.379   0.682   7.798 -1.1500 -0.4932 -2.2810
  159SAPE  H13S17800   5.284   0.645   7.923  0.7777  0.2464  1.7434
  159SAPE  C21417801   5.409   0.821   7.963 -0.0296  0.9158  0.2062
  159SAPE  H14R17802   5.502   0.859   7.917  0.3892 -2.2950 -1.9548
  159SAPE  C21517803   5.398   0.817   8.098  0.3241 -0.0885  0.7193
  159SAPE  H15R17804   5.482   0.863   8.153  1.5321 -0.8221 -0.4446
  159SAPE  C21617805   5.297   0.749   8.179  0.0402 -0.1843 -0.4348
  159SAPE  H16R17806   5.202   0.733   8.122 -1.4672 -1.3347  2.2352
  159SAPE  H16S17807   5.258   0.830   8.244 -0.5579 -0.4016 -0.5172
  159SAPE  C21717808   5.340   0.626   8.262  0.5538  0.5303  0.0220
  159SAPE  H17R17809   5.415   0.558   8.216  0.0541 -0.9841  1.3404
  159SAPE  H17S17810   5.257   0.556   8.287 -0.9978  2.0719 -0.5498
  159SAPE  C21817811   5.391   0.666   8.401 -0.3852  0.0342 -0.2517
  159SAPE  H18R17812   5.302   0.715   8.446 -0.1093  1.9559 -1.6773
  159SAPE  H18S17813   5.470   0.744   8.397 -1.3949  1.0447 -3.1697
  159SAPE  C21917814   5.432   0.554   8.494 -0.3371  0.4491 -0.1340
  159SAPE  H19R17815   5.509   0.488   8.448 -0.5931 -0.3562  0.5684
  159SAPE  H19S17816   5.345   0.486   8.504  0.6494 -0.6461  1.6268
  159SAPE  C22017817   5.474   0.597   8.636 -0.0415 -0.6036 -0.2909
  159SAPE  H20R17818   5.514   0.505   8.682  0.8269 -1.1157 -1.9915
  159SAPE  H20S17819   5.383   0.628   8.691  0.4500 -0.9409  0.7446
  159SAPE  H20T17820   5.555   0.674   8.640 -1.6675  1.1655 -0.1634
  159SAPE   C3317821   4.865   1.051   7.254  0.0232 -0.1694 -1.3013
  159SAPE   H3X17822   4.803   0.963   7.226 -0.7510  0.3858 -1.3758
  159SAPE   H3Y17823   4.808   1.144   7.237 -1.9971 -0.7443  1.5126
  159SAPE   C3417824   4.902   1.048   7.404  0.4729  0.2851  0.1949
  159SAPE   H4X17825   4.898   1.152   7.442  1.9387  0.4405 -0.0493
  159SAPE   H4Y17826   5.004   1.009   7.423  1.1713  0.4612 -2.7530
  159SAPE   C3517827   4.796   0.965   7.482 -0.5363 -0.4644  0.4129
  159SAPE   H5X17828   4.789   0.880   7.411  0.5648  1.0340 -1.6139
  159SAPE   H5Y17829   4.705   1.028   7.489 -0.0252  0.2376  0.8340
  159SAPE   C3617830   4.824   0.916   7.627  0.6419  0.3005 -0.1708
  159SAPE   H6X17831   4.903   0.838   7.628 -0.4580 -0.8914  1.8821
  159SAPE   H6Y17832   4.737   0.862   7.671  0.2279  0.9730 -0.1526
  159SAPE   C3717833   4.853   1.035   7.719  0.4339  0.6521  0.1284
  159SAPE   H7X17834   4.756   1.089   7.719 -0.7076 -1.1733  2.9651
  159SAPE   H7Y17835   4.941   1.089   7.677  1.3496  0.1749  1.3706
  159SAPE   C3817836   4.879   1.005   7.869  0.6321  0.2384  0.1332
  159SAPE   H8X17837   4.937   0.911   7.876  1.4452  0.6443 -0.9907
  159SAPE   H8Y17838   4.781   0.996   7.922  0.6540  3.1537  0.8816
  159SAPE   C3917839   4.948   1.118   7.941 -0.9192  0.3054  0.0440
  159SAPE   H9X17840   4.921   1.205   7.876 -2.6810  0.0553  0.3904
  159SAPE   H9Y17841   5.058   1.101   7.945 -0.5769  1.9126 -1.1807
  159SAPE  C31017842   4.893   1.139   8.082 -0.4557 -0.3187 -0.5633
  159SAPE  H10X17843   4.798   1.196   8.088  0.7661  1.7595  0.4473
  159SAPE  H10Y17844   4.964   1.207   8.134 -0.1920 -1.4996  0.6773
  159SAPE  C31117845   4.884   1.014   8.171 -0.2457 -0.0769 -0.6804
  159SAPE  H11X17846   4.982   0.963   8.176 -0.2496 -0.3689 -2.7263
  159SAPE  H11Y17847   4.810   0.940   8.134 -2.1787  0.9982  0.8362
  159SAPE  C31217848   4.825   1.031   8.318  1.1574  0.4617 -0.8496
  159SAPE  H12X17849   4.843   0.939   8.377  0.9226  1.7011  1.2388
  159SAPE  H12Y17850   4.715   1.040   8.308  0.5923 -2.0501  1.7752
  159SAPE  C31317851   4.863   1.155   8.395  0.2894 -0.5918 -0.3381
  159SAPE  H13X17852   4.828   1.250   8.349  1.1295  0.4080  0.9937
  159SAPE  H13Y17853   4.968   1.178   8.366 -0.1050  3.2887  0.7668
  159SAPE  C31417854   4.847   1.152   8.548 -0.5014 -0.3768  0.2922
  159SAPE  H14X17855   4.872   1.256   8.580 -0.3092 -0.5201  0.6076
  159SAPE  H14Y17856   4.927   1.098   8.602 -0.5979  0.4602  1.3098
  159SAPE  C31517857   4.718   1.088   8.602 -0.4263 -0.1763 -0.1075
  159SAPE  H15X17858   4.722   1.086   8.713  0.3573  3.2312  0.0493
  159SAPE  H15Y17859   4.710   0.984   8.565 -0.2376 -0.3213  0.2589
  159SAPE  C31617860   4.593   1.148   8.547 -0.4492 -1.2192 -0.0379
  159SAPE  H16X17861   4.571   1.113   8.444  1.6469  0.6836 -1.2252
  159SAPE  H16Y17862   4.624   1.255   8.548 -1.5076 -0.8833 -1.0670
  159SAPE  C31717863   4.461   1.138   8.627  0.0762 -1.1229 -0.0032
  159SAPE  H17X17864   4.379   1.186   8.569 -0.0423 -1.3696 -0.0397
  159SAPE  H17Y17865   4.473   1.195   8.722  0.4031 -1.2312  0.0210
  159SAPE  C31817866   4.418   0.996   8.664  0.5695  0.3533  0.2926
  159SAPE  H18X17867   4.321   0.993   8.718 -0.2535  0.3665 -1.1376
  159SAPE  H18Y17868   4.490   0.948   8.734 -1.0806 -0.0547  1.7946
  159SAPE  H18Z17869   4.391   0.927   8.581  2.1301 -0.2156  0.2340
  160SAPE     N17870   4.927   1.211   6.583  0.2787 -0.5485 -0.2027
  160SAPE   HN117871   4.885   1.302   6.554  2.2265  1.3219  2.3079
  160SAPE   HN217872   4.852   1.146   6.616  1.2119 -1.1216  0.8845
  160SAPE   HN317873   4.988   1.224   6.667 -1.5145  0.1968  1.0625
  160SAPE   C1217874   5.018   1.162   6.471 -0.0112  0.4250  0.0975
  160SAPE  H12A17875   4.961   1.176   6.377 -2.1913  0.1401  1.2969
  160SAPE  H12B17876   5.028   1.056   6.502 -3.7000 -0.2435 -0.5203
  160SAPE   C1117877   5.154   1.237   6.467 -0.0831  0.7356  0.5050
  160SAPE  H11A17878   5.217   1.191   6.389 -1.2244 -0.2632  0.1447
  160SAPE  H11B17879   5.204   1.230   6.566  1.3762  1.4059 -0.1474
  160SAPE     P17880   5.257   1.484   6.421 -0.1876  0.0188  0.0613
  160SAPE   O1317881   5.396   1.422   6.429  0.1472  0.4133 -0.3474
  160SAPE   O1417882   5.232   1.557   6.297  0.4382  0.0927 -0.2362
  160SAPE   O1217883   5.138   1.374   6.439  0.1387 -0.4726  0.4859
  160SAPE   O1117884   5.243   1.585   6.541 -0.1143  0.6193 -0.3302
  160SAPE    C117885   5.194   1.523   6.665 -1.3717 -0.1627  0.0111
  160SAPE    HA17886   5.092   1.481   6.650 -1.2212 -0.8585  0.8469
  160SAPE    HB17887   5.257   1.436   6.693 -0.2238  0.1655 -1.4086
  160SAPE    C217888   5.204   1.628   6.779 -0.2594  0.1075  0.0536
  160SAPE    HS17889   5.160   1.583   6.870  1.5466 -0.8004  0.5229
  160SAPE   O2117890   5.129   1.744   6.734  0.0625 -0.1513 -0.1255
  160SAPE   C2117891   5.092   1.829   6.829 -0.8496  0.5136 -0.3542
  160SAPE   O2217892   5.092   1.807   6.946 -0.1759  0.1754 -0.1342
  160SAPE   C2217893   5.048   1.958   6.753  0.1540 -0.0481 -0.0468
  160SAPE   H2R17894   5.124   2.033   6.787  0.1670  0.4302 -1.0926
  160SAPE   H2S17895   5.062   1.931   6.646 -1.9016 -0.0397 -0.3464
  160SAPE    C317896   5.350   1.673   6.812  0.1389  0.1812  0.2986
  160SAPE    HX17897   5.390   1.738   6.731 -0.7768  0.4751  0.0719
  160SAPE    HY17898   5.416   1.584   6.805 -1.8897 -1.3365 -0.8540
  160SAPE   O3117899   5.361   1.753   6.931 -0.3535 -0.4820  0.1643
  160SAPE   C3117900   5.363   1.689   7.043  0.7893 -0.5171 -0.9697
  160SAPE   O3217901   5.353   1.567   7.056 -0.1456  0.1784  0.2795
  160SAPE   C3217902   5.373   1.783   7.164  0.0964  0.0175 -0.5748
  160SAPE   H2X17903   5.273   1.830   7.177  0.0115  0.0224 -1.2299
  160SAPE   H2Y17904   5.469   1.837   7.151  0.1958 -0.4114 -1.7670
  160SAPE   C2317905   4.901   1.998   6.787 -0.2474  0.4316 -1.0275
  160SAPE   H3R17906   4.835   1.909   6.788 -2.9110  2.2916  1.0208
  160SAPE   H3S17907   4.866   2.064   6.705 -1.9236  0.7054 -0.1227
  160SAPE   C2417908   4.908   2.069   6.918 -0.1848 -0.0735 -1.0288
  160SAPE   H4R17909   4.967   2.161   6.899  1.1637 -0.3397  1.5351
  160SAPE   H4S17910   4.961   1.994   6.981 -1.4367 -0.9728 -0.9929
  160SAPE   C2517911   4.771   2.094   6.966  0.1532  0.4894 -0.3990
  160SAPE   H5R17912   4.706   2.136   6.888  2.3724  1.9913 -1.5621
  160SAPE   C2617913   4.717   2.062   7.081  0.0649 -0.9355 -0.4956
  160SAPE   H6R17914   4.612   2.091   7.094  0.2976 -0.0701 -0.4926
  160SAPE   C2717915   4.784   1.997   7.198 -0.6378  0.1780 -0.0399
  160SAPE   H7R17916   4.894   2.006   7.191 -0.5398 -0.9052 -0.0938
  160SAPE   H7S17917   4.768   1.887   7.193 -0.8913 -0.0234  3.2919
  160SAPE   C2817918   4.738   2.071   7.320 -0.4431 -0.7306  0.2945
  160SAPE   H8R17919   4.781   2.172   7.331  1.4784 -1.4211 -0.5703
  160SAPE   C2917920   4.660   2.023   7.418 -0.5631 -0.2533  0.2196
  160SAPE   H9R17921   4.634   2.094   7.498 -1.3436 -0.1895 -0.0785
  160SAPE  C21017922   4.593   1.887   7.425  0.8395 -0.1466  0.2263
  160SAPE  H10R17923   4.642   1.809   7.486 -0.2741  1.7459  3.8600
  160SAPE  H10S17924   4.590   1.845   7.322  1.6258  1.3579 -0.4412
  160SAPE  C21117925   4.456   1.906   7.483  0.1684 -0.1663  0.2486
  160SAPE  H11R17926   4.374   1.938   7.417 -1.0064  0.9359  2.1498
  160SAPE  C21217927   4.433   1.905   7.616  0.0670  0.4335  0.1551
  160SAPE  H12R17928   4.326   1.909   7.638 -0.2535  0.3762 -1.2732
  160SAPE  C21317929   4.523   1.885   7.731  0.7625  0.3455 -1.1844
  160SAPE  H13R17930   4.568   1.783   7.730  2.5036  1.0549  0.2360
  160SAPE  H13S17931   4.463   1.881   7.824  1.2829  5.6831 -0.3466
  160SAPE  C21417932   4.636   1.983   7.740  0.2546  0.3054  0.3402
  160SAPE  H14R17933   4.709   1.954   7.663 -0.3623  1.0188 -0.5467
  160SAPE  C21517934   4.675   2.077   7.829  0.4371 -0.3704  0.0223
  160SAPE  H15R17935   4.766   2.135   7.806  0.2940  1.1563  2.8757
  160SAPE  C21617936   4.608   2.119   7.960 -0.6420  0.1268  0.8690
  160SAPE  H16R17937   4.504   2.083   7.977  0.2530 -2.4109  1.3603
  160SAPE  H16S17938   4.593   2.229   7.965 -0.5728  0.1146  1.4703
  160SAPE  C21717939   4.694   2.059   8.078 -0.0370  0.3887  0.2371
  160SAPE  H17R17940   4.804   2.069   8.066  1.1275 -2.7539  5.1240
  160SAPE  H17S17941   4.669   1.951   8.076  0.9476  0.1313  0.9868
  160SAPE  C21817942   4.680   2.126   8.212  0.0847  0.4067 -0.4487
  160SAPE  H18R17943   4.715   2.228   8.185 -0.8979 -0.0423 -4.0484
  160SAPE  H18S17944   4.754   2.085   8.283 -0.5237 -2.1887 -1.2114
  160SAPE  C21917945   4.533   2.128   8.274 -0.1914 -0.2223 -0.2387
  160SAPE  H19R17946   4.488   2.027   8.265 -2.2575  0.5822  0.2682
  160SAPE  H19S17947   4.471   2.190   8.206  2.2731 -0.1202 -2.5768
  160SAPE  C22017948   4.530   2.197   8.413  0.6599  0.3833  0.1758
  160SAPE  H20R17949   4.528   2.307   8.406  0.5705  0.4278  0.8250
  160SAPE  H20S17950   4.620   2.162   8.468  0.7497  0.4068  0.0439
  160SAPE  H20T17951   4.433   2.155   8.448  1.5628  0.3928  2.9715
  160SAPE   C3317952   5.396   1.701   7.295  0.0078 -0.0389  0.0914
  160SAPE   H3X17953   5.492   1.649   7.276  0.2141  0.2031  0.4507
  160SAPE   H3Y17954   5.318   1.624   7.314  0.3669 -0.1905  1.0077
  160SAPE   C3417955   5.412   1.794   7.415  0.0957  0.0732 -0.1607
  160SAPE   H4X17956   5.319   1.850   7.439  0.3459  0.5099 -0.2017
  160SAPE   H4Y17957   5.498   1.860   7.391 -0.2888  0.2559 -1.0883
  160SAPE   C3517958   5.451   1.726   7.555 -0.8773 -0.3682  1.0077
  160SAPE   H5X17959   5.558   1.698   7.555 -1.0667 -1.2883 -1.4171
  160SAPE   H5Y17960   5.396   1.630   7.549  0.1732 -0.8928 -1.0847
  160SAPE   C3617961   5.398   1.813   7.672 -0.0930  0.2446  0.4973
  160SAPE   H6X17962   5.292   1.783   7.682  0.1557 -0.0992  2.4476
  160SAPE   H6Y17963   5.408   1.918   7.638  1.2758 -0.6402 -2.1259
  160SAPE   C3717964   5.464   1.773   7.804  0.1495  0.4775  0.2919
  160SAPE   H7X17965   5.572   1.793   7.788  0.5404 -0.7260  1.3513
  160SAPE   H7Y17966   5.437   1.675   7.849 -1.1779  2.1216  3.4176
  160SAPE   C3817967   5.414   1.876   7.907 -0.1202 -0.3129 -0.5866
  160SAPE   H8X17968   5.303   1.876   7.914 -0.0472  1.2934  1.2286
  160SAPE   H8Y17969   5.454   1.977   7.885  0.7775 -0.8919 -1.7342
  160SAPE   C3917970   5.458   1.821   8.043  0.2190  0.2556  0.0561
  160SAPE   H9X17971   5.568   1.805   8.045  0.0524 -1.2499 -1.2883
  160SAPE   H9Y17972   5.417   1.719   8.054 -0.5965  0.7634  2.3529
  160SAPE  C31017973   5.408   1.893   8.166 -0.4095 -0.5426 -0.0629
  160SAPE  H10X17974   5.299   1.894   8.145 -0.7638  0.2742  1.6410
  160SAPE  H10Y17975   5.428   2.002   8.175  0.1445 -0.7590  1.6126
  160SAPE  C31117976   5.431   1.829   8.299  0.1885 -0.6556  0.1690
  160SAPE  H11X17977   5.410   1.723   8.274 -0.0713 -0.6728  0.4562
  160SAPE  H11Y17978   5.368   1.875   8.378  1.9194  1.9173  0.1879
  160SAPE  C31217979   5.576   1.834   8.338 -0.1870  0.1792 -0.5512
  160SAPE  H12X17980   5.636   1.783   8.259 -0.9378 -1.3104 -0.2033
  160SAPE  H12Y17981   5.600   1.794   8.439  0.1628  1.3481 -0.1541
  160SAPE  C31317982   5.642   1.978   8.340  0.6283  0.0995 -0.4033
  160SAPE  H13X17983   5.574   2.062   8.368  0.9454 -0.2059  1.3856
  160SAPE  H13Y17984   5.667   1.998   8.234  2.8427 -3.0337 -0.6218
  160SAPE  C31417985   5.780   1.973   8.411 -0.0467  0.3411 -0.4208
  160SAPE  H14X17986   5.777   1.895   8.490  1.9584  0.6978  0.0584
  160SAPE  H14Y17987   5.794   2.076   8.451 -1.3419  0.5514 -0.4833
  160SAPE  C31517988   5.892   1.919   8.320 -0.9501 -0.4278  0.1165
  160SAPE  H15X17989   5.897   1.980   8.228  2.5477  1.2039  1.2037
  160SAPE  H15Y17990   5.873   1.811   8.302  0.3995 -0.3661 -1.9323
  160SAPE  C31617991   6.033   1.932   8.382 -1.1785 -0.0218  0.5983
  160SAPE  H16X17992   6.034   1.880   8.480  0.3962 -3.4656 -1.0633
  160SAPE  H16Y17993   6.055   2.040   8.389  1.7547 -0.3949 -1.3005
  160SAPE  C31717994   6.161   1.884   8.299  0.3358 -0.1531  0.0461
  160SAPE  H17X17995   6.158   1.774   8.316 -1.8415  0.0734  1.4684
  160SAPE  H17Y17996   6.256   1.925   8.340 -0.1290  1.3716 -0.3427
  160SAPE  C31817997   6.152   1.914   8.148  0.0037  0.2358  0.2470
  160SAPE  H18X17998   6.065   1.868   8.098 -0.3340  2.6276 -1.5366
  160SAPE  H18Y17999   6.248   1.884   8.102 -0.3020 -1.2429  0.5283
  160SAPE  H18Z18000   6.138   2.024   8.136 -0.3047  0.8618  4.4967
  161SAPE     N18001   0.518   5.741   6.562 -0.7412  0.2261  0.6563
  161SAPE   HN118002   0.507   5.814   6.489 -1.5152  1.3546  1.8635
  161SAPE   HN218003   0.620   5.723   6.570 -1.0408 -1.8886  0.2957
  161SAPE   HN318004   0.475   5.652   6.528 -1.0240  0.4047  0.5430
  161SAPE   C1218005   0.446   5.808   6.675  0.5373  0.8066 -0.1630
  161SAPE  H12A18006   0.483   5.913   6.683 -0.1800  1.0667 -0.1083
  161SAPE  H12B18007   0.466   5.746   6.765 -2.3674 -2.6319 -1.6395
  161SAPE   C1118008   0.291   5.783   6.652 -0.7422 -0.1343 -0.5562
  161SAPE  H11A18009   0.236   5.834   6.734 -2.8285  0.1192 -2.0619
  161SAPE  H11B18010   0.282   5.672   6.662  2.2677 -0.3244  1.8120
  161SAPE     P18011   0.103   5.804   6.470  0.3458  0.3111 -0.1434
  161SAPE   O1318012   0.008   5.872   6.564 -0.2092 -0.1828 -0.1224
  161SAPE   O1418013   0.094   5.834   6.330 -0.0084 -0.2006 -0.4327
  161SAPE   O1218014   0.253   5.827   6.520  0.1044 -0.3641  0.6829
  161SAPE   O1118015   0.083   5.647   6.491 -0.1403 -0.2562 -0.4902
  161SAPE    C118016  -0.041   5.583   6.532 -0.3667 -0.0603  0.6637
  161SAPE    HA18017  -0.122   5.659   6.524 -0.8890 -0.8213 -3.6920
  161SAPE    HB18018  -0.078   5.515   6.452 -0.8456  0.6427  0.2776
  161SAPE    C218019  -0.019   5.497   6.659 -0.0392  0.1112 -0.7925
  161SAPE    HS18020  -0.109   5.435   6.677  0.7495 -0.5972  0.8506
  161SAPE   O2118021   0.007   5.576   6.776  0.0481 -0.1820 -0.1288
  161SAPE   C2118022  -0.094   5.652   6.808 -0.2559  0.0687 -0.2978
  161SAPE   O2218023  -0.198   5.663   6.748  0.4833  0.4026 -0.4303
  161SAPE   C2218024  -0.055   5.727   6.933  0.3342 -0.0458  0.0653
  161SAPE   H2R18025  -0.052   5.648   7.012  3.2945 -0.8684 -0.7583
  161SAPE   H2S18026   0.052   5.756   6.925  0.8965 -1.8561  0.4257
  161SAPE    C318027   0.094   5.396   6.639 -0.3666  0.2542 -0.1427
  161SAPE    HX18028   0.184   5.457   6.618 -0.1208 -0.4890 -1.3317
  161SAPE    HY18029   0.094   5.341   6.543  1.1138  0.1392 -0.0945
  161SAPE   O3118030   0.114   5.313   6.761 -0.3816  0.2939  0.1698
  161SAPE   C3118031   0.025   5.220   6.780 -0.7140 -0.3825 -0.2501
  161SAPE   O3218032  -0.074   5.207   6.706  0.0521 -0.6586  0.0142
  161SAPE   C3218033   0.065   5.130   6.889 -0.2481  0.0997  1.0502
  161SAPE   H2X18034   0.123   5.051   6.838 -1.4384  1.2047 -2.3139
  161SAPE   H2Y18035  -0.026   5.083   6.932 -0.1388 -0.0206  1.1501
  161SAPE   C2318036  -0.146   5.847   6.958 -0.0171  0.7909 -0.1380
  161SAPE   H3R18037  -0.250   5.811   6.973  0.7364 -2.0274 -1.0395
  161SAPE   H3S18038  -0.133   5.909   6.867  1.4638  1.7029  0.6403
  161SAPE   C2418039  -0.089   5.933   7.066  0.7156  0.0215 -0.4575
  161SAPE   H4R18040  -0.014   6.006   7.028  1.7380 -0.0422  1.3332
  161SAPE   H4S18041  -0.037   5.872   7.143  1.4278 -0.4857 -1.3161
  161SAPE   C2518042  -0.192   6.016   7.133 -0.0142  0.7829 -0.6043
  161SAPE   H5R18043  -0.258   6.062   7.058  0.5892 -0.5603 -2.0081
  161SAPE   C2618044  -0.205   6.049   7.264 -0.2050 -0.1851 -0.3009
  161SAPE   H6R18045  -0.296   6.098   7.302 -0.4248  0.6028 -1.7787
  161SAPE   C2718046  -0.110   5.998   7.374 -0.4674  0.0863  0.3065
  161SAPE   H7R18047  -0.004   5.989   7.339  0.3531  3.4714  1.4870
  161SAPE   H7S18048  -0.144   5.901   7.416 -1.2099  0.3126  0.2398
  161SAPE   C2818049  -0.112   6.098   7.483  0.2407  0.4949 -0.3364
  161SAPE   H8R18050  -0.027   6.168   7.474  1.2016 -0.3229  1.7864
  161SAPE   C2918051  -0.199   6.115   7.584 -0.1259  0.1096  0.4866
  161SAPE   H9R18052  -0.180   6.194   7.658 -3.3980  0.4258  1.1720
  161SAPE  C21018053  -0.323   6.032   7.608 -0.3750 -0.4114 -0.2924
  161SAPE  H10R18054  -0.350   5.968   7.521  0.9217 -0.2947 -0.8046
  161SAPE  H10S18055  -0.408   6.103   7.614 -1.8727 -2.0320 -1.3965
  161SAPE  C21118056  -0.309   5.933   7.727 -0.7842  0.1873  1.0987
  161SAPE  H11R18057  -0.283   5.828   7.705 -2.9230 -1.1306  4.1100
  161SAPE  C21218058  -0.327   5.947   7.861  0.4554 -0.4654 -0.0256
  161SAPE  H12R18059  -0.319   5.861   7.929  3.3754  1.8137  2.7978
  161SAPE  C21318060  -0.359   6.078   7.928  0.3860  0.1744 -0.6136
  161SAPE  H13R18061  -0.304   6.166   7.888  4.6814 -1.1741  1.6658
  161SAPE  H13S18062  -0.314   6.073   8.029  0.6840  0.8208 -0.7082
  161SAPE  C21418063  -0.512   6.098   7.933  0.5507  0.5758  0.3847
  161SAPE  H14R18064  -0.564   6.041   7.855 -0.2425  0.2287  1.1538
  161SAPE  C21518065  -0.570   6.187   8.014 -0.0365  0.2740  0.2931
  161SAPE  H15R18066  -0.679   6.183   8.026  0.1405 -2.9700  1.7615
  161SAPE  C21618067  -0.502   6.277   8.114 -0.2333  0.2537 -0.2081
  161SAPE  H16R18068  -0.536   6.383   8.104  1.8779  0.9993 -0.0362
  161SAPE  H16S18069  -0.394   6.276   8.090 -0.0204 -0.9376  0.7056
  161SAPE  C21718070  -0.521   6.227   8.253 -0.4849 -0.0766 -0.3195
  161SAPE  H17R18071  -0.496   6.118   8.259  4.9795  0.9692  1.2025
  161SAPE  H17S18072  -0.624   6.244   8.290  0.2529 -1.0191  2.4781
  161SAPE  C21818073  -0.431   6.300   8.361 -0.0204  0.1523 -0.0315
  161SAPE  H18R18074  -0.475   6.402   8.365  1.4335  0.7604  1.5571
  161SAPE  H18S18075  -0.334   6.302   8.308 -0.1119  1.7501 -0.1922
  161SAPE  C21918076  -0.457   6.241   8.500 -0.4958 -0.9988  0.1265
  161SAPE  H19R18077  -0.447   6.131   8.482 -2.3106 -1.0607 -0.7919
  161SAPE  H19S18078  -0.562   6.258   8.530 -0.7605 -1.9590 -0.2200
  161SAPE  C22018079  -0.360   6.292   8.614  0.3507 -0.3062  0.1080
  161SAPE  H20R18080  -0.257   6.263   8.588  0.4106 -0.5965  0.6468
  161SAPE  H20S18081  -0.391   6.246   8.711  1.2167  1.8967  1.5109
  161SAPE  H20T18082  -0.372   6.401   8.631 -1.2865 -0.8079  2.8734
  161SAPE   C3318083   0.144   5.197   7.004  0.3732 -1.0029 -0.0081
  161SAPE   H3X18084   0.076   5.252   7.073  1.5463 -2.1893  2.2138
  161SAPE   H3Y18085   0.214   5.276   6.967 -1.9758  0.1441 -2.3316
  161SAPE   C3418086   0.215   5.105   7.102  0.3175  0.4964  0.1505
  161SAPE   H4X18087   0.296   5.049   7.051  0.2393  1.5542 -1.1872
  161SAPE   H4Y18088   0.139   5.033   7.139  0.7251  0.1944  0.4055
  161SAPE   C3518089   0.267   5.186   7.221  1.0768  0.4165 -0.1147
  161SAPE   H5X18090   0.180   5.247   7.253  1.3465  0.6551  0.1585
  161SAPE   H5Y18091   0.353   5.246   7.187  3.7179 -0.6832  3.9289
  161SAPE   C3618092   0.315   5.120   7.347 -0.6562  0.1547 -0.0746
  161SAPE   H6X18093   0.406   5.066   7.314 -0.9804 -1.4250  1.5019
  161SAPE   H6Y18094   0.245   5.041   7.379 -0.6976  0.9968  2.1005
  161SAPE   C3718095   0.347   5.215   7.465  0.2900  0.1706  0.6866
  161SAPE   H7X18096   0.259   5.283   7.474 -0.7813 -0.6969 -2.1976
  161SAPE   H7Y18097   0.433   5.271   7.424 -0.5128 -0.7599 -2.6189
  161SAPE   C3818098   0.381   5.150   7.593  0.7250 -0.1490  0.1680
  161SAPE   H8X18099   0.460   5.202   7.652 -0.5348  0.9596  0.9269
  161SAPE   H8Y18100   0.423   5.049   7.573  0.8432 -0.3364  1.2628
  161SAPE   C3918101   0.258   5.126   7.679 -0.1338  0.3150 -0.8756
  161SAPE   H9X18102   0.277   5.060   7.766  0.7038  0.8120 -0.6753
  161SAPE   H9Y18103   0.174   5.087   7.617 -0.5148 -0.2198 -0.0414
  161SAPE  C31018104   0.217   5.254   7.755 -0.4237 -0.6367  0.1082
  161SAPE  H10X18105   0.186   5.340   7.692  0.0804 -0.5165  0.0163
  161SAPE  H10Y18106   0.309   5.288   7.807 -0.0892 -2.2957  0.6714
  161SAPE  C31118107   0.109   5.234   7.861 -0.3477  0.4684  1.1693
  161SAPE  H11X18108   0.144   5.154   7.930 -2.1360 -2.7899 -1.4458
  161SAPE  H11Y18109   0.012   5.199   7.820 -0.1851 -0.8964  1.9079
  161SAPE  C31218110   0.081   5.361   7.947 -0.3955 -0.6545 -0.0964
  161SAPE  H12X18111   0.035   5.438   7.883 -2.0580  0.7499  2.6201
  161SAPE  H12Y18112   0.177   5.398   7.991 -0.1959 -0.1501 -0.9406
  161SAPE  C31318113  -0.038   5.332   8.046 -0.6544 -0.8267 -0.3438
  161SAPE  H13X18114  -0.016   5.263   8.130  1.3117  2.6967  2.3051
  161SAPE  H13Y18115  -0.124   5.290   7.990  0.4042 -1.0468 -1.8614
  161SAPE  C31418116  -0.100   5.468   8.099 -0.2862  0.4960  0.5186
  161SAPE  H14X18117  -0.166   5.513   8.022 -0.3680 -0.0016  0.2982
  161SAPE  H14Y18118  -0.023   5.545   8.120  0.3531  0.3317 -1.1212
  161SAPE  C31518119  -0.183   5.446   8.226  0.1863 -0.2383  0.4044
  161SAPE  H15X18120  -0.113   5.396   8.296  0.3788 -1.5058 -0.6556
  161SAPE  H15Y18121  -0.255   5.365   8.200  1.2041 -1.2426  0.6514
  161SAPE  C31618122  -0.240   5.579   8.291 -0.0974 -0.1392 -0.0240
  161SAPE  H16X18123  -0.159   5.646   8.327  0.6151 -0.9336 -0.1219
  161SAPE  H16Y18124  -0.302   5.554   8.380  0.4206 -2.7412 -0.3301
  161SAPE  C31718125  -0.316   5.665   8.191 -0.4349  0.6550  0.0974
  161SAPE  H17X18126  -0.398   5.601   8.151  1.2147 -0.9945 -0.8017
  161SAPE  H17Y18127  -0.245   5.684   8.108  1.3541 -2.4389  0.7485
  161SAPE  C31818128  -0.376   5.799   8.241 -0.7217 -0.4074  0.2986
  161SAPE  H18X18129  -0.299   5.856   8.297  1.4464  0.7539 -3.5066
  161SAPE  H18Y18130  -0.471   5.788   8.298 -2.7792 -0.4675 -2.8654
  161SAPE  H18Z18131  -0.406   5.863   8.155  0.5441  0.8925  0.7867
  162SAPE     N18132   0.015   2.440   6.106  0.2733 -0.0004 -0.7708
  162SAPE   HN118133  -0.048   2.446   6.023 -0.7670  2.9325  0.0904
  162SAPE   HN218134   0.046   2.539   6.112  0.3180  0.0024 -1.0807
  162SAPE   HN318135   0.103   2.385   6.095  0.7646  0.2986  1.2605
  162SAPE   C1218136  -0.065   2.397   6.232 -0.0057 -1.0309 -0.0664
  162SAPE  H12A18137  -0.090   2.491   6.285  1.0161 -1.1446  0.6539
  162SAPE  H12B18138   0.000   2.328   6.290 -0.9879 -2.2730 -0.3812
  162SAPE   C1118139  -0.198   2.338   6.190 -0.2319  0.3455 -0.0030
  162SAPE  H11A18140  -0.262   2.331   6.280  0.9913 -0.7632  0.8260
  162SAPE  H11B18141  -0.177   2.237   6.148 -1.2374  0.8030 -1.6874
  162SAPE     P18142  -0.349   2.556   6.115 -0.0164 -0.2870  0.3153
  162SAPE   O1318143  -0.262   2.637   6.201 -0.2686  0.4759 -0.6543
  162SAPE   O1418144  -0.395   2.605   5.984 -0.0101 -0.0697  0.0656
  162SAPE   O1218145  -0.252   2.423   6.090  0.0854  0.1089 -0.0304
  162SAPE   O1118146  -0.474   2.506   6.195 -0.8358 -0.5086  0.6690
  162SAPE    C118147  -0.549   2.574   6.294  0.9689  0.4776 -0.4667
  162SAPE    HA18148  -0.507   2.672   6.324 -0.3363  1.1977 -0.9245
  162SAPE    HB18149  -0.653   2.589   6.258  1.0052 -1.8495 -1.7792
  162SAPE    C218150  -0.555   2.486   6.422 -0.1197  0.2262 -0.3064
  162SAPE    HS18151  -0.626   2.520   6.500  0.2867 -0.8011  0.5437
  162SAPE   O2118152  -0.425   2.491   6.483  0.1130 -0.0445 -0.0572
  162SAPE   C2118153  -0.401   2.614   6.536 -0.4428 -0.4482 -0.5269
  162SAPE   O2218154  -0.487   2.700   6.557 -1.0144  0.3905 -0.0296
  162SAPE   C2218155  -0.254   2.639   6.577  0.6457 -0.1647  0.0646
  162SAPE   H2R18156  -0.202   2.669   6.484  3.0267 -0.4227  1.2342
  162SAPE   H2S18157  -0.258   2.734   6.633  2.0992  1.2053 -2.0102
  162SAPE    C318158  -0.575   2.333   6.394 -0.4998 -0.7002  1.2129
  162SAPE    HX18159  -0.494   2.308   6.322  0.4193  0.7214  1.7202
  162SAPE    HY18160  -0.673   2.316   6.345  1.2209 -0.7550 -2.5632
  162SAPE   O3118161  -0.562   2.254   6.516 -0.3494  0.8928  0.0201
  162SAPE   C3118162  -0.676   2.254   6.579  0.2462 -0.1330  0.2378
  162SAPE   O3218163  -0.783   2.301   6.546  0.4783 -0.1628  0.0784
  162SAPE   C3218164  -0.661   2.194   6.713 -0.5854  0.6785 -0.4013
  162SAPE   H2X18165  -0.568   2.133   6.720  0.1638  1.6613 -1.3600
  162SAPE   H2Y18166  -0.746   2.126   6.737 -2.5571  3.4320  0.8373
  162SAPE   C2318167  -0.190   2.518   6.650  0.2411 -0.7719  0.3448
  162SAPE   H3R18168  -0.096   2.561   6.689  0.7191  0.1933 -1.7192
  162SAPE   H3S18169  -0.153   2.444   6.577 -0.8046 -2.5296  1.5194
  162SAPE   C2418170  -0.276   2.462   6.768 -0.9964 -0.2069 -0.1570
  162SAPE   H4R18171  -0.209   2.403   6.834 -0.0794 -0.4230 -1.2475
  162SAPE   H4S18172  -0.352   2.387   6.735 -1.2165  0.5510 -1.4271
  162SAPE   C2518173  -0.352   2.573   6.848 -0.3336 -0.1552  0.7569
  162SAPE   H5R18174  -0.458   2.583   6.817 -0.6693  0.2090  1.9617
  162SAPE   C2618175  -0.315   2.654   6.949 -0.1860  0.2245  0.5177
  162SAPE   H6R18176  -0.393   2.718   6.992 -0.4985 -0.2466  0.6554
  162SAPE   C2718177  -0.180   2.656   7.018 -0.0191  0.3281 -0.1544
  162SAPE   H7R18178  -0.132   2.556   7.025 -2.3535 -0.8244  0.2576
  162SAPE   H7S18179  -0.184   2.683   7.126 -0.5541  1.0577 -0.3435
  162SAPE   C2818180  -0.085   2.743   6.946  0.5690  0.1320  0.4803
  162SAPE   H8R18181  -0.094   2.755   6.837  0.6687  3.6494  0.7390
  162SAPE   C2918182   0.017   2.814   6.991 -0.1174  0.1362 -0.3764
  162SAPE   H9R18183   0.076   2.870   6.916 -0.6816  1.2495 -0.0038
  162SAPE  C21018184   0.068   2.838   7.135 -0.0851 -0.6371 -0.8060
  162SAPE  H10R18185  -0.023   2.829   7.198  2.2638 -3.2269  2.5357
  162SAPE  H10S18186   0.101   2.944   7.129  1.0478 -0.7894  1.7236
  162SAPE  C21118187   0.168   2.741   7.181 -0.5616 -0.7060 -0.8652
  162SAPE  H11R18188   0.207   2.674   7.103  0.8272  0.2018 -0.9976
  162SAPE  C21218189   0.208   2.726   7.311 -0.5379  0.0127  0.2767
  162SAPE  H12R18190   0.278   2.646   7.338 -0.7709 -0.1661  0.3600
  162SAPE  C21318191   0.144   2.816   7.423 -0.6962 -0.1495 -0.1227
  162SAPE  H13R18192   0.051   2.765   7.455  0.1965 -1.2639  0.7564
  162SAPE  H13S18193   0.118   2.917   7.384 -1.4297 -1.0016 -1.9936
  162SAPE  C21418194   0.235   2.842   7.539  0.2934  1.1902 -0.3986
  162SAPE  H14R18195   0.287   2.938   7.527 -0.7564  2.0337  1.3342
  162SAPE  C21518196   0.271   2.769   7.648 -0.0090 -0.2782 -0.2957
  162SAPE  H15R18197   0.354   2.813   7.706 -1.5269  2.2255  0.0868
  162SAPE  C21618198   0.216   2.638   7.695  0.1221  0.3994 -0.0600
  162SAPE  H16R18199   0.289   2.556   7.678 -1.1062 -0.7694  0.1482
  162SAPE  H16S18200   0.135   2.603   7.628  0.2564  0.3250 -0.1839
  162SAPE  C21718201   0.158   2.643   7.843 -0.4918  0.1740 -0.1102
  162SAPE  H17R18202   0.088   2.559   7.863  0.3525  0.1073  3.1624
  162SAPE  H17S18203   0.086   2.728   7.836 -0.8438 -0.2544 -2.0951
  162SAPE  C21818204   0.264   2.658   7.956 -0.0055  0.0862  0.0709
  162SAPE  H18R18205   0.312   2.758   7.957  2.6744 -1.1075  0.3806
  162SAPE  H18S18206   0.348   2.585   7.945  0.7588  0.8331  0.8286
  162SAPE  C21918207   0.209   2.639   8.099  0.5370  0.1824 -0.1042
  162SAPE  H19R18208   0.192   2.529   8.103  2.6196 -0.1703  0.3126
  162SAPE  H19S18209   0.111   2.691   8.111  0.3337 -0.5385  1.7358
  162SAPE  C22018210   0.299   2.676   8.219 -0.6056 -0.0294  0.2297
  162SAPE  H20R18211   0.234   2.671   8.309  0.2976  0.4179  0.9220
  162SAPE  H20S18212   0.346   2.776   8.204  0.8541 -0.6477  0.4564
  162SAPE  H20T18213   0.373   2.596   8.240  1.2523  1.3777 -0.6578
  162SAPE   C3318214  -0.656   2.301   6.818  0.2579 -0.7840  0.0011
  162SAPE   H3X18215  -0.761   2.336   6.830  0.0420 -1.0464 -0.9854
  162SAPE   H3Y18216  -0.598   2.386   6.778 -1.8894 -0.4775 -2.7272
  162SAPE   C3418217  -0.599   2.249   6.950  0.9845 -0.3251  0.0030
  162SAPE   H4X18218  -0.487   2.249   6.953  1.0441  2.8500  0.7841
  162SAPE   H4Y18219  -0.633   2.143   6.954  0.2630 -0.1007 -0.2408
  162SAPE   C3518220  -0.653   2.318   7.074  0.7614 -0.6218  0.2567
  162SAPE   H5X18221  -0.645   2.240   7.153 -2.1844 -2.9076 -1.4566
  162SAPE   H5Y18222  -0.761   2.342   7.057  0.8001 -0.6935 -0.0981
  162SAPE   C3618223  -0.575   2.443   7.115 -0.0041  0.2076 -0.8370
  162SAPE   H6X18224  -0.586   2.525   7.040  1.7214  1.1017 -0.1836
  162SAPE   H6Y18225  -0.465   2.428   7.107  0.1798  1.7208 -1.4200
  162SAPE   C3718226  -0.602   2.490   7.256  0.2556  0.0276  0.3744
  162SAPE   H7X18227  -0.594   2.408   7.330  2.0150  0.7247  1.0183
  162SAPE   H7Y18228  -0.705   2.530   7.268  0.8324  1.6458  0.2428
  162SAPE   C3818229  -0.497   2.597   7.295  0.8659  0.1675 -0.8777
  162SAPE   H8X18230  -0.527   2.692   7.247  2.0207  1.7388  1.3328
  162SAPE   H8Y18231  -0.401   2.557   7.256  1.7211 -0.5355  1.6766
  162SAPE   C3918232  -0.503   2.614   7.449 -0.4336  0.5721  0.3129
  162SAPE   H9X18233  -0.418   2.678   7.482  0.8352  0.4761 -2.5277
  162SAPE   H9Y18234  -0.484   2.513   7.491 -0.6570  0.0367 -0.8322
  162SAPE  C31018235  -0.627   2.679   7.504 -0.3961  0.2425 -0.0431
  162SAPE  H10X18236  -0.716   2.627   7.462  0.7378 -1.2141 -0.7706
  162SAPE  H10Y18237  -0.636   2.782   7.464  0.7621  0.1874 -0.4853
  162SAPE  C31118238  -0.621   2.682   7.657  0.1262  0.1763 -0.5624
  162SAPE  H11X18239  -0.536   2.748   7.685 -1.4266  1.6551  0.9780
  162SAPE  H11Y18240  -0.594   2.583   7.698 -3.6750 -1.8219 -2.4339
  162SAPE  C31218241  -0.746   2.732   7.733  0.4675  0.0296 -0.4752
  162SAPE  H12X18242  -0.838   2.681   7.697 -0.7529  1.5581  0.3417
  162SAPE  H12Y18243  -0.774   2.834   7.698 -0.7746 -0.9171 -2.4487
  162SAPE  C31318244  -0.727   2.712   7.891  0.0863 -0.6142 -0.2313
  162SAPE  H13X18245  -0.711   2.607   7.925 -0.0556 -0.9367 -1.1303
  162SAPE  H13Y18246  -0.817   2.737   7.952 -0.3665 -4.1385  0.7786
  162SAPE  C31418247  -0.606   2.792   7.940 -0.6211 -0.0056  0.1066
  162SAPE  H14X18248  -0.594   2.898   7.909  0.2242  0.6691  2.4790
  162SAPE  H14Y18249  -0.520   2.729   7.907 -0.5793  0.1819 -0.1432
  162SAPE  C31518250  -0.622   2.798   8.097  0.7470 -0.4050  0.3070
  162SAPE  H15X18251  -0.637   2.696   8.138  2.1283  0.3923  3.0652
  162SAPE  H15Y18252  -0.721   2.844   8.117  1.8009  2.5462 -0.7408
  162SAPE  C31618253  -0.497   2.853   8.159  0.9356 -0.9355 -0.3900
  162SAPE  H16X18254  -0.458   2.941   8.104  1.5045 -1.8185 -1.4167
  162SAPE  H16Y18255  -0.411   2.784   8.150  1.8642 -0.0412  1.1172
  162SAPE  C31718256  -0.515   2.890   8.313  0.3054  0.0457 -0.7044
  162SAPE  H17X18257  -0.593   2.968   8.324 -1.7819 -2.0452  0.1207
  162SAPE  H17Y18258  -0.420   2.935   8.350 -0.2709  0.3646  0.4488
  162SAPE  C31818259  -0.566   2.779   8.406 -0.6167 -0.1816 -0.2691
  162SAPE  H18X18260  -0.560   2.803   8.514 -1.0531  0.2599 -0.3397
  162SAPE  H18Y18261  -0.499   2.691   8.391 -0.9486 -0.5488  0.4021
  162SAPE  H18Z18262  -0.671   2.751   8.385 -1.2542 -0.1668  2.5410
  163SAPE     N18263   4.418   1.267   6.342  0.4223  0.0460 -0.5180
  163SAPE   HN118264   4.452   1.352   6.391 -0.4281  0.3057 -0.3672
  163SAPE   HN218265   4.450   1.278   6.244  1.5679  1.2543 -0.0406
  163SAPE   HN318266   4.314   1.275   6.343  0.3643 -0.6462 -0.1679
  163SAPE   C1218267   4.471   1.141   6.414 -0.2054 -0.3602  0.1448
  163SAPE  H12A18268   4.574   1.125   6.375  0.8845  0.7712  2.3822
  163SAPE  H12B18269   4.409   1.053   6.386  0.7633 -0.9544 -0.1953
  163SAPE   C1118270   4.475   1.145   6.564  0.4935  0.1785  0.1410
  163SAPE  H11A18271   4.553   1.221   6.588  1.6182 -0.4298 -1.4054
  163SAPE  H11B18272   4.499   1.046   6.607  0.7748  0.6629  1.1412
  163SAPE     P18273   4.269   1.111   6.728 -0.3452 -0.3234  0.1583
  163SAPE   O1318274   4.126   1.129   6.701 -0.3099 -0.3838  0.2462
  163SAPE   O1418275   4.311   0.968   6.731 -0.1621 -0.0858 -0.0873
  163SAPE   O1218276   4.348   1.191   6.619  0.1111 -0.2240  0.5670
  163SAPE   O1118277   4.297   1.196   6.855  0.3594  0.1770 -0.1013
  163SAPE    C118278   4.426   1.245   6.894 -0.0330 -0.3197  0.1171
  163SAPE    HA18279   4.487   1.292   6.814 -1.2865  2.4794  0.7099
  163SAPE    HB18280   4.410   1.320   6.975  0.1869 -1.2378  1.0407
  163SAPE    C218281   4.503   1.129   6.971 -0.7896 -0.1104 -0.1031
  163SAPE    HS18282   4.556   1.072   6.891  1.2904  0.6641  0.6706
  163SAPE   O2118283   4.417   1.048   7.043  0.0886  0.1716 -0.0800
  163SAPE   C2118284   4.448   0.919   7.049  0.0925  0.4591 -0.4722
  163SAPE   O2218285   4.551   0.866   7.005 -0.1617 -0.2977 -0.4594
  163SAPE   C2218286   4.328   0.844   7.118 -0.4503  0.1424 -0.0808
  163SAPE   H2R18287   4.338   0.885   7.221  2.8745  1.7036 -0.8850
  163SAPE   H2S18288   4.231   0.880   7.078  0.1348  0.6521 -1.0746
  163SAPE    C318289   4.612   1.187   7.065  0.2392  0.1901 -1.0478
  163SAPE    HX18290   4.687   1.234   6.997 -0.0639  1.5302 -0.4989
  163SAPE    HY18291   4.661   1.098   7.111  0.2652  0.7332  0.0021
  163SAPE   O3118292   4.549   1.289   7.150 -0.4001  0.6890  0.3259
  163SAPE   C3118293   4.521   1.247   7.274  0.0934 -0.3667 -0.4073
  163SAPE   O3218294   4.546   1.138   7.320  0.2099 -0.1514  0.0411
  163SAPE   C3218295   4.466   1.360   7.355 -0.0744 -0.4382 -0.1702
  163SAPE   H2X18296   4.398   1.324   7.436  1.4322 -1.8123  0.5414
  163SAPE   H2Y18297   4.396   1.418   7.291 -0.2935 -1.8615 -1.2828
  163SAPE   C2318298   4.325   0.690   7.108  0.2570  0.5121  0.1038
  163SAPE   H3R18299   4.397   0.652   7.032 -1.4877 -2.8122 -0.0321
  163SAPE   H3S18300   4.224   0.662   7.071  0.0627  1.3654 -0.0489
  163SAPE   C2418301   4.344   0.624   7.246 -0.1259  0.3679  0.9208
  163SAPE   H4R18302   4.339   0.515   7.228  2.4988  0.6696 -2.8235
  163SAPE   H4S18303   4.259   0.642   7.316 -0.0143 -1.3914  1.5531
  163SAPE   C2518304   4.468   0.659   7.313  0.1230  0.4896 -0.0223
  163SAPE   H5R18305   4.555   0.682   7.249  0.5430  1.0742  0.7414
  163SAPE   C2618306   4.493   0.676   7.446  0.7673 -0.6039  0.0609
  163SAPE   H6R18307   4.590   0.719   7.474  0.0872  1.7396 -0.9067
  163SAPE   C2718308   4.393   0.662   7.554 -0.9635 -0.2693  0.6272
  163SAPE   H7R18309   4.431   0.585   7.624  0.0020 -1.9283 -1.6030
  163SAPE   H7S18310   4.299   0.617   7.514  1.6920 -2.5296 -3.9787
  163SAPE   C2818311   4.366   0.807   7.610 -0.6149  0.1773 -0.2226
  163SAPE   H8R18312   4.330   0.881   7.537  0.2670  0.3076 -0.5297
  163SAPE   C2918313   4.379   0.839   7.743  0.1858  0.2069 -0.1253
  163SAPE   H9R18314   4.360   0.945   7.769  0.8634  0.6396 -1.3140
  163SAPE  C21018315   4.425   0.756   7.860 -0.4804  0.3103  0.4505
  163SAPE  H10R18316   4.459   0.655   7.830 -2.2102 -0.2767  0.3738
  163SAPE  H10S18317   4.333   0.746   7.923 -0.6571 -0.5490  0.0677
  163SAPE  C21118318   4.538   0.833   7.938  0.2764 -0.3355  0.0537
  163SAPE  H11R18319   4.630   0.830   7.878 -0.1441 -0.5552 -0.5904
  163SAPE  C21218320   4.526   0.890   8.059  0.6045 -0.7319  0.4003
  163SAPE  H12R18321   4.616   0.938   8.099  0.1438 -0.5988  1.3236
  163SAPE  C21318322   4.406   0.899   8.148  0.3179 -0.0346 -0.6646
  163SAPE  H13R18323   4.333   0.819   8.120 -0.8346  0.7266  0.0918
  163SAPE  H13S18324   4.361   0.997   8.124  1.2796  0.7590  0.6563
  163SAPE  C21418325   4.444   0.888   8.294 -0.7681  0.1680  0.3777
  163SAPE  H14R18326   4.457   0.989   8.337  1.0006  0.4743 -0.7673
  163SAPE  C21518327   4.460   0.775   8.371  0.3735 -0.7881  0.8548
  163SAPE  H15R18328   4.506   0.778   8.471  1.5110 -1.8443  0.3933
  163SAPE  C21618329   4.445   0.635   8.316 -0.1927 -0.2357  0.9986
  163SAPE  H16R18330   4.542   0.583   8.336  0.5035  0.4011 -0.5094
  163SAPE  H16S18331   4.434   0.638   8.205 -0.9481  1.4952  1.0905
  163SAPE  C21718332   4.332   0.558   8.384 -0.6571 -0.9776  0.9433
  163SAPE  H17R18333   4.308   0.472   8.318 -0.5772  0.0943 -0.5433
  163SAPE  H17S18334   4.241   0.622   8.392 -0.6189 -0.6059 -1.1009
  163SAPE  C21818335   4.362   0.512   8.534  0.0165 -0.3233 -0.4184
  163SAPE  H18R18336   4.268   0.467   8.573  1.0700 -3.2238 -0.9205
  163SAPE  H18S18337   4.383   0.599   8.600  0.0166 -0.5676 -0.0942
  163SAPE  C21918338   4.467   0.407   8.543  0.8074  0.2759  0.2413
  163SAPE  H19R18339   4.567   0.453   8.528  0.9361 -0.1886 -0.3985
  163SAPE  H19S18340   4.442   0.335   8.461 -0.8006  1.3345 -0.2547
  163SAPE  C22018341   4.451   0.333   8.676 -0.3461 -0.5650 -0.2344
  163SAPE  H20R18342   4.348   0.290   8.684 -0.1957 -0.5203  3.4033
  163SAPE  H20S18343   4.468   0.403   8.761  1.7121 -0.2793 -0.8422
  163SAPE  H20T18344   4.517   0.245   8.689  1.3428  0.3833 -1.8866
  163SAPE   C3318345   4.578   1.443   7.429  0.5050 -0.2450 -0.0918
  163SAPE   H3X18346   4.594   1.539   7.374 -1.6037  1.7777  2.5725
  163SAPE   H3Y18347   4.676   1.390   7.429  0.6265 -0.2009 -2.8560
  163SAPE   C3418348   4.551   1.472   7.579  0.3876 -0.1201  0.1237
  163SAPE   H4X18349   4.444   1.500   7.592  0.4062 -0.6360  1.5598
  163SAPE   H4Y18350   4.600   1.565   7.617  0.6562 -0.2726  0.1478
  163SAPE   C3518351   4.579   1.355   7.668 -0.5356 -0.1881 -0.8081
  163SAPE   H5X18352   4.686   1.331   7.681 -0.0917  2.8697  2.7172
  163SAPE   H5Y18353   4.509   1.271   7.645 -1.2286  0.4949 -1.2645
  163SAPE   C3618354   4.547   1.388   7.817  0.3925 -0.8882 -0.0522
  163SAPE   H6X18355   4.442   1.417   7.835  0.0332 -0.3346 -2.6652
  163SAPE   H6Y18356   4.617   1.466   7.853  0.0802 -0.5586 -0.1512
  163SAPE   C3718357   4.559   1.269   7.914  0.0865 -0.3141 -0.3443
  163SAPE   H7X18358   4.665   1.238   7.928 -0.2419 -1.8228 -1.0464
  163SAPE   H7Y18359   4.505   1.175   7.891 -0.1397 -1.1186  3.0414
  163SAPE   C3818360   4.518   1.294   8.057 -0.2571 -0.3540  0.1611
  163SAPE   H8X18361   4.538   1.203   8.119 -0.7007 -2.1578 -2.1884
  163SAPE   H8Y18362   4.410   1.318   8.057 -0.0249  1.1370 -2.8115
  163SAPE   C3918363   4.597   1.409   8.137 -0.0400 -0.3626 -0.2840
  163SAPE   H9X18364   4.581   1.505   8.083  0.4108  0.9373  1.7654
  163SAPE   H9Y18365   4.706   1.390   8.130  0.4525  2.2253 -0.6270
  163SAPE  C31018366   4.540   1.435   8.279  0.2118 -0.1518  0.2726
  163SAPE  H10X18367   4.556   1.345   8.343 -0.8806  0.5400  1.5827
  163SAPE  H10Y18368   4.430   1.452   8.283 -0.1065 -1.9433 -0.1461
  163SAPE  C31118369   4.610   1.564   8.327 -0.0762  0.4473  0.5124
  163SAPE  H11X18370   4.606   1.648   8.255 -0.7898  1.1420  1.3342
  163SAPE  H11Y18371   4.718   1.543   8.338 -0.2081  0.3338  1.7607
  163SAPE  C31218372   4.552   1.600   8.467  0.5985 -0.1206  1.0142
  163SAPE  H12X18373   4.554   1.504   8.522 -0.3990 -0.8059 -0.1037
  163SAPE  H12Y18374   4.445   1.628   8.455 -0.1282 -1.2811  3.8817
  163SAPE  C31318375   4.624   1.712   8.539  0.4635  0.5200  0.5596
  163SAPE  H13X18376   4.655   1.795   8.472  2.1741 -0.0595  0.5677
  163SAPE  H13Y18377   4.718   1.665   8.575 -0.3512 -1.0274  0.7192
  163SAPE  C31418378   4.559   1.778   8.668 -0.0676 -0.0045  0.0050
  163SAPE  H14X18379   4.505   1.696   8.719 -0.6587 -0.8624 -1.9213
  163SAPE  H14Y18380   4.475   1.838   8.626  0.6860  0.8708 -0.2738
  163SAPE  C31518381   4.649   1.867   8.753  0.1454 -0.1514  0.2705
  163SAPE  H15X18382   4.736   1.807   8.789  0.9132  0.3929 -0.6180
  163SAPE  H15Y18383   4.587   1.895   8.841  0.1800  1.0412 -0.0723
  163SAPE  C31618384   4.676   1.998   8.687 -0.3672  0.0883  0.4926
  163SAPE  H16X18385   4.580   2.050   8.666  0.4168  1.4024  0.0627
  163SAPE  H16Y18386   4.726   1.982   8.589 -2.0557 -1.2618 -0.1994
  163SAPE  C31718387   4.765   2.102   8.757  0.6240 -0.2512 -0.2164
  163SAPE  H17X18388   4.846   2.057   8.818 -0.2540  0.2074  1.3397
  163SAPE  H17Y18389   4.718   2.141   8.849  1.1835 -3.6363  1.6471
  163SAPE  C31818390   4.828   2.221   8.674  0.2901  0.2990  0.2435
  163SAPE  H18X18391   4.895   2.279   8.741  1.1125 -0.5321  0.1624
  163SAPE  H18Y18392   4.742   2.283   8.642  0.1146  0.0751  0.2848
  163SAPE  H18Z18393   4.887   2.184   8.587  1.8296  0.1379  1.3171
  164SAPE     N18394   6.641   3.825   5.871  0.1293  0.1505  0.4132
  164SAPE   HN118395   6.591   3.734   5.875  0.8878 -0.2270  2.0051
  164SAPE   HN218396   6.576   3.899   5.905 -1.1784 -0.2874 -1.0393
  164SAPE   HN318397   6.663   3.853   5.774  0.8689  1.7187  1.0010
  164SAPE   C1218398   6.763   3.813   5.966  0.7381  0.3867  0.3082
  164SAPE  H12A18399   6.718   3.785   6.063 -2.1039 -1.3226 -1.3506
  164SAPE  H12B18400   6.816   3.908   5.984  2.7157 -0.2826 -1.4888
  164SAPE   C1118401   6.858   3.704   5.908  0.1250  0.0986 -0.0590
  164SAPE  H11A18402   6.943   3.689   5.978  0.1474 -0.0512 -0.1185
  164SAPE  H11B18403   6.905   3.745   5.816  1.6145 -1.5736 -0.0822
  164SAPE     P18404   6.788   3.464   5.984 -0.4826 -0.0852  0.2719
  164SAPE   O1318405   6.706   3.358   5.926 -0.1090  0.4500 -0.2350
  164SAPE   O1418406   6.928   3.441   6.021 -0.5481  0.7901  0.4105
  164SAPE   O1218407   6.790   3.581   5.880  0.4959  0.2221 -0.2639
  164SAPE   O1118408   6.711   3.531   6.102  0.7260  0.1346 -0.0491
  164SAPE    C118409   6.762   3.542   6.238  0.0183 -0.2709 -0.3027
  164SAPE    HA18410   6.787   3.444   6.284 -0.7198  0.2393  1.2692
  164SAPE    HB18411   6.854   3.603   6.241 -0.8947  1.3678 -2.9224
  164SAPE    C218412   6.652   3.602   6.327 -0.5293 -1.5637  0.1481
  164SAPE    HS18413   6.638   3.705   6.286 -1.3976 -1.4550  0.6879
  164SAPE   O2118414   6.712   3.607   6.461  0.2549 -0.3565 -0.0510
  164SAPE   C2118415   6.693   3.728   6.526  0.1949  0.3748  0.6020
  164SAPE   O2218416   6.619   3.812   6.479  0.0096 -0.4312  0.5827
  164SAPE   C2218417   6.751   3.734   6.664 -0.1625  0.8985  0.5985
  164SAPE   H2R18418   6.664   3.732   6.732  0.1517  0.7939  0.9992
  164SAPE   H2S18419   6.823   3.651   6.677  0.5238  0.6358 -3.3920
  164SAPE    C318420   6.521   3.522   6.319 -0.2061 -0.5456  0.3912
  164SAPE    HX18421   6.546   3.414   6.330  0.5428 -0.4384 -0.1779
  164SAPE    HY18422   6.487   3.526   6.213  1.2906 -1.5768 -0.1593
  164SAPE   O3118423   6.422   3.568   6.414 -0.1827  0.3543 -0.6768
  164SAPE   C3118424   6.326   3.642   6.355 -0.5187 -0.2881  0.4894
  164SAPE   O3218425   6.331   3.687   6.241 -0.3689  0.1233 -0.6405
  164SAPE   C3218426   6.206   3.665   6.451 -0.2135  0.3446  0.1995
  164SAPE   H2X18427   6.143   3.573   6.452  0.5672 -0.2022  1.0633
  164SAPE   H2Y18428   6.143   3.748   6.413 -0.1073  0.8564  1.1195
  164SAPE   C2318429   6.830   3.860   6.701 -0.0416 -0.0358  0.6286
  164SAPE   H3R18430   6.765   3.948   6.682  0.6058 -0.1134 -2.4784
  164SAPE   H3S18431   6.928   3.872   6.649  0.2085 -0.9526  0.8675
  164SAPE   C2418432   6.866   3.871   6.853  0.1277 -0.0445  0.1215
  164SAPE   H4R18433   6.898   3.976   6.869 -1.4403  0.6426 -1.0354
  164SAPE   H4S18434   6.963   3.819   6.863 -0.7945 -1.6406  1.1827
  164SAPE   C2518435   6.768   3.821   6.958  0.5744 -0.8001  0.4891
  164SAPE   H5R18436   6.725   3.725   6.926 -1.2421 -0.1446  0.7881
  164SAPE   C2618437   6.732   3.886   7.071 -0.8260 -0.3484 -0.9030
  164SAPE   H6R18438   6.663   3.839   7.142 -0.9191  1.6861  0.4616
  164SAPE   C2718439   6.788   4.020   7.128  0.6146 -0.1452 -0.1310
  164SAPE   H7R18440   6.728   4.099   7.078 -2.2407  0.9951  4.5132
  164SAPE   H7S18441   6.894   4.021   7.097  0.6325  2.7494 -0.2067
  164SAPE   C2818442   6.756   4.033   7.273 -0.3730 -0.4802  0.0897
  164SAPE   H8R18443   6.670   4.098   7.295  1.2403  1.4418  1.1422
  164SAPE   C2918444   6.822   3.965   7.370 -0.0279  1.1129  0.1430
  164SAPE   H9R18445   6.788   3.981   7.473 -0.3435 -0.6896  0.3429
  164SAPE  C21018446   6.940   3.872   7.351  0.0479  0.1687 -0.5649
  164SAPE  H10R18447   7.030   3.925   7.389  0.1687 -2.1284  2.7773
  164SAPE  H10S18448   6.959   3.842   7.246 -1.2954 -1.6823 -0.3254
  164SAPE  C21118449   6.904   3.742   7.429 -1.0765  0.4162  1.3053
  164SAPE  H11R18450   6.865   3.660   7.367 -1.3255  0.5936  1.2250
  164SAPE  C21218451   6.910   3.724   7.563 -0.2015 -0.5110  0.0671
  164SAPE  H12R18452   6.890   3.622   7.600  0.2087 -0.3565  0.7358
  164SAPE  C21318453   6.951   3.825   7.667 -0.2109 -0.4510  0.1106
  164SAPE  H13R18454   6.966   3.923   7.616  0.8835 -0.5739  0.1822
  164SAPE  H13S18455   7.054   3.795   7.696  1.1718  1.4714 -2.3779
  164SAPE  C21418456   6.840   3.819   7.768 -0.4640  0.5829 -0.1098
  164SAPE  H14R18457   6.737   3.793   7.740 -0.2347  0.6146 -1.0081
  164SAPE  C21518458   6.863   3.831   7.905 -0.3654 -0.2211  0.3322
  164SAPE  H15R18459   6.786   3.814   7.982 -2.6635  0.7993 -1.6268
  164SAPE  C21618460   6.991   3.864   7.968 -0.3704  0.3741  0.0867
  164SAPE  H16R18461   7.068   3.899   7.896  0.0712 -2.8972 -1.2022
  164SAPE  H16S18462   7.031   3.781   8.028 -1.9500  0.5655  1.4760
  164SAPE  C21718463   6.980   3.979   8.071 -0.2838 -0.2746 -0.1173
  164SAPE  H17R18464   7.084   3.990   8.110  0.6514 -1.0651 -2.2551
  164SAPE  H17S18465   6.920   3.948   8.160 -0.8473  0.5426 -0.1994
  164SAPE  C21818466   6.928   4.106   8.005 -0.3455  0.5891 -0.1065
  164SAPE  H18R18467   6.822   4.089   7.978 -0.2998 -1.1808  0.7055
  164SAPE  H18S18468   6.976   4.130   7.908 -0.0116 -0.4844 -0.2199
  164SAPE  C21918469   6.941   4.232   8.091 -0.0581  0.0742  0.3043
  164SAPE  H19R18470   7.044   4.235   8.133 -0.5390 -1.5183  1.7003
  164SAPE  H19S18471   6.874   4.212   8.177  1.7603 -5.1638  0.9076
  164SAPE  C22018472   6.896   4.359   8.023 -0.0758 -0.1878 -0.1048
  164SAPE  H20R18473   6.790   4.362   7.990  0.0422 -1.1452 -0.6076
  164SAPE  H20S18474   6.947   4.365   7.924 -0.2022 -2.6583 -0.3824
  164SAPE  H20T18475   6.917   4.450   8.084 -2.1669  1.7798 -2.1161
  164SAPE   C3318476   6.258   3.721   6.590 -0.0033 -0.7280  0.0826
  164SAPE   H3X18477   6.162   3.757   6.634 -0.4302 -2.1770  0.3771
  164SAPE   H3Y18478   6.315   3.812   6.562  0.3387 -0.7990  0.5545
  164SAPE   C3418479   6.325   3.629   6.686 -0.3022  0.3885 -0.2535
  164SAPE   H4X18480   6.425   3.596   6.651 -0.9474 -1.9424 -0.0198
  164SAPE   H4Y18481   6.268   3.535   6.701  3.4594 -2.4034 -1.9775
  164SAPE   C3518482   6.342   3.688   6.825 -0.2656 -0.0100  0.2963
  164SAPE   H5X18483   6.256   3.756   6.840  0.1029  0.6721 -0.6472
  164SAPE   H5Y18484   6.429   3.755   6.813  1.2408 -1.6868  1.3484
  164SAPE   C3618485   6.365   3.582   6.935 -0.3021  0.3701 -0.1529
  164SAPE   H6X18486   6.453   3.522   6.904  0.5433  1.8014 -0.5959
  164SAPE   H6Y18487   6.285   3.511   6.966  2.2904 -1.9159  1.7893
  164SAPE   C3718488   6.403   3.657   7.064  0.0999  0.3726 -0.7636
  164SAPE   H7X18489   6.323   3.731   7.085  1.3077  1.2005  1.2912
  164SAPE   H7Y18490   6.492   3.720   7.045  0.7334 -0.3491 -0.2684
  164SAPE   C3818491   6.438   3.557   7.171 -0.2429 -0.4587 -0.4115
  164SAPE   H8X18492   6.511   3.477   7.148  0.2449  0.1629 -1.0546
  164SAPE   H8Y18493   6.347   3.500   7.202  0.3374 -1.1432  0.0508
  164SAPE   C3918494   6.479   3.626   7.303  0.5766  0.1013 -0.3594
  164SAPE   H9X18495   6.390   3.684   7.333 -0.0048 -0.7713 -0.3565
  164SAPE   H9Y18496   6.577   3.675   7.286  0.1809  0.5637 -1.3643
  164SAPE  C31018497   6.490   3.535   7.431  0.9757  0.0310  0.5559
  164SAPE  H10X18498   6.580   3.471   7.421 -0.7931 -2.3930 -0.9407
  164SAPE  H10Y18499   6.401   3.469   7.436 -0.4729  1.9069  1.1707
  164SAPE  C31118500   6.475   3.611   7.569 -0.2529  0.1437 -0.2574
  164SAPE  H11X18501   6.386   3.678   7.572  0.0714  0.7041  4.3619
  164SAPE  H11Y18502   6.553   3.689   7.578 -0.0801  0.0296 -0.7203
  164SAPE  C31218503   6.476   3.515   7.692 -0.2608 -0.4191 -0.1645
  164SAPE  H12X18504   6.564   3.448   7.689 -1.9963 -2.9046  1.2880
  164SAPE  H12Y18505   6.384   3.456   7.676 -0.1136 -0.7516  0.2056
  164SAPE  C31318506   6.461   3.594   7.825 -0.5347 -0.0813  0.1345
  164SAPE  H13X18507   6.365   3.649   7.823  0.3393  1.4967  0.2008
  164SAPE  H13Y18508   6.535   3.676   7.836 -1.4983  0.5240  2.9183
  164SAPE  C31418509   6.464   3.511   7.956 -0.6290  0.5477  0.4477
  164SAPE  H14X18510   6.569   3.496   7.991 -0.4875  0.3867 -0.0364
  164SAPE  H14Y18511   6.422   3.408   7.948 -1.5998  0.8956  0.9171
  164SAPE  C31518512   6.387   3.579   8.070 -0.1303  0.6426  0.2508
  164SAPE  H15X18513   6.373   3.514   8.159 -1.2642 -0.3685 -0.6272
  164SAPE  H15Y18514   6.283   3.597   8.036 -0.0892 -0.5686 -0.5940
  164SAPE  C31618515   6.447   3.707   8.127 -0.0786 -0.6000  0.3471
  164SAPE  H16X18516   6.374   3.755   8.196  1.2804 -0.4340  1.7021
  164SAPE  H16Y18517   6.470   3.787   8.053 -0.9450 -1.4433 -0.8657
  164SAPE  C31718518   6.576   3.684   8.208  0.0209  0.5705  0.2461
  164SAPE  H17X18519   6.650   3.640   8.138 -1.6889 -0.2198 -1.1284
  164SAPE  H17Y18520   6.548   3.603   8.279 -0.8494  0.9592  0.3520
  164SAPE  C31818521   6.616   3.815   8.273  0.3673  0.3324  0.1296
  164SAPE  H18X18522   6.701   3.786   8.339  0.6904 -1.8036 -1.1164
  164SAPE  H18Y18523   6.537   3.858   8.338  0.2107  0.8833 -0.4228
  164SAPE  H18Z18524   6.659   3.876   8.191  1.0495 -1.5585 -0.9999
  165SAPE     N18525   1.037   6.457   6.086 -0.1176 -0.1154  0.4322
  165SAPE   HN118526   1.124   6.481   6.138  1.6725 -0.1637 -2.3534
  165SAPE   HN218527   1.045   6.481   5.986 -2.0307 -0.0933  0.2440
  165SAPE   HN318528   0.958   6.518   6.117 -0.4647 -0.5946  0.5055
  165SAPE   C1218529   0.989   6.312   6.084 -0.5942 -1.1324  0.2001
  165SAPE  H12A18530   1.079   6.247   6.084  0.1541 -0.1278  1.0763
  165SAPE  H12B18531   0.912   6.303   6.004 -0.5549  1.2307 -0.1647
  165SAPE   C1118532   0.940   6.273   6.230  1.1991 -1.0800 -0.1058
  165SAPE  H11A18533   1.026   6.298   6.295  0.0634 -0.7570  1.3258
  165SAPE  H11B18534   0.908   6.167   6.238 -0.8312 -0.5548 -0.6517
  165SAPE     P18535   0.767   6.367   6.408  0.0527  0.0642 -0.2296
  165SAPE   O1318536   0.750   6.512   6.434  0.2967 -0.6293  0.6966
  165SAPE   O1418537   0.637   6.288   6.397 -0.5102  0.3119  0.4028
  165SAPE   O1218538   0.832   6.364   6.260 -0.1682 -0.1826 -0.0762
  165SAPE   O1118539   0.889   6.296   6.490  0.1448 -1.0537  0.5710
  165SAPE    C118540   0.944   6.368   6.603  0.7663  0.3365  0.8608
  165SAPE    HA18541   1.048   6.399   6.582 -0.1024  2.1537 -1.1328
  165SAPE    HB18542   0.890   6.465   6.615 -1.9954 -0.8473 -1.0857
  165SAPE    C218543   0.901   6.304   6.738  0.4090  0.2357 -0.4582
  165SAPE    HS18544   0.791   6.290   6.739  0.4919 -0.4335 -0.1117
  165SAPE   O2118545   0.943   6.397   6.844 -0.3055  0.4699  0.3882
  165SAPE   C2118546   0.871   6.398   6.955 -0.3803  0.3345 -0.1155
  165SAPE   O2218547   0.776   6.322   6.974 -0.0774 -0.2496  0.4110
  165SAPE   C2218548   0.925   6.498   7.064 -0.1691 -0.5000  0.0245
  165SAPE   H2R18549   0.993   6.447   7.136 -0.6493 -2.6737 -0.9874
  165SAPE   H2S18550   0.989   6.569   7.009 -2.4219  0.5346 -1.4016
  165SAPE    C318551   0.955   6.154   6.736 -0.2670 -0.8705 -1.0457
  165SAPE    HX18552   1.065   6.171   6.727 -0.3814  0.1760 -0.6196
  165SAPE    HY18553   0.916   6.106   6.644 -2.6296  1.3423 -1.3017
  165SAPE   O3118554   0.919   6.078   6.856 -0.3476 -0.4602 -0.2469
  165SAPE   C3118555   0.804   6.010   6.847  0.5140 -0.5427 -0.0843
  165SAPE   O3218556   0.720   6.027   6.761  0.4464 -0.5556 -0.6691
  165SAPE   C3218557   0.786   5.909   6.961 -0.3520  0.0098 -0.6062
  165SAPE   H2X18558   0.818   5.813   6.914 -1.5170  0.4331 -2.3613
  165SAPE   H2Y18559   0.679   5.917   6.992  0.6686  2.5615  2.8983
  165SAPE   C2318560   0.813   6.578   7.145  0.3710  0.4009  0.2232
  165SAPE   H3R18561   0.742   6.502   7.183  1.7335 -1.0053  0.0441
  165SAPE   H3S18562   0.757   6.653   7.085 -0.6416 -0.9556 -0.5936
  165SAPE   C2418563   0.869   6.650   7.265 -0.2023  0.1224 -0.2310
  165SAPE   H4R18564   0.789   6.702   7.322  0.3065  0.7648 -0.0938
  165SAPE   H4S18565   0.949   6.721   7.236  0.0898  0.5120  1.4476
  165SAPE   C2518566   0.938   6.567   7.369  0.1084 -0.3401  0.7347
  165SAPE   H5R18567   1.043   6.543   7.345  0.1656  0.5339  0.0696
  165SAPE   C2618568   0.886   6.529   7.494 -0.4224  0.0207 -0.4391
  165SAPE   H6R18569   0.951   6.472   7.562 -1.6764  0.5378  1.2558
  165SAPE   C2718570   0.748   6.554   7.549 -0.1012 -0.3327 -0.5412
  165SAPE   H7R18571   0.670   6.535   7.472 -0.6379  0.3685 -0.1868
  165SAPE   H7S18572   0.728   6.660   7.576 -1.2021 -0.1404 -1.9811
  165SAPE   C2818573   0.719   6.459   7.664  0.1241 -0.0411 -0.2917
  165SAPE   H8R18574   0.764   6.359   7.650  0.8580  0.4537 -1.7577
  165SAPE   C2918575   0.674   6.485   7.784  0.0225 -0.4588  0.2015
  165SAPE   H9R18576   0.654   6.406   7.858  0.4209 -1.4460 -0.7132
  165SAPE  C21018577   0.645   6.621   7.833 -0.9037  0.5008  0.8998
  165SAPE  H10R18578   0.536   6.637   7.820 -1.4806 -1.6841  2.2913
  165SAPE  H10S18579   0.706   6.697   7.782  1.8180 -2.5397 -0.7685
  165SAPE  C21118580   0.674   6.632   7.981 -0.0041  0.0497 -0.4518
  165SAPE  H11R18581   0.764   6.581   8.017 -0.6238 -1.4021 -0.8698
  165SAPE  C21218582   0.598   6.688   8.079  1.4967 -0.2311  0.2381
  165SAPE  H12R18583   0.633   6.669   8.182 -1.0596 -1.5013  0.9765
  165SAPE  C21318584   0.469   6.758   8.051  0.6139 -0.4056 -0.0726
  165SAPE  H13R18585   0.391   6.684   8.081  0.4189 -0.8076 -1.5040
  165SAPE  H13S18586   0.457   6.775   7.942 -2.2144  0.1803  0.2556
  165SAPE  C21418587   0.457   6.886   8.132  0.2772  0.2208 -0.6076
  165SAPE  H14R18588   0.554   6.933   8.155 -0.6287  0.9268  2.1380
  165SAPE  C21518589   0.346   6.929   8.196  0.6999 -0.1321 -0.2307
  165SAPE  H15R18590   0.340   7.012   8.267 -2.6072 -0.3905 -0.0858
  165SAPE  C21618591   0.209   6.864   8.186  0.0915  0.7912  0.1402
  165SAPE  H16R18592   0.205   6.797   8.097  0.6231  0.5347  0.3036
  165SAPE  H16S18593   0.128   6.939   8.175  1.3192  2.3051  0.9730
  165SAPE  C21718594   0.191   6.774   8.311  0.3141 -0.2407  0.0502
  165SAPE  H17R18595   0.254   6.683   8.302 -0.3051 -0.7607  0.8259
  165SAPE  H17S18596   0.088   6.735   8.306  0.5701 -1.1013  1.0784
  165SAPE  C21818597   0.199   6.849   8.450  0.5811 -0.3115 -0.1296
  165SAPE  H18R18598   0.168   6.955   8.442  3.1996  0.4128 -1.9124
  165SAPE  H18S18599   0.306   6.872   8.471  0.7324 -2.2481  1.5640
  165SAPE  C21918600   0.147   6.762   8.565  0.3778  0.0107  0.1761
  165SAPE  H19R18601   0.217   6.678   8.583 -2.1211 -2.0269  1.1107
  165SAPE  H19S18602   0.046   6.725   8.536 -1.1137  2.5558  1.7486
  165SAPE  C22018603   0.138   6.841   8.702 -0.0204  0.8124  0.6140
  165SAPE  H20R18604   0.062   6.920   8.689 -1.9640 -1.2863 -1.7564
  165SAPE  H20S18605   0.235   6.884   8.736  0.6298  0.1012 -0.2671
  165SAPE  H20T18606   0.108   6.763   8.775 -1.5017 -0.0603 -0.8625
  165SAPE   C3318607   0.857   5.923   7.097 -0.0720 -0.2591  0.6556
  165SAPE   H3X18608   0.851   6.022   7.145  4.3017  0.4977  0.0574
  165SAPE   H3Y18609   0.967   5.909   7.086 -0.0863 -0.5708  0.8928
  165SAPE   C3418610   0.809   5.821   7.202 -0.3534  0.0580  0.1603
  165SAPE   H4X18611   0.835   5.717   7.170 -1.7965 -0.1689 -0.3321
  165SAPE   H4Y18612   0.702   5.843   7.218 -0.8376 -1.2963 -0.9761
  165SAPE   C3518613   0.880   5.841   7.339  1.1325  0.8624  0.0440
  165SAPE   H5X18614   0.860   5.944   7.377  3.8739  1.3635  0.3171
  165SAPE   H5Y18615   0.990   5.836   7.324  1.1137  1.2459 -0.2309
  165SAPE   C3618616   0.842   5.747   7.459  0.0332 -0.2420  0.3347
  165SAPE   H6X18617   0.886   5.645   7.446 -3.3881 -1.8189  0.0549
  165SAPE   H6Y18618   0.732   5.731   7.459  0.0845 -0.6164  1.0818
  165SAPE   C3718619   0.903   5.796   7.591  0.3957  0.4171  0.1353
  165SAPE   H7X18620   0.890   5.905   7.608  1.7226  0.5866  0.1504
  165SAPE   H7Y18621   1.014   5.790   7.595  0.3747  0.1280  4.1772
  165SAPE   C3818622   0.849   5.717   7.710 -0.3141  0.4775  0.0202
  165SAPE   H8X18623   0.841   5.610   7.681 -1.5666  0.0103  1.9154
  165SAPE   H8Y18624   0.742   5.745   7.723 -0.2650  0.4435  0.5235
  165SAPE   C3918625   0.931   5.729   7.837  0.2653  0.3008 -0.8123
  165SAPE   H9X18626   0.919   5.837   7.861 -0.0973  0.1655 -0.3678
  165SAPE   H9Y18627   1.038   5.708   7.817  0.5386  2.2447 -1.6195
  165SAPE  C31018628   0.869   5.654   7.959 -0.4357 -0.6348  0.0830
  165SAPE  H10X18629   0.846   5.549   7.934  0.7331 -1.4429  2.1440
  165SAPE  H10Y18630   0.774   5.695   7.998 -0.2562 -2.0826  2.1359
  165SAPE  C31118631   0.966   5.661   8.080  0.0272 -0.1493 -0.6212
  165SAPE  H11X18632   0.980   5.769   8.103 -0.1860 -0.6364  2.1171
  165SAPE  H11Y18633   1.064   5.630   8.036  0.8484  2.8213 -1.1830
  165SAPE  C31218634   0.935   5.590   8.206 -0.0105 -0.6291  0.2530
  165SAPE  H12X18635   0.952   5.483   8.183  1.8623  0.1869 -2.8945
  165SAPE  H12Y18636   0.832   5.611   8.241  0.2082 -0.3369  0.7247
  165SAPE  C31318637   1.034   5.632   8.316 -0.1130  0.2463 -0.8418
  165SAPE  H13X18638   1.014   5.736   8.350  2.1453  0.0448  1.3608
  165SAPE  H13Y18639   1.144   5.637   8.301  0.2745  0.2333  1.5711
  165SAPE  C31418640   1.011   5.555   8.448 -0.9079  0.8751 -0.4715
  165SAPE  H14X18641   1.013   5.445   8.428 -1.9107  0.5981  0.8251
  165SAPE  H14Y18642   0.910   5.586   8.483 -1.0083  0.3756 -0.3090
  165SAPE  C31518643   1.113   5.593   8.560 -0.5229 -0.4607 -0.0936
  165SAPE  H15X18644   1.098   5.700   8.586  1.2797  0.3391 -2.0453
  165SAPE  H15Y18645   1.211   5.574   8.511 -0.0887  0.0892  0.5492
  165SAPE  C31618646   1.103   5.501   8.682 -0.1585  0.8264  0.1921
  165SAPE  H16X18647   1.203   5.497   8.732 -1.2125 -2.2178  2.3438
  165SAPE  H16Y18648   1.098   5.393   8.658  1.6163  0.8451 -0.3773
  165SAPE  C31718649   0.986   5.532   8.773  0.5957  0.2529 -0.8085
  165SAPE  H17X18650   0.962   5.454   8.848 -3.8101  2.1239  0.0875
  165SAPE  H17Y18651   0.897   5.550   8.709  1.2365  0.1802 -1.7391
  165SAPE  C31818652   1.005   5.661   8.857  0.2776  0.0254  0.6412
  165SAPE  H18X18653   1.087   5.658   8.931 -0.1120 -1.2795  1.0396
  165SAPE  H18Y18654   0.912   5.687   8.911  0.6007 -1.0686  1.7766
  165SAPE  H18Z18655   1.013   5.751   8.792  1.0788 -0.1227  0.5213
  166SAPE     N18656   5.079   4.498   6.037  0.5779 -0.4278  0.0906
  166SAPE   HN118657   5.028   4.408   6.024 -0.6292  0.3619 -0.8590
  166SAPE   HN218658   5.013   4.578   6.033  1.7092  0.5465  0.3000
  166SAPE   HN318659   5.157   4.502   5.969  1.2202  0.4272  0.8572
  166SAPE   C1218660   5.140   4.493   6.179  0.4926 -0.0658  0.1076
  166SAPE  H12A18661   5.217   4.413   6.184 -0.5592 -1.0304  1.2359
  166SAPE  H12B18662   5.056   4.475   6.249  1.3058  1.3094  1.5049
  166SAPE   C1118663   5.218   4.621   6.211  0.6076  0.1538  0.3902
  166SAPE  H11A18664   5.256   4.605   6.314  1.3729 -0.7373 -0.0134
  166SAPE  H11B18665   5.161   4.717   6.209  0.6167  0.1555  0.0368
  166SAPE     P18666   5.446   4.727   6.152 -0.1625  0.4888  0.2624
  166SAPE   O1318667   5.492   4.776   6.024 -1.0694  0.2621 -0.3317
  166SAPE   O1418668   5.399   4.825   6.256 -0.5049 -0.2032  0.3988
  166SAPE   O1218669   5.328   4.626   6.122 -0.3463 -0.0928  0.3463
  166SAPE   O1118670   5.560   4.630   6.206 -0.5214 -0.6696  0.2508
  166SAPE    C118671   5.558   4.489   6.214 -0.0992  0.0115 -0.0996
  166SAPE    HA18672   5.456   4.449   6.199 -0.2202  0.4282 -0.4214
  166SAPE    HB18673   5.622   4.440   6.138  1.3297  1.2127  0.2631
  166SAPE    C218674   5.614   4.438   6.347  0.0198 -0.1672  0.4764
  166SAPE    HS18675   5.598   4.328   6.350 -1.8038  0.0650  0.4640
  166SAPE   O2118676   5.545   4.491   6.466 -0.0182  0.3988  0.5915
  166SAPE   C2118677   5.425   4.442   6.480 -0.0739  0.5509  0.3561
  166SAPE   O2218678   5.371   4.357   6.407 -0.6345  0.1108 -0.5432
  166SAPE   C2218679   5.340   4.502   6.590  0.0327 -0.1856 -0.2608
  166SAPE   H2R18680   5.370   4.608   6.604  1.0979 -0.6815  1.4687
  166SAPE   H2S18681   5.236   4.507   6.551  0.1604 -0.4156 -0.6330
  166SAPE    C318682   5.766   4.474   6.355 -0.4763 -0.2122 -0.4242
  166SAPE    HX18683   5.773   4.585   6.348 -2.1543 -0.0973 -0.7383
  166SAPE    HY18684   5.817   4.426   6.269 -1.0225 -1.1845 -0.2247
  166SAPE   O3118685   5.826   4.436   6.477 -0.3661  0.0739 -0.3429
  166SAPE   C3118686   5.827   4.306   6.497  0.4073  0.1504 -0.6668
  166SAPE   O3218687   5.795   4.218   6.420 -0.3270 -0.0516  0.6609
  166SAPE   C3218688   5.873   4.276   6.641 -0.1036  0.0962  0.4806
  166SAPE   H2X18689   5.808   4.339   6.706  3.4242  3.6569  0.9447
  166SAPE   H2Y18690   5.975   4.318   6.649 -0.0428 -0.3106  2.2386
  166SAPE   C2318691   5.342   4.423   6.725  0.0865  0.0285  0.1206
  166SAPE   H3R18692   5.311   4.317   6.714  0.9413 -0.3451  1.1858
  166SAPE   H3S18693   5.269   4.454   6.803  1.2278 -0.9684  1.6437
  166SAPE   C2418694   5.481   4.438   6.790  0.3457 -0.1120  0.2075
  166SAPE   H4R18695   5.561   4.426   6.714 -1.6085  1.6198 -2.3323
  166SAPE   H4S18696   5.482   4.362   6.871 -2.5766  0.0009  0.4711
  166SAPE   C2518697   5.496   4.584   6.846  0.1886  0.9260  0.4735
  166SAPE   H5R18698   5.464   4.662   6.775  1.2321  1.2703  0.3688
  166SAPE   C2618699   5.512   4.622   6.975 -0.0439 -0.2862 -0.4534
  166SAPE   H6R18700   5.505   4.725   7.012  2.0427 -0.9453  2.1111
  166SAPE   C2718701   5.527   4.518   7.089 -0.0850  0.3144  0.2616
  166SAPE   H7R18702   5.619   4.527   7.151  0.0762  0.9165 -0.0502
  166SAPE   H7S18703   5.567   4.424   7.045  1.9529  1.9874 -1.7324
  166SAPE   C2818704   5.393   4.498   7.160  0.0552 -0.5100  0.1288
  166SAPE   H8R18705   5.301   4.540   7.115 -1.2014 -0.4509  2.5963
  166SAPE   C2918706   5.370   4.429   7.268 -0.0666  0.3131 -0.4258
  166SAPE   H9R18707   5.269   4.432   7.311  0.3316 -1.0611  0.6861
  166SAPE  C21018708   5.476   4.352   7.331  0.2069 -0.2191  0.0781
  166SAPE  H10R18709   5.574   4.404   7.339 -0.0053  0.2852 -0.5410
  166SAPE  H10S18710   5.501   4.265   7.267 -1.5666 -0.7221  0.0136
  166SAPE  C21118711   5.422   4.287   7.462 -0.7059  0.0465 -0.0568
  166SAPE  H11R18712   5.410   4.178   7.462 -0.7105  0.0455  0.2058
  166SAPE  C21218713   5.404   4.336   7.584 -0.5152 -0.1934 -0.4653
  166SAPE  H12R18714   5.368   4.269   7.664 -3.7038  0.0598 -1.5531
  166SAPE  C21318715   5.434   4.484   7.626  0.6347  0.1269  0.3810
  166SAPE  H13R18716   5.365   4.510   7.709  0.2693 -1.8979  0.7729
  166SAPE  H13S18717   5.417   4.552   7.541 -1.1620 -1.3068 -0.4633
  166SAPE  C21418718   5.577   4.486   7.675 -0.1569  0.8370  0.2599
  166SAPE  H14R18719   5.648   4.452   7.597 -2.0662 -0.9833 -0.7813
  166SAPE  C21518720   5.627   4.520   7.792  0.5952 -0.0794 -0.4345
  166SAPE  H15R18721   5.735   4.523   7.810  0.3343 -2.3963  2.2204
  166SAPE  C21618722   5.543   4.551   7.911  0.3319 -0.1134  0.6590
  166SAPE  H16R18723   5.531   4.454   7.965 -0.7248 -0.3004  0.1128
  166SAPE  H16S18724   5.438   4.573   7.886  0.6649  0.1099 -0.5903
  166SAPE  C21718725   5.588   4.661   8.007  0.0925 -0.3012 -0.6217
  166SAPE  H17R18726   5.588   4.756   7.949  1.0233 -0.8728 -1.5817
  166SAPE  H17S18727   5.690   4.641   8.045 -1.2399 -0.7798  3.1747
  166SAPE  C21818728   5.499   4.672   8.129 -0.2126 -0.6864 -0.9557
  166SAPE  H18R18729   5.485   4.575   8.182  0.2004  0.4764  1.4225
  166SAPE  H18S18730   5.401   4.704   8.087  0.1402  2.3210  0.2680
  166SAPE  C21918731   5.557   4.766   8.236 -0.7980  0.0901  0.0526
  166SAPE  H19R18732   5.478   4.804   8.305  0.4618 -0.8575  2.1071
  166SAPE  H19S18733   5.596   4.863   8.198 -1.1931  1.1151  2.0866
  166SAPE  C22018734   5.670   4.708   8.320  0.1181 -0.2377  0.2532
  166SAPE  H20R18735   5.703   4.785   8.394  2.2544 -1.5462  0.7557
  166SAPE  H20S18736   5.760   4.681   8.261  1.2600  0.9640  1.3772
  166SAPE  H20T18737   5.632   4.621   8.380  0.1206  0.3714  1.1634
  166SAPE   C3318738   5.866   4.126   6.679  0.1321  0.2060  0.0263
  166SAPE   H3X18739   5.936   4.105   6.763  1.8356 -1.9678 -1.7860
  166SAPE   H3Y18740   5.895   4.056   6.598 -1.4750 -0.3198 -0.1300
  166SAPE   C3418741   5.728   4.079   6.721  0.5455  0.3088 -0.0521
  166SAPE   H4X18742   5.719   3.968   6.716  0.1562  0.4073 -2.2406
  166SAPE   H4Y18743   5.647   4.115   6.654 -1.7405 -0.9536  1.8690
  166SAPE   C3518744   5.674   4.117   6.857 -0.9041  0.3899 -0.1275
  166SAPE   H5X18745   5.567   4.090   6.868 -0.1723 -2.6407  0.4518
  166SAPE   H5Y18746   5.686   4.227   6.859 -1.1199  0.4041  1.3593
  166SAPE   C3618747   5.756   4.052   6.975  0.0318 -0.3760  0.1551
  166SAPE   H6X18748   5.863   4.078   6.960 -0.1851  0.5840  0.1871
  166SAPE   H6Y18749   5.757   3.942   6.962  2.1554 -0.1923 -1.8611
  166SAPE   C3718750   5.711   4.114   7.105 -0.1404 -0.2401  0.0334
  166SAPE   H7X18751   5.601   4.102   7.117 -0.4707  1.1331 -1.2699
  166SAPE   H7Y18752   5.730   4.223   7.091  0.2927 -0.1270  1.3997
  166SAPE   C3818753   5.794   4.061   7.227  0.9008 -0.2975 -0.8104
  166SAPE   H8X18754   5.893   4.109   7.208  0.6981  0.3929 -0.1675
  166SAPE   H8Y18755   5.804   3.951   7.232 -0.0666 -0.3378  2.8315
  166SAPE   C3918756   5.742   4.110   7.361  0.3918 -0.0264  0.2197
  166SAPE   H9X18757   5.636   4.081   7.376 -0.0777  2.2494  1.7306
  166SAPE   H9Y18758   5.735   4.220   7.356  3.5632  0.5006  3.3835
  166SAPE  C31018759   5.831   4.072   7.479 -0.1929 -0.2353 -0.1224
  166SAPE  H10X18760   5.938   4.095   7.456  0.6278  0.9234  3.9975
  166SAPE  H10Y18761   5.827   3.963   7.499  3.6745  0.1054  4.2752
  166SAPE  C31118762   5.795   4.153   7.600 -0.4839  0.2284  0.0195
  166SAPE  H11X18763   5.695   4.131   7.643 -0.3793 -0.5590 -0.1265
  166SAPE  H11Y18764   5.780   4.260   7.572 -2.1878  0.2353  0.8077
  166SAPE  C31218765   5.898   4.143   7.708  0.1293 -0.5205 -0.1638
  166SAPE  H12X18766   5.995   4.150   7.654 -0.0525 -3.9679 -1.1737
  166SAPE  H12Y18767   5.899   4.039   7.747 -1.2799 -1.0267 -1.4333
  166SAPE  C31318768   5.886   4.255   7.813  0.0650 -0.0869  0.4534
  166SAPE  H13X18769   5.788   4.260   7.865 -0.0298  0.5957  0.2217
  166SAPE  H13Y18770   5.911   4.347   7.756  0.2740 -1.1779 -1.2873
  166SAPE  C31418771   5.980   4.250   7.924 -0.1679 -0.8883  0.2543
  166SAPE  H14X18772   6.075   4.229   7.871 -1.1817 -0.6879 -1.7039
  166SAPE  H14Y18773   5.962   4.166   7.995 -1.0424 -1.0191 -0.1151
  166SAPE  C31518774   5.990   4.392   7.990 -0.0213  0.0866  0.1490
  166SAPE  H15X18775   5.998   4.473   7.914  0.0194 -0.7159 -0.7239
  166SAPE  H15Y18776   6.083   4.400   8.050 -1.1173 -0.9177  2.0855
  166SAPE  C31618777   5.871   4.419   8.087 -0.6359 -0.1121 -0.9453
  166SAPE  H16X18778   5.772   4.422   8.036 -1.3779  0.4618  0.4808
  166SAPE  H16Y18779   5.897   4.522   8.122 -0.9598 -1.2316  3.0675
  166SAPE  C31718780   5.869   4.317   8.208 -0.4353  0.6384 -0.2135
  166SAPE  H17X18781   5.975   4.330   8.238 -1.3234  1.8925  2.7051
  166SAPE  H17Y18782   5.844   4.213   8.178 -0.1558  0.3651  0.4765
  166SAPE  C31818783   5.770   4.367   8.316  0.5095  0.2047 -0.0361
  166SAPE  H18X18784   5.770   4.310   8.411 -1.3331  1.8425  1.0089
  166SAPE  H18Y18785   5.668   4.365   8.273  0.0210 -1.9805  1.0660
  166SAPE  H18Z18786   5.789   4.472   8.345  1.0484  0.0653  0.1437
  167SAPE     N18787   6.678   3.071   5.973  0.6980 -0.1353  0.4201
  167SAPE   HN118788   6.693   2.968   5.964  1.3400  0.0087 -0.2616
  167SAPE   HN218789   6.576   3.089   5.976  0.7653  0.9795 -1.8517
  167SAPE   HN318790   6.705   3.112   5.881 -2.3440  1.0814 -0.0250
  167SAPE   C1218791   6.769   3.109   6.086 -0.1867  0.4449 -0.5153
  167SAPE  H12A18792   6.711   3.158   6.167  0.8093  0.4969  0.1833
  167SAPE  H12B18793   6.843   3.187   6.055  0.0675  1.4355  2.2452
  167SAPE   C1118794   6.847   2.992   6.155  0.4606  0.5336  0.5178
  167SAPE  H11A18795   6.770   2.922   6.194  1.2993 -0.1565  0.9894
  167SAPE  H11B18796   6.890   3.044   6.244  0.7501  1.2483 -0.0307
  167SAPE     P18797   6.991   2.781   6.096 -0.0439  0.1885 -0.2033
  167SAPE   O1318798   6.887   2.680   6.076  0.2244  0.3660  0.4906
  167SAPE   O1418799   7.118   2.767   6.025  0.1932  0.1418 -0.0854
  167SAPE   O1218800   6.944   2.926   6.066 -0.2622  0.0710 -0.1014
  167SAPE   O1118801   7.022   2.779   6.257 -0.0515  0.4176  0.5979
  167SAPE    C118802   6.956   2.685   6.344 -0.2274  0.2073  0.0669
  167SAPE    HA18803   6.845   2.693   6.338 -0.3458 -2.1010 -2.3899
  167SAPE    HB18804   6.986   2.583   6.315  0.7109  0.6933 -0.7108
  167SAPE    C218805   7.001   2.715   6.486 -0.7712 -0.0920 -0.2442
  167SAPE    HS18806   6.952   2.649   6.561 -0.1386  0.6054  0.8110
  167SAPE   O2118807   6.988   2.852   6.527 -0.3269  0.4221  0.1257
  167SAPE   C2118808   6.886   2.934   6.487 -0.0036  0.3634  0.4845
  167SAPE   O2218809   6.782   2.906   6.432  0.3312  0.1059 -0.1781
  167SAPE   C2218810   6.934   3.069   6.511  0.6937 -0.2591  0.1937
  167SAPE   H2R18811   7.015   3.095   6.439  2.2719 -1.7760  1.3632
  167SAPE   H2S18812   6.848   3.138   6.495 -0.2235 -0.7071  2.7178
  167SAPE    C318813   7.149   2.674   6.504  0.0302 -0.0274 -0.4228
  167SAPE    HX18814   7.209   2.729   6.428  0.7807  0.0818  0.2364
  167SAPE    HY18815   7.158   2.566   6.480  2.6561  0.0210  0.0760
  167SAPE   O3118816   7.193   2.704   6.641  0.1780  0.0683 -0.4955
  167SAPE   C3118817   7.306   2.773   6.656 -0.6770 -0.1793 -0.6894
  167SAPE   O3218818   7.395   2.800   6.576  0.3845  0.0977  0.1477
  167SAPE   C3218819   7.322   2.801   6.807  0.7716  0.1090 -0.1294
  167SAPE   H2X18820   7.280   2.713   6.858  2.8385 -0.0184  1.4789
  167SAPE   H2Y18821   7.252   2.885   6.828  1.1698  0.6763 -0.9968
  167SAPE   C2318822   6.973   3.100   6.659  0.2662  0.3411  0.2410
  167SAPE   H3R18823   7.071   3.050   6.674  0.6100  1.8013  3.8518
  167SAPE   H3S18824   6.894   3.040   6.711 -0.5054  0.8233 -0.3556
  167SAPE   C2418825   6.991   3.250   6.685  0.8335  0.3493 -0.1805
  167SAPE   H4R18826   7.046   3.280   6.594  0.5770  1.4547  0.0177
  167SAPE   H4S18827   7.056   3.262   6.774 -0.8659  0.8848  1.0355
  167SAPE   C2518828   6.855   3.323   6.704 -0.7174  0.4648  0.1156
  167SAPE   H5R18829   6.796   3.333   6.612 -0.2674  0.3083 -0.1939
  167SAPE   C2618830   6.799   3.361   6.820 -0.3374 -0.4298  0.5094
  167SAPE   H6R18831   6.704   3.416   6.815 -1.6216 -2.5926  0.2086
  167SAPE   C2718832   6.868   3.348   6.954  0.4783  0.2803 -0.1556
  167SAPE   H7R18833   6.949   3.273   6.942 -1.2063 -1.3787 -1.9443
  167SAPE   H7S18834   6.800   3.301   7.027  0.0482 -0.3271 -0.9263
  167SAPE   C2818835   6.924   3.478   6.999 -0.4800 -0.2254  0.9175
  167SAPE   H8R18836   6.914   3.565   6.933 -3.7502 -1.5220 -0.5470
  167SAPE   C2918837   6.971   3.497   7.127  0.0769  0.0102  0.4426
  167SAPE   H9R18838   7.004   3.600   7.146  1.8901 -0.3475 -0.5139
  167SAPE  C21018839   6.987   3.406   7.245 -0.0770 -0.6857 -0.0488
  167SAPE  H10R18840   7.034   3.463   7.327 -0.8812 -0.5622  0.3357
  167SAPE  H10S18841   7.056   3.322   7.220  0.2372 -0.4812  0.1317
  167SAPE  C21118842   6.854   3.351   7.283  0.2995 -0.3995 -0.1897
  167SAPE  H11R18843   6.781   3.396   7.215  1.0069  0.1064 -0.6249
  167SAPE  C21218844   6.823   3.254   7.370 -0.7775  0.1818  0.4055
  167SAPE  H12R18845   6.720   3.220   7.391 -1.5504  0.7052 -2.1872
  167SAPE  C21318846   6.927   3.184   7.454 -0.1040 -0.5352  0.2890
  167SAPE  H13R18847   7.000   3.140   7.384  0.7509 -2.8295  2.4531
  167SAPE  H13S18848   6.876   3.100   7.507 -1.9481  0.8655  0.8430
  167SAPE  C21418849   6.993   3.267   7.555 -0.2502  0.3343 -0.5866
  167SAPE  H14R18850   7.049   3.352   7.512  0.6766 -0.5165 -1.0939
  167SAPE  C21518851   7.014   3.241   7.686 -0.3260 -0.2988  0.1570
  167SAPE  H15R18852   7.038   3.326   7.752 -2.1222  0.1214  0.3161
  167SAPE  C21618853   6.964   3.119   7.763 -0.0021 -0.0294 -0.0607
  167SAPE  H16R18854   7.043   3.041   7.771  0.6005  0.3362 -1.9030
  167SAPE  H16S18855   6.882   3.068   7.708 -1.0059  1.8762 -0.4138
  167SAPE  C21718856   6.911   3.136   7.905  0.2686  0.1975  0.8333
  167SAPE  H17R18857   6.800   3.136   7.900  0.3409  0.2335 -1.5950
  167SAPE  H17S18858   6.963   3.226   7.945  0.5984  0.2094  0.3767
  167SAPE  C21818859   6.940   3.025   8.002  0.2853 -0.5184  0.2427
  167SAPE  H18R18860   7.049   3.007   8.010 -0.0139 -2.4636  0.3433
  167SAPE  H18S18861   6.905   2.931   7.953 -1.9772 -0.4438  1.5698
  167SAPE  C21918862   6.863   3.043   8.138  0.2734 -0.2294  0.5999
  167SAPE  H19R18863   6.899   2.975   8.218  2.4294  0.3737  0.2193
  167SAPE  H19S18864   6.759   3.016   8.111  0.2746 -1.0827  1.4026
  167SAPE  C22018865   6.864   3.188   8.201 -0.0250 -0.7028  0.2245
  167SAPE  H20R18866   6.966   3.221   8.228  1.3083 -3.1176 -1.4872
  167SAPE  H20S18867   6.792   3.190   8.286 -3.1580 -2.8085 -2.1405
  167SAPE  H20T18868   6.818   3.261   8.132 -1.2718 -1.3119  0.3791
  167SAPE   C3318869   7.468   2.827   6.858 -0.0457  0.5035  0.0764
  167SAPE   H3X18870   7.505   2.922   6.813  5.1549 -1.6377 -0.9056
  167SAPE   H3Y18871   7.538   2.750   6.819  0.2368  1.0501 -0.5360
  167SAPE   C3418872   7.482   2.837   7.007  0.6076  0.0841 -0.1672
  167SAPE   H4X18873   7.411   2.907   7.057 -0.0831 -1.5892  1.2988
  167SAPE   H4Y18874   7.581   2.879   7.035  1.1678  1.0170 -3.1461
  167SAPE   C3518875   7.471   2.702   7.085  0.0453 -0.2018  0.5992
  167SAPE   H5X18876   7.565   2.646   7.067 -0.4256 -0.6099 -0.7299
  167SAPE   H5Y18877   7.387   2.645   7.040 -0.3443  0.0874  0.9590
  167SAPE   C3618878   7.452   2.742   7.238 -0.3525 -0.1433  0.4102
  167SAPE   H6X18879   7.352   2.789   7.254 -0.0628  0.9877 -0.9051
  167SAPE   H6Y18880   7.526   2.824   7.250 -0.5576  0.7374 -3.1553
  167SAPE   C3718881   7.473   2.621   7.328  0.3067  0.1872  0.7249
  167SAPE   H7X18882   7.581   2.599   7.311  0.1523 -0.9334  1.1021
  167SAPE   H7Y18883   7.415   2.532   7.297  0.6593  0.7810 -1.8656
  167SAPE   C3818884   7.455   2.642   7.486 -0.5400  0.2094 -0.1295
  167SAPE   H8X18885   7.350   2.670   7.509 -0.7940 -0.9273  0.1421
  167SAPE   H8Y18886   7.522   2.727   7.511 -0.5640  1.5423 -3.9519
  167SAPE   C3918887   7.477   2.514   7.560 -0.2764 -0.0828  0.1451
  167SAPE   H9X18888   7.582   2.480   7.559  0.4463  1.8753  1.9685
  167SAPE   H9Y18889   7.421   2.429   7.515  1.5977 -1.1302 -0.2877
  167SAPE  C31018890   7.410   2.532   7.696 -0.2400  0.0665 -0.2813
  167SAPE  H10X18891   7.304   2.498   7.689 -0.1488 -0.0282 -1.2763
  167SAPE  H10Y18892   7.411   2.637   7.732 -1.1305 -0.3797  1.1375
  167SAPE  C31118893   7.484   2.448   7.800  1.0621  0.5087 -0.5032
  167SAPE  H11X18894   7.592   2.472   7.790  1.1419  0.6412  0.6364
  167SAPE  H11Y18895   7.472   2.339   7.777 -1.8660  0.6238  0.1275
  167SAPE  C31218896   7.443   2.487   7.943  0.5393 -0.1484  0.0565
  167SAPE  H12X18897   7.334   2.483   7.959  0.1243  0.1704 -2.3535
  167SAPE  H12Y18898   7.466   2.592   7.971  0.1611 -1.0984  4.6747
  167SAPE  C31318899   7.508   2.402   8.049  0.0282  0.5415 -0.5311
  167SAPE  H13X18900   7.617   2.411   8.029  0.2751  1.3407  1.0241
  167SAPE  H13Y18901   7.474   2.297   8.036  1.1239  0.2386 -1.0527
  167SAPE  C31418902   7.473   2.447   8.188 -0.3852  0.5094 -0.3427
  167SAPE  H14X18903   7.372   2.428   8.231  1.5822 -2.6465  3.5255
  167SAPE  H14Y18904   7.494   2.556   8.182 -1.1371  0.5604 -2.8197
  167SAPE  C31518905   7.575   2.391   8.286 -0.5683  0.9038 -0.4755
  167SAPE  H15X18906   7.577   2.460   8.374  1.7047  1.7482 -1.1231
  167SAPE  H15Y18907   7.678   2.408   8.249  0.0548  1.2762  1.3130
  167SAPE  C31618908   7.563   2.245   8.338 -0.1700 -1.2193 -0.3437
  167SAPE  H16X18909   7.457   2.212   8.336 -0.4852 -0.3320  0.9074
  167SAPE  H16Y18910   7.608   2.227   8.438  1.1716  1.1154 -0.4502
  167SAPE  C31718911   7.647   2.146   8.253  0.5308 -0.4237  0.7308
  167SAPE  H17X18912   7.617   2.147   8.146 -0.6618 -2.8230  0.9869
  167SAPE  H17Y18913   7.640   2.042   8.291 -1.6583 -1.1049 -1.3553
  167SAPE  C31818914   7.795   2.176   8.255  0.1911  0.4599 -0.0308
  167SAPE  H18X18915   7.841   2.099   8.188 -0.9367  0.5590 -0.9450
  167SAPE  H18Y18916   7.842   2.175   8.356  0.2007 -1.0490 -0.0178
  167SAPE  H18Z18917   7.817   2.277   8.215  0.5097  1.4495  2.4828
  168SAPE     N18918   2.678   5.933   6.363  0.2859  0.0016  0.2388
  168SAPE   HN118919   2.718   6.019   6.320  1.5115 -0.9097 -0.5326
  168SAPE   HN218920   2.645   5.867   6.291  0.4785  0.7509 -0.5517
  168SAPE   HN318921   2.597   5.963   6.421 -0.1057 -1.4200  0.4652
  168SAPE   C1218922   2.779   5.856   6.436  0.4547 -0.1870 -0.1979
  168SAPE  H12A18923   2.826   5.919   6.515  1.4628 -1.0077 -0.1287
  168SAPE  H12B18924   2.847   5.804   6.366  3.1132  1.1490  1.2410
  168SAPE   C1118925   2.703   5.747   6.515 -0.0460 -0.3655  0.1776
  168SAPE  H11A18926   2.631   5.788   6.589 -2.1468 -2.2180 -0.7226
  168SAPE  H11B18927   2.785   5.686   6.560  0.4367  0.8700  1.0264
  168SAPE     P18928   2.607   5.534   6.392 -0.0648 -0.0061  0.3320
  168SAPE   O1318929   2.477   5.494   6.339 -0.5546  0.0207 -0.1363
  168SAPE   O1418930   2.726   5.501   6.310  0.1346  0.0915  0.3032
  168SAPE   O1218931   2.602   5.680   6.434 -0.1121  0.0517 -0.4958
  168SAPE   O1118932   2.633   5.470   6.530  0.7072 -0.0035 -0.2793
  168SAPE    C118933   2.543   5.484   6.642 -0.3051 -0.1978  1.1571
  168SAPE    HA18934   2.601   5.537   6.720 -1.7282  0.1222  2.0231
  168SAPE    HB18935   2.452   5.543   6.619 -1.8462 -1.9205  2.5164
  168SAPE    C218936   2.491   5.342   6.703 -0.3596 -0.4400  0.0186
  168SAPE    HS18937   2.417   5.298   6.633  1.1233 -0.0998 -1.8798
  168SAPE   O2118938   2.440   5.350   6.837  1.2299 -0.7483 -0.3054
  168SAPE   C2118939   2.346   5.431   6.865  0.0182 -0.0040 -0.5147
  168SAPE   O2218940   2.286   5.500   6.789  0.1923 -0.6194 -0.1883
  168SAPE   C2218941   2.311   5.433   7.021  0.2941  0.5307  0.3278
  168SAPE   H2R18942   2.321   5.328   7.055 -0.6223 -0.0143 -0.9841
  168SAPE   H2S18943   2.369   5.504   7.085  1.7732  0.8535 -1.2937
  168SAPE    C318944   2.599   5.230   6.700  0.9237 -0.0657 -0.5748
  168SAPE    HX18945   2.622   5.206   6.594 -1.2884  1.5686 -1.5162
  168SAPE    HY18946   2.562   5.136   6.744  2.8838 -0.4036  0.4565
  168SAPE   O3118947   2.716   5.281   6.772  0.0927 -0.4865  0.1642
  168SAPE   C3118948   2.815   5.188   6.772  0.2327  0.8233  0.4987
  168SAPE   O3218949   2.814   5.088   6.701 -0.3722 -0.9240  0.4627
  168SAPE   C3218950   2.923   5.215   6.887  0.6973  0.5106  0.0754
  168SAPE   H2X18951   2.864   5.226   6.980  2.0729  0.6002  0.9661
  168SAPE   H2Y18952   2.969   5.314   6.862  1.3800 -0.2507 -1.9402
  168SAPE   C2318953   2.161   5.461   7.049  0.0181 -0.5448 -0.4607
  168SAPE   H3R18954   2.092   5.395   6.993 -1.2840 -0.7253  1.2867
  168SAPE   H3S18955   2.134   5.565   7.019  0.3927 -0.2812  0.0884
  168SAPE   C2418956   2.115   5.434   7.191 -0.3658 -0.1446  0.1919
  168SAPE   H4R18957   2.019   5.484   7.217  0.4054  1.1286  0.7140
  168SAPE   H4S18958   2.189   5.482   7.259  0.6144  1.5394 -1.9312
  168SAPE   C2518959   2.080   5.291   7.229 -0.1309 -0.4193 -0.3686
  168SAPE   H5R18960   2.027   5.241   7.147  2.7355  1.6524 -3.8379
  168SAPE   C2618961   2.100   5.229   7.348 -0.6943 -0.3831 -0.8280
  168SAPE   H6R18962   2.067   5.125   7.355 -1.7205 -0.0180  0.0348
  168SAPE   C2718963   2.166   5.282   7.475 -0.1949 -0.8032  0.0538
  168SAPE   H7R18964   2.107   5.287   7.569 -1.6158 -1.7990 -0.7278
  168SAPE   H7S18965   2.198   5.385   7.447  0.1051 -0.5500  1.2987
  168SAPE   C2818966   2.289   5.199   7.493  0.3594  0.6890 -0.1002
  168SAPE   H8R18967   2.311   5.139   7.403 -3.4039 -1.3802  0.1394
  168SAPE   C2918968   2.363   5.179   7.609 -0.7910  0.1333  0.0184
  168SAPE   H9R18969   2.441   5.103   7.603  0.1132  1.0446  0.0144
  168SAPE  C21018970   2.339   5.258   7.732 -0.1632 -0.1356 -0.3578
  168SAPE  H10R18971   2.372   5.202   7.822  0.9338 -0.9744 -1.2459
  168SAPE  H10S18972   2.229   5.270   7.734 -0.2004 -0.0501 -1.5840
  168SAPE  C21118973   2.400   5.397   7.740 -0.5970  0.5068 -0.6822
  168SAPE  H11R18974   2.414   5.441   7.640  1.9480  0.4671 -0.4049
  168SAPE  C21218975   2.438   5.465   7.852  0.2101 -0.6081 -0.0934
  168SAPE  H12R18976   2.462   5.571   7.837 -0.1120 -0.3713  0.9743
  168SAPE  C21318977   2.427   5.413   7.992 -0.1338 -0.3074 -0.3659
  168SAPE  H13R18978   2.340   5.346   8.005  0.1186 -0.1646  2.5701
  168SAPE  H13S18979   2.405   5.499   8.059 -1.8415 -0.6239 -0.4764
  168SAPE  C21418980   2.555   5.336   8.025  0.0980 -0.4410  0.5073
  168SAPE  H14R18981   2.600   5.282   7.940 -0.2374  0.4430 -0.2516
  168SAPE  C21518982   2.637   5.362   8.129 -1.2388 -0.2537 -0.2624
  168SAPE  H15R18983   2.731   5.308   8.147 -1.8604 -1.1034  0.5029
  168SAPE  C21618984   2.604   5.451   8.244 -0.2341  0.5531  0.1467
  168SAPE  H16R18985   2.501   5.492   8.239 -0.2811  0.3980 -0.1841
  168SAPE  H16S18986   2.672   5.537   8.259  0.8601 -0.0502 -1.2244
  168SAPE  C21718987   2.637   5.377   8.379  0.5601 -0.1666 -0.0730
  168SAPE  H17R18988   2.572   5.292   8.408 -0.5151  0.9194  0.8063
  168SAPE  H17S18989   2.610   5.446   8.462 -1.2370 -0.8666 -0.0374
  168SAPE  C21818990   2.782   5.333   8.407  0.5936  0.3004 -0.1451
  168SAPE  H18R18991   2.850   5.420   8.419 -0.7194  1.4326 -0.6128
  168SAPE  H18S18992   2.829   5.285   8.319 -2.0034  0.9452 -1.9847
  168SAPE  C21918993   2.779   5.242   8.524  0.6047 -0.3683 -0.1551
  168SAPE  H19R18994   2.720   5.148   8.510  1.0769 -1.0169  1.7900
  168SAPE  H19S18995   2.720   5.296   8.602  1.8503 -0.7311  1.0867
  168SAPE  C22018996   2.921   5.228   8.575  0.4269  0.7358 -0.5182
  168SAPE  H20R18997   2.974   5.326   8.575 -1.2373  1.7301  1.4457
  168SAPE  H20S18998   2.987   5.145   8.545  1.1555  0.4278  1.7578
  168SAPE  H20T18999   2.893   5.196   8.678 -4.8128 -1.1658 -2.1997
  168SAPE   C3319000   3.027   5.115   6.919 -0.8306 -0.1139 -0.8749
  168SAPE   H3X19001   3.106   5.122   6.840 -1.0441 -2.2693 -1.3360
  168SAPE   H3Y19002   2.983   5.014   6.908  1.6981 -1.4651  0.3849
  168SAPE   C3419003   3.083   5.131   7.058  0.2990 -0.1661 -0.3208
  168SAPE   H4X19004   3.129   5.036   7.093 -1.2994 -1.3411 -1.2361
  168SAPE   H4Y19005   3.003   5.156   7.130 -0.9630 -2.2532 -0.9185
  168SAPE   C3519006   3.196   5.238   7.075  0.3826  0.3617  0.1664
  168SAPE   H5X19007   3.147   5.337   7.068 -0.7345 -0.2339 -0.9371
  168SAPE   H5Y19008   3.270   5.234   6.992 -1.2556  2.0250 -1.4621
  168SAPE   C3619009   3.274   5.223   7.206  0.6947 -0.1238  0.3599
  168SAPE   H6X19010   3.310   5.118   7.216 -1.0900 -0.6169  2.2256
  168SAPE   H6Y19011   3.210   5.237   7.295  1.2192 -1.5568  0.9902
  168SAPE   C3719012   3.391   5.316   7.247  0.0055  0.0817  0.0625
  168SAPE   H7X19013   3.338   5.410   7.273 -2.8659 -1.5598  0.5263
  168SAPE   H7Y19014   3.445   5.336   7.152  0.4723  2.4257  0.7507
  168SAPE   C3819015   3.472   5.268   7.364 -0.0779  0.3201 -0.1732
  168SAPE   H8X19016   3.545   5.339   7.408  0.3356 -0.7574  0.9533
  168SAPE   H8Y19017   3.534   5.177   7.347 -1.9143 -0.8388 -0.9794
  168SAPE   C3919018   3.375   5.231   7.485  0.4248  0.0126 -0.0875
  168SAPE   H9X19019   3.346   5.125   7.469  1.0197 -0.1847  0.1366
  168SAPE   H9Y19020   3.286   5.298   7.485  1.6240  1.6682  0.6450
  168SAPE  C31019021   3.435   5.244   7.624 -0.2624 -0.0010 -0.1045
  168SAPE  H10X19022   3.456   5.352   7.639 -1.7862  0.3357 -0.2523
  168SAPE  H10Y19023   3.530   5.187   7.639 -0.9972 -1.0164  0.8295
  168SAPE  C31119024   3.328   5.221   7.734 -0.1181  0.4010  0.2731
  168SAPE  H11X19025   3.315   5.112   7.750 -2.1466  0.4096 -1.0720
  168SAPE  H11Y19026   3.233   5.260   7.693  0.0913 -0.6841 -1.3394
  168SAPE  C31219027   3.377   5.292   7.862 -0.3604 -0.1420 -0.0295
  168SAPE  H12X19028   3.440   5.383   7.853 -1.2051  0.3258 -1.6159
  168SAPE  H12Y19029   3.424   5.209   7.918 -2.7744 -2.4026 -1.1422
  168SAPE  C31319030   3.252   5.323   7.958 -0.2195 -0.7304  0.2914
  168SAPE  H13X19031   3.187   5.233   7.960  0.6620 -1.3609  1.2203
  168SAPE  H13Y19032   3.198   5.402   7.900 -0.7221 -1.2205  0.0772
  168SAPE  C31419033   3.289   5.369   8.105 -0.2006 -0.0352 -0.6801
  168SAPE  H14X19034   3.292   5.480   8.103  2.0898 -0.0511 -1.5246
  168SAPE  H14Y19035   3.396   5.353   8.132 -0.2884  0.8094  0.2210
  168SAPE  C31519036   3.191   5.319   8.203  0.3450  0.6391  0.1803
  168SAPE  H15X19037   3.167   5.213   8.180  0.4775  0.3503  1.2919
  168SAPE  H15Y19038   3.095   5.375   8.216  0.7474  1.2212  0.7072
  168SAPE  C31619039   3.226   5.323   8.354 -0.3285 -0.3330  0.5390
  168SAPE  H16X19040   3.329   5.285   8.371  0.9807  2.1245 -1.2350
  168SAPE  H16Y19041   3.147   5.265   8.406 -0.9741 -1.5645 -1.6600
  168SAPE  C31719042   3.235   5.468   8.407 -0.2741 -0.1665  0.0090
  168SAPE  H17X19043   3.134   5.512   8.418  0.1799  0.6251  1.1744
  168SAPE  H17Y19044   3.292   5.525   8.331 -1.7851  0.4726 -0.6849
  168SAPE  C31819045   3.292   5.477   8.550 -0.4273  0.0255  0.7313
  168SAPE  H18X19046   3.239   5.406   8.617  2.2263 -2.4971  0.3621
  168SAPE  H18Y19047   3.272   5.580   8.587  0.0211  0.2810  0.2704
  168SAPE  H18Z19048   3.400   5.451   8.552  0.0864  1.6831 -1.3729
  169SAPE     N19049   0.944   0.650   6.389 -0.4292 -0.0458 -0.1244
  169SAPE   HN119050   0.864   0.593   6.422 -2.1287  2.9760  1.3551
  169SAPE   HN219051   1.013   0.661   6.465 -0.2028  1.4795 -0.5199
  169SAPE   HN319052   0.905   0.745   6.374  1.3192  0.9181  1.1051
  169SAPE   C1219053   1.006   0.605   6.248  0.0674  0.2745 -0.5271
  169SAPE  H12A19054   0.940   0.647   6.169  0.0206 -2.5531 -2.1503
  169SAPE  H12B19055   1.004   0.494   6.253 -2.4015  0.2051 -1.6281
  169SAPE   C1119056   1.150   0.666   6.232  0.6141 -0.1767  0.3433
  169SAPE  H11A19057   1.186   0.642   6.129 -0.3447  1.8576 -0.5032
  169SAPE  H11B19058   1.214   0.620   6.310  2.3833 -2.2271 -2.1072
  169SAPE     P19059   1.264   0.902   6.229  0.1452  0.1064 -0.0862
  169SAPE   O1319060   1.375   0.815   6.181  0.6886  0.1595 -0.0680
  169SAPE   O1419061   1.239   1.012   6.136  0.5056  0.1413  0.4001
  169SAPE   O1219062   1.139   0.810   6.241  0.5010  0.2137  0.1571
  169SAPE   O1119063   1.295   0.967   6.375 -0.0241 -0.7103  0.5405
  169SAPE    C119064   1.242   0.911   6.486  0.1888 -0.1025  0.1641
  169SAPE    HA19065   1.234   0.984   6.569 -0.2667 -0.2291  0.2351
  169SAPE    HB19066   1.134   0.888   6.469  0.4702 -1.0857 -0.3485
  169SAPE    C219067   1.332   0.805   6.551  0.4308 -0.0310 -0.2308
  169SAPE    HS19068   1.320   0.714   6.488  0.0035 -0.0938 -0.0666
  169SAPE   O2119069   1.298   0.774   6.685 -0.3838  0.0654 -0.0779
  169SAPE   C2119070   1.186   0.723   6.703  0.1827  0.5771  0.2659
  169SAPE   O2219071   1.102   0.688   6.620 -0.0598  0.4450  0.3657
  169SAPE   C2219072   1.171   0.684   6.847 -0.1111 -0.5169 -0.1145
  169SAPE   H2R19073   1.204   0.770   6.909 -0.8711  0.1461 -0.6136
  169SAPE   H2S19074   1.062   0.670   6.863 -0.4150 -0.4911 -1.9005
  169SAPE    C319075   1.486   0.845   6.548  0.3409 -0.3568  0.0763
  169SAPE    HX19076   1.497   0.944   6.596  0.0272  0.0311 -0.6347
  169SAPE    HY19077   1.517   0.849   6.441 -2.6274  0.0764 -0.8791
  169SAPE   O3119078   1.570   0.758   6.623  0.2888  0.4831 -0.0363
  169SAPE   C3119079   1.607   0.639   6.562  0.5017  0.1749  0.1094
  169SAPE   O3219080   1.570   0.607   6.450  0.5101 -0.9421  0.1177
  169SAPE   C3219081   1.694   0.556   6.664  0.5468 -0.5460 -0.3149
  169SAPE   H2X19082   1.672   0.591   6.767 -0.5215 -1.5946 -0.1604
  169SAPE   H2Y19083   1.804   0.563   6.651  1.3602 -1.3360  4.2944
  169SAPE   C2319084   1.246   0.556   6.876  0.0461 -0.4451 -0.1391
  169SAPE   H3R19085   1.244   0.491   6.786  0.7522  0.7333 -1.0270
  169SAPE   H3S19086   1.197   0.504   6.962 -1.2956 -2.0390 -1.7839
  169SAPE   C2419087   1.394   0.582   6.926  0.0169  0.7932  0.9034
  169SAPE   H4R19088   1.447   0.639   6.847  0.0148  0.8977  0.9773
  169SAPE   H4S19089   1.436   0.480   6.940 -1.2784  0.0611 -0.2596
  169SAPE   C2519090   1.403   0.661   7.050 -0.9894 -0.2820 -0.9722
  169SAPE   H5R19091   1.400   0.768   7.026  0.4165 -0.2579 -1.1196
  169SAPE   C2619092   1.382   0.628   7.179 -0.0542  0.1457 -0.2316
  169SAPE   H6R19093   1.387   0.716   7.245  0.3130  1.2395 -1.6562
  169SAPE   C2719094   1.355   0.489   7.234  0.6400  0.0048 -0.5255
  169SAPE   H7R19095   1.445   0.457   7.291  0.1261 -1.7752 -0.6655
  169SAPE   H7S19096   1.347   0.407   7.160 -1.3877 -1.2182  0.9105
  169SAPE   C2819097   1.231   0.490   7.316  0.1506  0.3779 -0.2245
  169SAPE   H8R19098   1.136   0.472   7.262  0.2064  0.6773 -0.4270
  169SAPE   C2919099   1.224   0.482   7.453  0.4435 -0.1345  0.1091
  169SAPE   H9R19100   1.125   0.487   7.501 -0.2251  1.3322 -1.3257
  169SAPE  C21019101   1.343   0.481   7.547  0.1013  0.1158  0.1251
  169SAPE  H10R19102   1.327   0.565   7.618  0.2991 -1.5936  2.2888
  169SAPE  H10S19103   1.435   0.515   7.494 -0.7830 -0.5744 -1.9761
  169SAPE  C21119104   1.357   0.351   7.624 -0.0444 -0.4614 -0.3533
  169SAPE  H11R19105   1.365   0.269   7.551  1.7547  0.3998 -1.1898
  169SAPE  C21219106   1.358   0.323   7.759  0.0343 -0.4387  0.7371
  169SAPE  H12R19107   1.373   0.220   7.795  1.1096 -0.0307  1.5198
  169SAPE  C21319108   1.348   0.419   7.874  0.4560  0.2218  0.4892
  169SAPE  H13R19109   1.258   0.392   7.934 -2.9191  1.8099 -3.3884
  169SAPE  H13S19110   1.331   0.525   7.847  0.3887 -0.0335 -0.5133
  169SAPE  C21419111   1.475   0.403   7.951  0.3640 -0.1554  0.6396
  169SAPE  H14R19112   1.562   0.462   7.919 -1.2915  2.4795  0.6497
  169SAPE  C21519113   1.501   0.332   8.062 -0.4296  0.6893 -0.1298
  169SAPE  H15R19114   1.607   0.334   8.091 -1.0568  0.3622  2.4839
  169SAPE  C21619115   1.396   0.250   8.126 -0.6062  0.5339  0.1479
  169SAPE  H16R19116   1.452   0.156   8.148 -1.7180  0.0094  0.8371
  169SAPE  H16S19117   1.304   0.219   8.072 -2.3589  1.2347  2.5502
  169SAPE  C21719118   1.348   0.318   8.259  0.7722 -0.3744 -0.1759
  169SAPE  H17R19119   1.433   0.346   8.325  2.1567 -3.3723 -0.5491
  169SAPE  H17S19120   1.284   0.242   8.308 -1.5374  1.0492 -0.8172
  169SAPE  C21819121   1.247   0.428   8.222  0.0764  0.5446 -0.1253
  169SAPE  H18R19122   1.167   0.378   8.162  0.7889 -2.2862  1.1103
  169SAPE  H18S19123   1.286   0.513   8.162  0.9866  0.0055 -0.3161
  169SAPE  C21919124   1.176   0.486   8.343 -0.5665 -0.2919  0.8282
  169SAPE  H19R19125   1.111   0.409   8.388  1.3448 -1.0243  2.5455
  169SAPE  H19S19126   1.113   0.570   8.307  1.0696  0.5294 -0.2319
  169SAPE  C22019127   1.270   0.542   8.447  0.3796 -0.6203 -0.4741
  169SAPE  H20R19128   1.326   0.462   8.501 -0.6889 -1.1832 -0.1826
  169SAPE  H20S19129   1.206   0.607   8.510  0.8546  0.3103 -0.9287
  169SAPE  H20T19130   1.344   0.608   8.396  1.6871  0.5346  2.6798
  169SAPE   C3319131   1.645   0.403   6.662  0.2401 -0.4995  0.7417
  169SAPE   H3X19132   1.687   0.366   6.566  1.2712  0.5845  0.7497
  169SAPE   H3Y19133   1.536   0.390   6.651  0.1373  1.9196 -3.8935
  169SAPE   C3419134   1.718   0.299   6.749 -0.1257 -0.8846 -0.7295
  169SAPE   H4X19135   1.817   0.272   6.707 -1.2789 -3.5114 -1.9920
  169SAPE   H4Y19136   1.650   0.211   6.747  0.5960 -1.4797 -0.0664
  169SAPE   C3519137   1.727   0.336   6.899 -0.9046  0.4370  0.0914
  169SAPE   H5X19138   1.628   0.373   6.931 -1.6618  0.3212 -1.9208
  169SAPE   H5Y19139   1.802   0.417   6.909 -0.4095 -0.1032  0.8100
  169SAPE   C3619140   1.759   0.206   6.976 -0.6274  0.2014  0.3384
  169SAPE   H6X19141   1.859   0.172   6.943  0.1009  1.3614  1.2751
  169SAPE   H6Y19142   1.681   0.129   6.959  1.0857 -1.9425  1.6764
  169SAPE   C3719143   1.774   0.209   7.126  0.1448 -0.5334 -1.1258
  169SAPE   H7X19144   1.832   0.292   7.171 -2.4900 -0.7188  3.0860
  169SAPE   H7Y19145   1.821   0.113   7.159 -1.5979 -1.3356 -0.8675
  169SAPE   C3819146   1.640   0.206   7.202 -0.3367  0.0692  0.4088
  169SAPE   H8X19147   1.580   0.117   7.173  1.9725 -0.9945 -1.3720
  169SAPE   H8Y19148   1.581   0.291   7.161  1.3057  0.6121 -0.9370
  169SAPE   C3919149   1.643   0.235   7.353 -0.0295 -0.1157 -0.1398
  169SAPE   H9X19150   1.535   0.239   7.377 -0.3856  0.1912 -1.6606
  169SAPE   H9Y19151   1.676   0.338   7.378 -2.6464  0.8312 -0.2465
  169SAPE  C31019152   1.725   0.134   7.440  0.2186  0.2320  0.7340
  169SAPE  H10X19153   1.830   0.168   7.436  0.0167  0.8088  0.0371
  169SAPE  H10Y19154   1.716   0.032   7.396 -1.9849  0.7057 -0.0554
  169SAPE  C31119155   1.676   0.139   7.587  0.2206  0.0018 -0.2570
  169SAPE  H11X19156   1.571   0.101   7.578  0.8945 -2.2344  0.5225
  169SAPE  H11Y19157   1.675   0.243   7.625  1.5565 -0.3581  0.8525
  169SAPE  C31219158   1.760   0.043   7.684  0.3029  0.0717 -0.6438
  169SAPE  H12X19159   1.866   0.076   7.678  0.2348  1.0009  1.7722
  169SAPE  H12Y19160   1.753  -0.062   7.651  0.4626 -0.7852  1.8138
  169SAPE  C31319161   1.710   0.048   7.832  0.1710 -0.4241  0.1288
  169SAPE  H13X19162   1.626  -0.024   7.836 -0.6320  0.5071  0.1967
  169SAPE  H13Y19163   1.667   0.147   7.856  1.2928 -0.3656  2.1245
  169SAPE  C31419164   1.816   0.018   7.935 -0.2837  0.0643 -0.3120
  169SAPE  H14X19165   1.895   0.096   7.930 -0.0409  0.0954  2.5126
  169SAPE  H14Y19166   1.862  -0.079   7.905 -0.1581  0.3635 -1.1262
  169SAPE  C31519167   1.763   0.028   8.073 -0.1315  0.4259 -0.3169
  169SAPE  H15X19168   1.699  -0.056   8.106 -0.3221 -1.0091 -3.9191
  169SAPE  H15Y19169   1.710   0.126   8.079  0.4552  0.9294 -2.5388
  169SAPE  C31619170   1.881   0.045   8.175  0.2313  0.7584  0.6235
  169SAPE  H16X19171   1.948   0.120   8.128 -1.0887  0.0887 -2.5529
  169SAPE  H16Y19172   1.939  -0.049   8.168 -1.0044  0.1083 -3.5150
  169SAPE  C31719173   1.824   0.096   8.307  0.5162  0.5867  0.4367
  169SAPE  H17X19174   1.751   0.177   8.286 -1.2163 -0.9785  0.1741
  169SAPE  H17Y19175   1.913   0.147   8.348  1.2056  1.0074 -1.4875
  169SAPE  C31819176   1.766  -0.010   8.403 -0.4100 -0.0988  0.4939
  169SAPE  H18X19177   1.734   0.033   8.500  0.4110 -0.1686  0.8058
  169SAPE  H18Y19178   1.829  -0.102   8.410  1.1023  0.8438 -0.0420
  169SAPE  H18Z19179   1.666  -0.036   8.364 -1.0631  3.2361 -0.3612
  170SAPE     N19180   2.696   3.047   6.224  0.0864  0.1570  0.0446
  170SAPE   HN119181   2.773   3.082   6.164  1.0772  0.8343  1.6436
  170SAPE   HN219182   2.742   2.991   6.298 -1.6810  1.4948  2.2921
  170SAPE   HN319183   2.633   2.982   6.172 -0.3261  1.3092 -0.9433
  170SAPE   C1219184   2.624   3.167   6.287 -0.2953 -0.5475 -0.8001
  170SAPE  H12A19185   2.673   3.188   6.384  3.1065  2.6932 -2.9534
  170SAPE  H12B19186   2.525   3.129   6.321 -0.4565  0.2594 -0.3430
  170SAPE   C1119187   2.619   3.286   6.199 -0.5993  0.1404  0.3996
  170SAPE  H11A19188   2.566   3.370   6.250 -1.1921 -0.5120  0.8815
  170SAPE  H11B19189   2.548   3.245   6.123 -1.6671 -1.4847  2.1964
  170SAPE     P19190   2.854   3.380   6.243 -0.0557 -0.6452  0.1095
  170SAPE   O1319191   2.901   3.266   6.322  0.6462  0.2000 -0.0573
  170SAPE   O1419192   2.953   3.463   6.164  0.0268  0.3386 -0.5804
  170SAPE   O1219193   2.745   3.319   6.144  0.5783  0.4535  0.1596
  170SAPE   O1119194   2.775   3.486   6.341  0.2962  0.1163 -0.8582
  170SAPE    C119195   2.829   3.515   6.471  0.8678 -0.3261  0.8495
  170SAPE    HA19196   2.939   3.526   6.467  0.7239  1.8226  1.4847
  170SAPE    HB19197   2.779   3.608   6.506  1.4243 -0.3016  1.6135
  170SAPE    C219198   2.775   3.418   6.582 -0.2850 -0.7842 -0.1511
  170SAPE    HS19199   2.807   3.314   6.558  0.0536 -0.6200 -0.4169
  170SAPE   O2119200   2.632   3.422   6.570  0.2259  0.0838 -0.1205
  170SAPE   C2119201   2.573   3.303   6.593  0.6973 -0.7453  0.5238
  170SAPE   O2219202   2.627   3.203   6.631  0.4948  0.2173 -0.0362
  170SAPE   C2219203   2.429   3.325   6.548 -0.0536  0.0044 -0.5665
  170SAPE   H2R19204   2.383   3.402   6.613 -1.6548 -2.1288  0.9725
  170SAPE   H2S19205   2.434   3.373   6.448  0.0791 -1.5386 -1.3416
  170SAPE    C319206   2.840   3.472   6.713  0.4034  0.5452  0.3518
  170SAPE    HX19207   2.795   3.574   6.715 -3.4120 -0.9068 -1.1303
  170SAPE    HY19208   2.951   3.478   6.709  0.4310  1.2594  1.6801
  170SAPE   O3119209   2.790   3.393   6.830  0.3041 -0.1169 -0.0733
  170SAPE   C3119210   2.842   3.272   6.839 -0.3581 -0.1494  0.0226
  170SAPE   O3219211   2.917   3.222   6.763  0.6818  1.0907 -0.0909
  170SAPE   C3219212   2.784   3.208   6.965  0.2599  0.0453  0.6331
  170SAPE   H2X19213   2.784   3.097   6.960 -3.0963 -0.0205 -1.7564
  170SAPE   H2Y19214   2.675   3.226   6.974  0.5224  0.6791  3.3986
  170SAPE   C2319215   2.343   3.195   6.553 -0.1485 -0.0514 -0.0662
  170SAPE   H3R19216   2.394   3.103   6.520  0.8778  0.6417 -0.4697
  170SAPE   H3S19217   2.251   3.212   6.492 -0.4346  0.8089  0.5755
  170SAPE   C2419218   2.290   3.174   6.706  0.4223 -0.1427 -0.4813
  170SAPE   H4R19219   2.205   3.103   6.693  0.5439 -0.1151 -1.5507
  170SAPE   H4S19220   2.246   3.271   6.738  1.8029  0.0172  1.0286
  170SAPE   C2519221   2.386   3.104   6.802  0.0157 -0.0779 -0.0476
  170SAPE   H5R19222   2.472   3.059   6.750  0.8828  1.1227  0.2899
  170SAPE   C2619223   2.382   3.095   6.936 -0.1609 -0.3379  0.4708
  170SAPE   H6R19224   2.471   3.049   6.981 -0.1688 -0.5320  0.2872
  170SAPE   C2719225   2.279   3.163   7.023  0.0512  0.0554 -0.1364
  170SAPE   H7R19226   2.225   3.093   7.091  1.7374 -0.4988  0.7085
  170SAPE   H7S19227   2.193   3.196   6.961  1.5898  0.0860 -2.3419
  170SAPE   C2819228   2.345   3.279   7.101  0.0382  0.0837 -0.3301
  170SAPE   H8R19229   2.400   3.361   7.052  1.1208  1.0234  2.2803
  170SAPE   C2919230   2.336   3.300   7.233 -0.1206  0.9327 -0.1119
  170SAPE   H9R19231   2.386   3.384   7.283 -0.1976  0.5913  0.5472
  170SAPE  C21019232   2.275   3.212   7.341 -0.1492  0.2765  0.5345
  170SAPE  H10R19233   2.176   3.171   7.313 -0.3633  1.1275  0.0203
  170SAPE  H10S19234   2.245   3.271   7.430 -1.7049 -0.5786  0.6090
  170SAPE  C21119235   2.354   3.086   7.377  0.1520  0.0884  0.0872
  170SAPE  H11R19236   2.428   3.051   7.303  0.9757  1.5989  0.1622
  170SAPE  C21219237   2.348   3.025   7.493  0.5553  0.1703 -0.2921
  170SAPE  H12R19238   2.408   2.935   7.511  2.0483  1.1698 -0.1375
  170SAPE  C21319239   2.253   3.071   7.606 -0.2168 -0.4598  0.1112
  170SAPE  H13R19240   2.189   2.984   7.633 -1.7350  0.5418 -0.1540
  170SAPE  H13S19241   2.183   3.155   7.584  1.5070  1.2484  0.8116
  170SAPE  C21419242   2.344   3.116   7.720  0.2822  0.6194  0.1564
  170SAPE  H14R19243   2.453   3.119   7.705  0.0914 -0.2592 -1.6354
  170SAPE  C21519244   2.299   3.154   7.844 -0.0369 -0.8205  0.1887
  170SAPE  H15R19245   2.375   3.196   7.912 -1.0882  0.9063  0.3367
  170SAPE  C21619246   2.154   3.155   7.880 -0.1250  0.5525 -1.4789
  170SAPE  H16R19247   2.095   3.101   7.803  0.0410 -1.8191 -0.0462
  170SAPE  H16S19248   2.129   3.263   7.881  1.2181  0.8831 -1.1454
  170SAPE  C21719249   2.120   3.107   8.028 -0.5518  0.3913  0.1958
  170SAPE  H17R19250   2.011   3.120   8.049 -0.4559  0.8327  0.4223
  170SAPE  H17S19251   2.189   3.162   8.095  2.8692  0.1821 -2.8665
  170SAPE  C21819252   2.148   2.956   8.045 -0.2567 -0.1534 -0.2725
  170SAPE  H18R19253   2.246   2.921   8.006 -0.2240  2.8111 -3.3237
  170SAPE  H18S19254   2.083   2.905   7.970  0.5244 -0.4200 -0.7764
  170SAPE  C21919255   2.119   2.903   8.184  0.0117  0.9509  0.0076
  170SAPE  H19R19256   2.017   2.933   8.217 -2.1899 -4.3874 -0.7820
  170SAPE  H19S19257   2.188   2.943   8.261  2.2005 -3.6489  0.8166
  170SAPE  C22019258   2.125   2.751   8.204  0.1078 -0.1586 -0.6095
  170SAPE  H20R19259   2.082   2.729   8.305  0.3223 -0.0149 -0.4860
  170SAPE  H20S19260   2.229   2.713   8.192  0.4710  0.7559 -0.4025
  170SAPE  H20T19261   2.061   2.701   8.129  0.2266 -3.2977  1.1793
  170SAPE   C3319262   2.854   3.230   7.100  0.2095 -0.2604  0.0026
  170SAPE   H3X19263   2.885   3.337   7.107  0.0056 -0.1499 -0.7095
  170SAPE   H3Y19264   2.948   3.171   7.102  0.4176  0.0644 -0.0269
  170SAPE   C3419265   2.772   3.202   7.227 -0.1281  0.4726 -0.0783
  170SAPE   H4X19266   2.742   3.095   7.220  1.3383  0.0440 -0.0510
  170SAPE   H4Y19267   2.681   3.266   7.233 -0.0323  0.7351 -1.2837
  170SAPE   C3519268   2.853   3.222   7.355 -0.4545  0.4253  0.2889
  170SAPE   H5X19269   2.896   3.324   7.355  0.6271  0.0053  2.2670
  170SAPE   H5Y19270   2.944   3.160   7.357  0.6067  1.9299  0.2481
  170SAPE   C3619271   2.763   3.197   7.476 -0.5344 -1.0941  0.0429
  170SAPE   H6X19272   2.745   3.088   7.489 -0.7463 -0.7350  4.0352
  170SAPE   H6Y19273   2.671   3.257   7.461 -0.4721 -1.5065 -2.3717
  170SAPE   C3719274   2.832   3.245   7.605 -0.3421 -0.5815  0.1151
  170SAPE   H7X19275   2.858   3.353   7.594 -0.1903 -0.7291 -1.1381
  170SAPE   H7Y19276   2.925   3.185   7.618  1.2208  1.9499  1.7158
  170SAPE   C3819277   2.727   3.237   7.714  0.3898 -0.0769  0.2165
  170SAPE   H8X19278   2.704   3.129   7.729  0.7644 -0.1348  0.4110
  170SAPE   H8Y19279   2.633   3.291   7.692 -0.2387  0.0760  2.9636
  170SAPE   C3919280   2.769   3.296   7.847 -0.3960 -0.2169  0.1572
  170SAPE   H9X19281   2.785   3.406   7.840 -0.0847 -0.1734  1.3727
  170SAPE   H9Y19282   2.868   3.252   7.870 -1.6255 -1.8516  2.8528
  170SAPE  C31019283   2.693   3.261   7.976  0.4211 -0.0812  0.0771
  170SAPE  H10X19284   2.586   3.288   7.962  0.3206 -0.0432  0.8728
  170SAPE  H10Y19285   2.732   3.331   8.052 -0.2200  0.7863 -0.3827
  170SAPE  C31119286   2.716   3.127   8.028  0.1713 -0.7832  0.4912
  170SAPE  H11X19287   2.825   3.113   8.048  0.7058 -0.3624 -1.7824
  170SAPE  H11Y19288   2.682   3.053   7.951 -0.6814 -0.8044  0.8865
  170SAPE  C31219289   2.638   3.112   8.157  0.0342  0.4862  0.0954
  170SAPE  H12X19290   2.527   3.118   8.157 -0.0801 -1.1619 -0.1475
  170SAPE  H12Y19291   2.666   3.193   8.228  0.2078 -1.6876  2.6556
  170SAPE  C31319292   2.683   2.985   8.225  0.2089 -0.6819  0.0697
  170SAPE  H13X19293   2.793   2.971   8.225  0.5119  1.1144  1.5902
  170SAPE  H13Y19294   2.651   2.898   8.165  0.6946 -1.3275  0.7287
  170SAPE  C31419295   2.629   2.981   8.369  0.1242 -0.0555  0.2177
  170SAPE  H14X19296   2.521   3.005   8.370 -0.2194 -1.3842 -1.3236
  170SAPE  H14Y19297   2.680   3.048   8.441 -1.4105 -0.2985  1.5917
  170SAPE  C31519298   2.628   2.832   8.417 -0.2320 -0.3474  0.9463
  170SAPE  H15X19299   2.612   2.825   8.526 -0.9832  1.3197  0.9568
  170SAPE  H15Y19300   2.718   2.780   8.376 -0.5707  0.9906 -1.6877
  170SAPE  C31619301   2.520   2.749   8.340  0.4147  0.7541  0.4069
  170SAPE  H16X19302   2.508   2.777   8.233 -4.0716  1.6971  0.9549
  170SAPE  H16Y19303   2.425   2.775   8.390 -1.2720 -0.1515 -2.0864
  170SAPE  C31719304   2.562   2.599   8.344 -0.5472  0.3200 -0.5749
  170SAPE  H17X19305   2.580   2.576   8.451 -0.2826  0.6385 -0.5489
  170SAPE  H17Y19306   2.655   2.586   8.284  0.4495 -0.2182  1.0272
  170SAPE  C31819307   2.463   2.499   8.290  0.2056  0.0978  0.0256
  170SAPE  H18X19308   2.428   2.523   8.187 -0.9637 -1.7582 -0.0721
  170SAPE  H18Y19309   2.377   2.507   8.361  0.4608  1.3948  0.2048
  170SAPE  H18Z19310   2.505   2.396   8.295  1.8870  0.7132 -0.7696
  171SAPE     N19311   4.106   4.741   6.193 -0.6331  0.0173 -0.1277
  171SAPE   HN119312   4.060   4.833   6.181 -0.7646  0.5127  3.0978
  171SAPE   HN219313   4.202   4.757   6.156 -1.0772  0.9399 -0.9140
  171SAPE   HN319314   4.052   4.676   6.133  0.2031  0.3295 -1.2508
  171SAPE   C1219315   4.097   4.713   6.335 -0.7993  0.4774  0.3148
  171SAPE  H12A19316   4.154   4.786   6.397 -0.8897  0.0002  0.9698
  171SAPE  H12B19317   4.148   4.616   6.351 -1.6110  0.1894  1.2871
  171SAPE   C1119318   3.957   4.701   6.380  0.3006 -0.4267  0.0955
  171SAPE  H11A19319   3.902   4.793   6.349 -1.9943 -1.5935  0.4535
  171SAPE  H11B19320   3.944   4.698   6.490  0.6158  1.5338  0.2183
  171SAPE     P19321   3.882   4.455   6.380 -0.2107  0.1180 -0.0310
  171SAPE   O1319322   3.808   4.371   6.283 -0.2884  0.5777  0.7116
  171SAPE   O1419323   4.019   4.415   6.421  0.3229  0.2792 -0.2920
  171SAPE   O1219324   3.890   4.600   6.318 -0.1612  0.0325 -0.6548
  171SAPE   O1119325   3.783   4.479   6.497 -0.4641  0.8944 -0.0156
  171SAPE    C119326   3.672   4.559   6.478  0.2769 -0.5149  0.0396
  171SAPE    HA19327   3.688   4.652   6.420 -1.8045 -0.7944 -1.0786
  171SAPE    HB19328   3.600   4.515   6.406 -2.7985  0.2460  2.4282
  171SAPE    C219329   3.598   4.591   6.610 -0.3061 -0.1048  0.2905
  171SAPE    HS19330   3.567   4.698   6.606  0.6385  0.1635 -0.3908
  171SAPE   O2119331   3.688   4.565   6.718  0.3014  0.2070 -0.8379
  171SAPE   C2119332   3.793   4.644   6.727  0.3018  0.1503  0.2042
  171SAPE   O2219333   3.809   4.747   6.671  0.1298 -0.7842  0.4422
  171SAPE   C2219334   3.908   4.578   6.807 -0.0079 -0.0138  0.2946
  171SAPE   H2R19335   3.927   4.481   6.756 -0.2663  0.3663 -0.5443
  171SAPE   H2S19336   4.002   4.636   6.803  2.0568 -3.2074 -1.8567
  171SAPE    C319337   3.478   4.503   6.629  0.7964  0.0201 -0.0734
  171SAPE    HX19338   3.499   4.395   6.609 -2.1455 -0.4688 -1.0127
  171SAPE    HY19339   3.398   4.536   6.559  0.1383  1.4503  1.2923
  171SAPE   O3119340   3.427   4.517   6.758 -0.3585  0.1822 -0.6270
  171SAPE   C3119341   3.426   4.410   6.841 -0.5615 -0.1092  0.6101
  171SAPE   O3219342   3.466   4.303   6.805 -0.1249 -0.5085 -0.0714
  171SAPE   C3219343   3.354   4.447   6.974  0.3607  0.0031 -0.0830
  171SAPE   H2X19344   3.245   4.461   6.957 -0.0008 -1.4562  0.8820
  171SAPE   H2Y19345   3.399   4.544   7.004 -0.7578  0.8216 -0.9752
  171SAPE   C2319346   3.874   4.562   6.953 -0.1507  0.5440 -0.1272
  171SAPE   H3R19347   3.929   4.481   7.006 -1.1068 -1.6522 -2.2794
  171SAPE   H3S19348   3.765   4.540   6.965  0.3798 -0.9225  3.2919
  171SAPE   C2419349   3.908   4.693   7.020 -0.0619 -0.4005 -0.5120
  171SAPE   H4R19350   3.862   4.773   6.958  0.6540 -0.1381 -0.7125
  171SAPE   H4S19351   4.019   4.694   7.018  0.0280  3.2817 -0.1812
  171SAPE   C2519352   3.851   4.691   7.160 -0.5355  0.1419 -0.4208
  171SAPE   H5R19353   3.742   4.688   7.177 -0.3970  0.6713  0.5910
  171SAPE   C2619354   3.922   4.691   7.279  0.0656 -0.1568 -0.3411
  171SAPE   H6R19355   3.862   4.679   7.371  0.3497  1.9632  0.1912
  171SAPE   C2719356   4.070   4.701   7.293  0.1040  0.0487 -0.1413
  171SAPE   H7R19357   4.093   4.779   7.368 -0.5120 -0.8253  0.9979
  171SAPE   H7S19358   4.122   4.728   7.199  0.5511 -0.8772 -0.1699
  171SAPE   C2819359   4.131   4.570   7.342 -0.2710  0.1656 -0.3468
  171SAPE   H8R19360   4.153   4.504   7.256 -1.4507 -0.2759 -0.3328
  171SAPE   C2919361   4.153   4.527   7.463  0.9589 -0.0324  0.1344
  171SAPE   H9R19362   4.208   4.432   7.480  0.6129 -0.1391  0.6623
  171SAPE  C21019363   4.129   4.596   7.594  0.4373  0.6749 -0.0048
  171SAPE  H10R19364   4.190   4.688   7.582  1.0264  0.3165  0.1800
  171SAPE  H10S19365   4.182   4.535   7.670 -0.7008  0.5445  0.7026
  171SAPE  C21119366   3.988   4.616   7.649  0.4599  1.2181  0.3086
  171SAPE  H11R19367   3.905   4.666   7.596 -1.4778  0.2190  2.2422
  171SAPE  C21219368   3.945   4.591   7.773 -1.0758  0.6569  0.9603
  171SAPE  H12R19369   3.841   4.614   7.800 -1.5057  2.5183 -1.9307
  171SAPE  C21319370   4.012   4.521   7.886  0.2474 -0.8788 -0.7618
  171SAPE  H13R19371   4.071   4.437   7.844 -0.3224 -2.3615  1.2267
  171SAPE  H13S19372   3.932   4.476   7.948  0.5026  1.4052  1.3761
  171SAPE  C21419373   4.091   4.620   7.969 -0.4913 -0.7969 -0.4202
  171SAPE  H14R19374   4.042   4.712   8.004 -0.7016 -0.7716 -0.7781
  171SAPE  C21519375   4.227   4.618   8.003 -0.2760 -0.1536  0.6486
  171SAPE  H15R19376   4.261   4.705   8.061 -0.8786  1.1831 -0.9212
  171SAPE  C21619377   4.327   4.510   7.957  0.0315 -0.2214  0.8359
  171SAPE  H16R19378   4.375   4.528   7.859 -2.6433 -1.6778 -0.8586
  171SAPE  H16S19379   4.268   4.416   7.947 -3.2479  1.6544  1.0639
  171SAPE  C21719380   4.436   4.494   8.065 -0.5478  0.2121 -0.1897
  171SAPE  H17R19381   4.383   4.465   8.158  0.0246 -0.4112 -0.0425
  171SAPE  H17S19382   4.480   4.594   8.083 -0.5223 -0.0079  1.1036
  171SAPE  C21819383   4.535   4.379   8.044 -0.7407 -0.6365 -0.5404
  171SAPE  H18R19384   4.591   4.387   7.949  0.4842 -1.0668  0.1309
  171SAPE  H18S19385   4.484   4.281   8.038  1.6166 -1.8692 -1.7608
  171SAPE  C21919386   4.644   4.367   8.157  0.6211  0.1018 -0.2185
  171SAPE  H19R19387   4.598   4.351   8.257 -1.4247  0.7166 -1.0230
  171SAPE  H19S19388   4.698   4.464   8.155 -0.1588  0.5660  0.6188
  171SAPE  C22019389   4.738   4.248   8.129  0.2080 -0.1809  0.0993
  171SAPE  H20R19390   4.836   4.260   8.180  0.3619 -0.1170 -0.2101
  171SAPE  H20S19391   4.774   4.241   8.024  3.1462 -2.6592  1.1183
  171SAPE  H20T19392   4.688   4.153   8.156 -0.0407  0.3612  1.6817
  171SAPE   C3319393   3.387   4.351   7.096  0.4518 -0.0153 -0.7382
  171SAPE   H3X19394   3.350   4.247   7.081  0.0247  0.0282 -0.0549
  171SAPE   H3Y19395   3.339   4.387   7.189 -0.5485  0.6208 -1.4680
  171SAPE   C3419396   3.540   4.345   7.133  0.1770  0.3870 -0.5909
  171SAPE   H4X19397   3.599   4.427   7.179  0.3001  0.0985 -0.2314
  171SAPE   H4Y19398   3.599   4.310   7.046 -0.4007 -0.5892 -0.6037
  171SAPE   C3519399   3.562   4.224   7.235  0.1691 -1.0770 -0.2601
  171SAPE   H5X19400   3.526   4.136   7.178  0.3250  0.0101 -2.1138
  171SAPE   H5Y19401   3.498   4.216   7.325 -1.0226 -0.0912 -0.9932
  171SAPE   C3619402   3.703   4.195   7.262  0.1840  0.6627 -0.4721
  171SAPE   H6X19403   3.766   4.197   7.170 -1.6737  1.6138 -1.7885
  171SAPE   H6Y19404   3.706   4.097   7.315  1.3776  0.3599 -1.0446
  171SAPE   C3719405   3.779   4.294   7.357  0.1076  0.7635  0.3601
  171SAPE   H7X19406   3.774   4.397   7.315 -2.6662  0.9106  0.8723
  171SAPE   H7Y19407   3.884   4.261   7.370  0.0697  1.5372  3.5984
  171SAPE   C3819408   3.717   4.306   7.504 -0.8830  0.1741  0.2627
  171SAPE   H8X19409   3.790   4.354   7.572 -0.0070  0.1851 -0.6544
  171SAPE   H8Y19410   3.697   4.207   7.549 -0.8980 -0.0169 -0.1551
  171SAPE   C3919411   3.597   4.397   7.516 -0.1277 -0.1546  0.0769
  171SAPE   H9X19412   3.499   4.347   7.498 -2.0045  2.4323  2.1409
  171SAPE   H9Y19413   3.609   4.489   7.454 -0.2613  0.6741  1.2599
  171SAPE  C31019414   3.574   4.441   7.664 -0.1710 -0.1555  0.4290
  171SAPE  H10X19415   3.489   4.513   7.660 -0.9323 -0.6990  3.5937
  171SAPE  H10Y19416   3.663   4.487   7.713  0.0989  0.7236 -0.8223
  171SAPE  C31119417   3.538   4.325   7.762  0.1994  0.3254 -0.5017
  171SAPE  H11X19418   3.626   4.257   7.762  0.8082  1.0686  1.5478
  171SAPE  H11Y19419   3.454   4.264   7.723 -1.1296  3.0435 -2.1813
  171SAPE  C31219420   3.504   4.367   7.908 -0.8942  0.0899 -0.0788
  171SAPE  H12X19421   3.486   4.270   7.957  0.8130 -1.1159 -1.6965
  171SAPE  H12Y19422   3.414   4.431   7.893 -0.8469  0.0881 -0.3726
  171SAPE  C31319423   3.608   4.444   7.988 -0.1657 -0.5729 -0.1377
  171SAPE  H13X19424   3.650   4.532   7.934 -0.0583 -0.1059  0.6868
  171SAPE  H13Y19425   3.693   4.372   7.982 -0.8481 -1.2758 -3.7077
  171SAPE  C31419426   3.572   4.484   8.132 -0.4606 -0.5740 -0.1028
  171SAPE  H14X19427   3.502   4.403   8.162 -0.8900 -0.4582 -0.7667
  171SAPE  H14Y19428   3.514   4.579   8.130  1.0241  0.3664 -0.7988
  171SAPE  C31519429   3.682   4.488   8.233 -0.3231 -0.3737  0.5391
  171SAPE  H15X19430   3.745   4.397   8.247  1.2085  0.6784  0.6850
  171SAPE  H15Y19431   3.624   4.496   8.327 -0.6998  1.3185  0.1868
  171SAPE  C31619432   3.778   4.608   8.220 -0.7358  0.1735 -0.2116
  171SAPE  H16X19433   3.729   4.706   8.207  0.6758  0.6402 -2.5102
  171SAPE  H16Y19434   3.843   4.580   8.134  2.1509 -0.8426  2.1181
  171SAPE  C31719435   3.874   4.595   8.347  0.2057 -0.0905 -0.1073
  171SAPE  H17X19436   3.958   4.666   8.331  1.8094 -2.1636 -1.3159
  171SAPE  H17Y19437   3.918   4.494   8.336  0.0356 -0.1187 -0.5209
  171SAPE  C31819438   3.813   4.624   8.489  0.3690  0.0084  0.0308
  171SAPE  H18X19439   3.751   4.716   8.490 -1.8127 -1.3983  0.8319
  171SAPE  H18Y19440   3.888   4.644   8.569 -0.5556  0.1466  0.8823
  171SAPE  H18Z19441   3.746   4.541   8.522  0.4390 -0.0082  0.1325
  172SAPE     N19442   3.085   3.067   6.314 -0.5953  0.1197 -0.5241
  172SAPE   HN119443   3.096   3.069   6.417  0.4327  0.5578 -0.6279
  172SAPE   HN219444   2.990   3.105   6.299 -0.4048  2.2516  2.7333
  172SAPE   HN319445   3.098   2.969   6.283 -0.7828 -0.4575  1.1332
  172SAPE   C1219446   3.193   3.155   6.263  0.2836  0.4370 -0.7845
  172SAPE  H12A19447   3.171   3.260   6.292 -0.4062  0.4454 -1.3192
  172SAPE  H12B19448   3.199   3.143   6.153 -0.0889 -1.5469 -0.6343
  172SAPE   C1119449   3.331   3.106   6.323  0.7449 -0.4748  0.3864
  172SAPE  H11A19450   3.373   3.174   6.400  0.0508 -1.2245  1.4362
  172SAPE  H11B19451   3.401   3.115   6.237 -0.2391 -0.6721 -0.4543
  172SAPE     P19452   3.471   2.903   6.404 -0.1340 -0.1756 -0.4311
  172SAPE   O1319453   3.451   2.760   6.422 -0.5290 -0.8005  0.3669
  172SAPE   O1419454   3.571   2.944   6.297  0.1434  0.2544  0.2519
  172SAPE   O1219455   3.326   2.972   6.375 -0.3637 -0.0088  0.6453
  172SAPE   O1119456   3.507   2.961   6.549  0.1352  0.2659 -0.1179
  172SAPE    C119457   3.404   2.939   6.654 -0.0730 -0.2734  0.2537
  172SAPE    HA19458   3.350   3.031   6.687 -0.4968 -0.7686  0.9645
  172SAPE    HB19459   3.324   2.868   6.623 -0.9411 -0.1201  2.0196
  172SAPE    C219460   3.473   2.875   6.769 -0.1003  0.3476 -0.6521
  172SAPE    HS19461   3.394   2.871   6.847 -0.6929 -0.3554 -1.2709
  172SAPE   O2119462   3.588   2.955   6.811  0.3677  0.3042  0.3153
  172SAPE   C2119463   3.615   2.950   6.939 -0.1084 -0.1909 -0.2433
  172SAPE   O2219464   3.541   2.897   7.021 -0.3447  0.1208  0.3195
  172SAPE   C2219465   3.748   3.015   6.969  0.3223  0.1442  0.0082
  172SAPE   H2R19466   3.824   2.935   6.957 -0.2555 -0.4261  0.0639
  172SAPE   H2S19467   3.786   3.083   6.890 -1.1857 -0.3317 -1.1774
  172SAPE    C319468   3.520   2.728   6.744 -0.4388  0.5318  0.0019
  172SAPE    HX19469   3.596   2.729   6.663 -1.0682 -0.1709 -0.6094
  172SAPE    HY19470   3.433   2.674   6.702 -0.1249  0.7001 -0.8854
  172SAPE   O3119471   3.570   2.658   6.854  0.0461  0.1177 -0.6763
  172SAPE   C3119472   3.486   2.570   6.912  0.2319 -0.2616 -0.4536
  172SAPE   O3219473   3.366   2.563   6.884  0.1720  0.0017 -0.6369
  172SAPE   C3219474   3.555   2.484   7.015  0.6066 -0.3023 -0.7351
  172SAPE   H2X19475   3.660   2.518   7.021 -0.1308  2.3079 -1.3601
  172SAPE   H2Y19476   3.554   2.382   6.971 -0.1431 -0.1238 -1.1618
  172SAPE   C2319477   3.778   3.085   7.105  0.0466  0.5800  0.8247
  172SAPE   H3R19478   3.723   3.182   7.105 -1.8041 -0.3903 -1.7553
  172SAPE   H3S19479   3.886   3.110   7.100 -0.7521  5.0280  1.3180
  172SAPE   C2419480   3.755   3.010   7.239  0.2888 -0.3429  0.5867
  172SAPE   H4R19481   3.821   3.059   7.314  0.2243 -0.4510  0.7155
  172SAPE   H4S19482   3.797   2.909   7.222  1.4627  0.3126 -0.5142
  172SAPE   C2519483   3.614   3.002   7.303  0.4185  0.1423 -0.7836
  172SAPE   H5R19484   3.537   2.949   7.247  0.7629 -0.5059 -0.6591
  172SAPE   C2619485   3.587   3.031   7.432 -0.5731  0.2858  0.5859
  172SAPE   H6R19486   3.482   3.031   7.465 -0.7904  1.4781 -0.0732
  172SAPE   C2719487   3.682   3.087   7.539 -0.2653  0.7524 -0.1527
  172SAPE   H7R19488   3.759   3.007   7.549 -2.5530 -1.6529 -0.5981
  172SAPE   H7S19489   3.632   3.078   7.638  2.4217 -0.7320  1.1752
  172SAPE   C2819490   3.741   3.221   7.509 -0.3597 -0.1827 -0.6935
  172SAPE   H8R19491   3.732   3.252   7.404  0.0134 -0.6489 -0.8661
  172SAPE   C2919492   3.783   3.311   7.600  0.0097  0.6914  0.2525
  172SAPE   H9R19493   3.835   3.402   7.568  0.4646  0.7839  1.2271
  172SAPE  C21019494   3.797   3.293   7.746 -0.4160 -0.0355  0.0338
  172SAPE  H10R19495   3.705   3.244   7.784 -1.1941  0.0723 -1.6154
  172SAPE  H10S19496   3.809   3.394   7.790 -1.7286 -0.9374  2.6790
  172SAPE  C21119497   3.907   3.209   7.810 -0.5926  0.0461 -0.3397
  172SAPE  H11R19498   3.985   3.173   7.741  0.9629 -0.3732  1.5486
  172SAPE  C21219499   3.936   3.189   7.938 -0.7567 -0.1279 -0.2823
  172SAPE  H12R19500   4.028   3.130   7.951 -0.2352  0.5553 -0.8234
  172SAPE  C21319501   3.865   3.244   8.050  0.7856 -0.5832  0.1277
  172SAPE  H13R19502   3.842   3.352   8.038 -0.0973 -0.8893 -1.1637
  172SAPE  H13S19503   3.936   3.230   8.134 -0.6341 -3.7746  0.9300
  172SAPE  C21419504   3.728   3.186   8.085  0.1807 -0.8838 -0.1713
  172SAPE  H14R19505   3.678   3.116   8.016 -1.3419 -1.2000  1.1867
  172SAPE  C21519506   3.672   3.214   8.200  0.4097  0.3258 -0.9879
  172SAPE  H15R19507   3.572   3.177   8.227  0.6364 -0.1204 -0.7557
  172SAPE  C21619508   3.729   3.302   8.307 -0.2524  0.4433  0.3058
  172SAPE  H16R19509   3.668   3.391   8.334 -0.6962 -0.3567  2.0621
  172SAPE  H16S19510   3.830   3.335   8.275 -0.7298 -0.2767 -2.2239
  172SAPE  C21719511   3.756   3.232   8.445 -0.6364  0.1728  0.1927
  172SAPE  H17R19512   3.750   3.311   8.524  0.2925  1.2706 -0.7926
  172SAPE  H17S19513   3.862   3.203   8.457 -0.2416  1.4828  0.0707
  172SAPE  C21819514   3.649   3.122   8.482 -0.9635 -0.2608  0.8110
  172SAPE  H18R19515   3.676   3.025   8.435  0.2709 -0.8532  2.6734
  172SAPE  H18S19516   3.548   3.159   8.453 -0.9472  0.6608  1.8976
  172SAPE  C21919517   3.645   3.076   8.630 -0.4354 -0.8440  0.3994
  172SAPE  H19R19518   3.736   3.021   8.663 -0.1145 -1.4675 -1.4343
  172SAPE  H19S19519   3.560   3.005   8.636 -1.1523 -0.4327 -3.0182
  172SAPE  C22019520   3.630   3.191   8.729 -0.2031  0.6388  0.1637
  172SAPE  H20R19521   3.706   3.271   8.721 -0.5787  0.8375 -2.6438
  172SAPE  H20S19522   3.630   3.146   8.830 -1.9650 -0.9252 -0.4565
  172SAPE  H20T19523   3.535   3.246   8.711 -0.1109  0.6516 -0.3094
  172SAPE   C3319524   3.485   2.500   7.149 -0.1915 -0.5511 -0.5248
  172SAPE   H3X19525   3.494   2.412   7.216  0.5177  0.0343  0.1614
  172SAPE   H3Y19526   3.377   2.527   7.142 -0.2905  0.5312  3.2854
  172SAPE   C3419527   3.542   2.617   7.231 -0.5319  0.3442  0.1612
  172SAPE   H4X19528   3.521   2.710   7.173  0.8737  0.4015 -0.2989
  172SAPE   H4Y19529   3.653   2.607   7.238 -0.6562 -2.4099 -0.7891
  172SAPE   C3519530   3.497   2.618   7.378 -0.2902  1.0011  0.2957
  172SAPE   H5X19531   3.482   2.515   7.419  1.3547  0.9373  0.8178
  172SAPE   H5Y19532   3.401   2.671   7.392 -1.7061 -0.8085 -1.8942
  172SAPE   C3619533   3.604   2.659   7.480 -0.1488  0.1357  0.3592
  172SAPE   H6X19534   3.600   2.770   7.478 -0.2233  0.2042  2.3355
  172SAPE   H6Y19535   3.704   2.620   7.448 -0.6991 -1.2675  0.2511
  172SAPE   C3719536   3.577   2.621   7.623  0.5232 -0.0110  0.5799
  172SAPE   H7X19537   3.565   2.511   7.635 -1.4864  0.1045 -0.0350
  172SAPE   H7Y19538   3.477   2.663   7.644 -0.7593 -1.7028 -1.7421
  172SAPE   C3819539   3.681   2.667   7.724  0.3159  0.1923  0.1947
  172SAPE   H8X19540   3.720   2.767   7.697 -1.7578  1.0139  0.0560
  172SAPE   H8Y19541   3.760   2.589   7.716 -2.1794 -2.4096 -0.9385
  172SAPE   C3919542   3.650   2.670   7.874  0.4425 -0.0457 -0.0828
  172SAPE   H9X19543   3.610   2.573   7.911 -1.3057  0.8619  0.5075
  172SAPE   H9Y19544   3.568   2.737   7.905  0.2593 -0.5209  0.4808
  172SAPE  C31019545   3.775   2.687   7.962 -0.2880 -0.0832 -0.5048
  172SAPE  H10X19546   3.819   2.788   7.951 -0.2727 -0.1094 -0.6907
  172SAPE  H10Y19547   3.864   2.623   7.941  1.2300  2.1753 -1.3163
  172SAPE  C31119548   3.739   2.664   8.107  1.0461 -0.5665 -0.1293
  172SAPE  H11X19549   3.704   2.561   8.132 -1.5954 -0.2794 -2.1995
  172SAPE  H11Y19550   3.657   2.735   8.129  1.7731 -0.1472  1.3372
  172SAPE  C31219551   3.848   2.697   8.209  0.2872  0.5784  1.0036
  172SAPE  H12X19552   3.910   2.787   8.189  1.3762 -0.3149  0.2228
  172SAPE  H12Y19553   3.931   2.622   8.204  1.7013  2.1440 -2.4343
  172SAPE  C31319554   3.796   2.708   8.357  0.4071  0.3324 -0.1103
  172SAPE  H13X19555   3.747   2.615   8.391 -0.4662  0.2065 -1.6163
  172SAPE  H13Y19556   3.720   2.789   8.349  0.5793  0.3959 -1.3221
  172SAPE  C31419557   3.906   2.757   8.458 -0.0991 -0.2806  0.8922
  172SAPE  H14X19558   3.922   2.865   8.438 -1.4448 -0.6817 -3.3774
  172SAPE  H14Y19559   4.007   2.711   8.444  1.1573  2.3466  0.8412
  172SAPE  C31519560   3.860   2.732   8.605  0.3612 -0.6113  0.7362
  172SAPE  H15X19561   3.834   2.625   8.617  0.0233 -0.5082  0.9395
  172SAPE  H15Y19562   3.778   2.803   8.626  0.8741 -0.4817  2.4460
  172SAPE  C31619563   3.969   2.751   8.714 -0.5667  0.7940  0.4652
  172SAPE  H16X19564   4.057   2.686   8.698 -0.8944  0.1594  1.1494
  172SAPE  H16Y19565   3.938   2.701   8.809 -0.2698 -0.1563  0.0686
  172SAPE  C31719566   4.008   2.902   8.745 -1.0382 -0.3116  0.0241
  172SAPE  H17X19567   3.927   2.959   8.795 -0.2652  0.3090  0.6037
  172SAPE  H17Y19568   4.017   2.958   8.650  0.5377  1.1957  1.0159
  172SAPE  C31819569   4.136   2.918   8.828  0.0413  0.5425 -0.1053
  172SAPE  H18X19570   4.154   3.017   8.875 -1.8170  0.6362  0.4996
  172SAPE  H18Y19571   4.226   2.889   8.770 -0.5749  0.4419 -1.0376
  172SAPE  H18Z19572   4.124   2.846   8.912 -2.1495 -0.5373 -1.2813
  173SOPE     N19573   5.149   1.487  11.038 -0.0530 -0.5616  0.3240
  173SOPE   HN119574   5.075   1.427  11.079  0.6931 -0.9448  1.1365
  173SOPE   HN219575   5.091   1.568  11.009 -1.0630 -1.4634 -0.2457
  173SOPE   HN319576   5.175   1.441  10.948 -1.0391  1.7939 -1.2752
  173SOPE   C1219577   5.270   1.498  11.135 -0.0014 -0.4302  0.6668
  173SOPE  H12A19578   5.245   1.589  11.193 -0.4970 -2.3373  3.6697
  173SOPE  H12B19579   5.353   1.514  11.064 -0.7195 -1.2866 -0.3923
  173SOPE   C1119580   5.270   1.380  11.222  0.2522  0.3322 -0.5575
  173SOPE  H11A19581   5.171   1.373  11.274 -0.0657 -0.1941 -1.2154
  173SOPE  H11B19582   5.350   1.393  11.298 -1.1389  0.0017  1.0318
  173SOPE     P19583   5.365   1.201  11.047 -0.1908 -0.0097 -0.1164
  173SOPE   O1319584   5.346   1.054  11.034  0.0140  0.1283  0.1356
  173SOPE   O1419585   5.503   1.241  11.081 -0.5144 -0.3683  0.0819
  173SOPE   O1219586   5.277   1.251  11.163 -0.6134  0.4428  0.3928
  173SOPE   O1119587   5.318   1.266  10.912 -1.2777  0.2297  0.9297
  173SOPE    C119588   5.391   1.375  10.845 -0.2402 -0.3634 -0.3552
  173SOPE    HA19589   5.458   1.430  10.914  1.8781 -0.1033 -2.4678
  173SOPE    HB19590   5.313   1.442  10.804  0.0872  0.6112  0.5926
  173SOPE    C219591   5.475   1.337  10.719  0.8054 -0.2232  0.4017
  173SOPE    HS19592   5.543   1.251  10.737  1.5445  0.0450 -0.9185
  173SOPE   O2119593   5.548   1.455  10.683 -0.2994 -0.5481  0.9325
  173SOPE   C2119594   5.686   1.444  10.692  0.3888  0.7848  0.6067
  173SOPE   O2219595   5.745   1.338  10.719  0.7811  0.0157 -0.1831
  173SOPE   C2219596   5.747   1.571  10.653 -0.7122 -0.4284  0.0028
  173SOPE   H2R19597   5.857   1.560  10.665 -0.5459  0.0552 -1.0120
  173SOPE   H2S19598   5.710   1.650  10.722  0.4543  0.5880 -0.4945
  173SOPE    C319599   5.375   1.292  10.610  0.1300 -0.0584  0.6692
  173SOPE    HX19600   5.316   1.384  10.589  0.4059  0.0917  0.5575
  173SOPE    HY19601   5.307   1.214  10.650  0.5701 -2.2364 -2.4721
  173SOPE   O3119602   5.434   1.244  10.483  0.4690 -0.5908  0.2512
  173SOPE   C3119603   5.434   1.109  10.473 -0.0633 -0.3783 -0.1850
  173SOPE   O3219604   5.434   1.028  10.565 -0.2619 -0.2819 -0.0782
  173SOPE   C3219605   5.408   1.088  10.324 -0.0743  0.7501  0.4560
  173SOPE   H2X19606   5.446   1.172  10.263 -0.4215 -0.1146 -1.0074
  173SOPE   H2Y19607   5.297   1.088  10.333 -0.2793 -0.5292 -1.6041
  173SOPE   C2319608   5.712   1.620  10.515  0.4783  0.2267  0.3944
  173SOPE   H3R19609   5.756   1.720  10.496  0.9167 -0.1494 -0.6682
  173SOPE   H3S19610   5.604   1.640  10.504  0.5323 -0.3149 -1.4373
  173SOPE   C2419611   5.737   1.517  10.407  0.2566 -0.0448 -0.1692
  173SOPE   H4R19612   5.839   1.475  10.413  0.7251  0.6568 -2.3267
  173SOPE   H4S19613   5.671   1.430  10.425 -0.8657 -0.3708 -4.7656
  173SOPE   C2519614   5.716   1.581  10.269  0.1527  0.0197  0.3352
  173SOPE   H5R19615   5.612   1.620  10.267  0.0195 -0.1371  2.5575
  173SOPE   H5S19616   5.786   1.665  10.249 -1.0830  1.1575  0.6613
  173SOPE   C2619617   5.747   1.483  10.150  0.3101  0.1831  0.9383
  173SOPE   H6R19618   5.773   1.537  10.057 -0.5664 -1.0097 -0.0221
  173SOPE   H6S19619   5.834   1.417  10.171  2.0238  2.5101  1.5536
  173SOPE   C2719620   5.627   1.404  10.108  0.5284  0.3685 -0.2562
  173SOPE   H7R19621   5.659   1.297  10.114  1.4914  0.6368 -0.4218
  173SOPE   H7S19622   5.552   1.404  10.190 -1.0188 -1.8104 -1.5670
  173SOPE   C2819623   5.555   1.444   9.985  0.1583 -0.2903 -0.0176
  173SOPE   H8R19624   5.626   1.420   9.903 -1.5124  0.3244 -1.7381
  173SOPE   H8S19625   5.467   1.377   9.972 -0.3181  0.2388  0.4051
  173SOPE   C2919626   5.504   1.584   9.982  0.4746 -0.4944  0.1591
  173SOPE   H9119627   5.569   1.658  10.030 -0.1359  1.7001 -2.1590
  173SOPE  C21019628   5.387   1.631   9.942 -0.1052 -0.8670 -0.0263
  173SOPE  H10119629   5.370   1.739   9.935  1.1992 -0.5496  1.2319
  173SOPE  C21119630   5.286   1.544   9.873  0.3314  0.3691 -0.0450
  173SOPE  H11R19631   5.181   1.579   9.875 -0.5615 -2.0918  0.3809
  173SOPE  H11S19632   5.276   1.448   9.928 -1.5694  1.0173  0.8252
  173SOPE  C21219633   5.317   1.511   9.733 -0.2074  0.3021  0.1487
  173SOPE  H12R19634   5.413   1.457   9.721  0.8508  2.3963 -1.5423
  173SOPE  H12S19635   5.321   1.608   9.679  2.6301 -0.4821 -1.2139
  173SOPE  C21319636   5.215   1.429   9.650 -0.5314 -0.2412 -0.5115
  173SOPE  H13R19637   5.113   1.457   9.684  0.0354  2.5284 -0.8577
  173SOPE  H13S19638   5.234   1.322   9.671 -1.3038 -0.3713 -0.4631
  173SOPE  C21419639   5.228   1.439   9.498 -0.8250 -0.0865 -1.3271
  173SOPE  H14R19640   5.167   1.354   9.462 -1.6548 -0.1008  0.0256
  173SOPE  H14S19641   5.328   1.398   9.473 -0.3966 -0.9649  1.4372
  173SOPE  C21519642   5.175   1.567   9.448 -0.6197 -0.8793 -0.3868
  173SOPE  H15R19643   5.239   1.656   9.469 -0.6282 -0.4831 -1.9367
  173SOPE  H15S19644   5.072   1.588   9.482 -0.3050 -0.0274  0.0709
  173SOPE  C21619645   5.179   1.565   9.296  0.2193  0.1578 -0.0890
  173SOPE  H16R19646   5.094   1.507   9.254 -1.1681  1.5762  0.6593
  173SOPE  H16S19647   5.276   1.520   9.266 -0.3342 -2.9028  2.3278
  173SOPE  C21719648   5.178   1.708   9.238 -0.2979  0.2530  0.4000
  173SOPE  H17R19649   5.268   1.763   9.271  1.0003  0.0784 -2.5360
  173SOPE  H17S19650   5.093   1.764   9.282  0.2220  0.1260  1.5885
  173SOPE  C21819651   5.174   1.709   9.085 -0.4189  0.0969  0.4377
  173SOPE  H18R19652   5.094   1.644   9.045  1.1022 -1.7889  0.3243
  173SOPE  H18S19653   5.275   1.675   9.056 -0.9312 -0.0024 -1.3470
  173SOPE  H18T19654   5.173   1.809   9.036 -0.3053 -1.2823 -2.5903
  173SOPE   C3319655   5.447   0.949  10.266  0.1943 -0.5596 -0.5519
  173SOPE   H3X19656   5.381   0.872  10.310 -1.4057  0.5387 -0.9684
  173SOPE   H3Y19657   5.552   0.925  10.296  0.0187  0.9837  1.5154
  173SOPE   C3419658   5.432   0.944  10.113 -0.7207  1.0045  0.2752
  173SOPE   H4X19659   5.516   0.998  10.065 -0.8466  0.0802 -1.0360
  173SOPE   H4Y19660   5.340   0.995  10.075 -1.2883 -2.2340 -3.2925
  173SOPE   C3519661   5.426   0.800  10.064  0.1112  0.4274 -0.2061
  173SOPE   H5X19662   5.329   0.752  10.089  0.7003 -0.3672  0.5862
  173SOPE   H5Y19663   5.487   0.724  10.116  0.8736 -2.6572 -4.9638
  173SOPE   C3619664   5.462   0.789   9.918  0.6686 -0.1426 -0.0111
  173SOPE   H6X19665   5.571   0.807   9.927  1.0413 -2.5625  0.9738
  173SOPE   H6Y19666   5.408   0.862   9.854 -0.9712 -2.4618 -1.4564
  173SOPE   C3719667   5.446   0.641   9.865  0.1762 -0.9883 -0.9999
  173SOPE   H7X19668   5.336   0.629   9.853 -0.2785  2.3190 -1.0768
  173SOPE   H7Y19669   5.485   0.575   9.946 -0.6005 -0.6235 -0.3079
  173SOPE   C3819670   5.524   0.613   9.737  0.2090  0.1512  0.7442
  173SOPE   H8X19671   5.625   0.570   9.754  0.2366 -0.8075 -1.4667
  173SOPE   H8Y19672   5.528   0.714   9.690 -2.3330 -0.5997 -1.3570
  173SOPE   C3919673   5.438   0.530   9.640  0.2910 -0.3353  0.1688
  173SOPE   H9X19674   5.345   0.586   9.618  1.0942  0.0698 -2.5024
  173SOPE   H9Y19675   5.417   0.428   9.679 -1.7448 -0.0118 -0.0055
  173SOPE  C31019676   5.507   0.528   9.506  0.2092 -0.5626 -0.2473
  173SOPE  H10X19677   5.507   0.632   9.467 -1.0476 -0.3921  0.1298
  173SOPE  H10Y19678   5.461   0.459   9.432  1.1963 -1.8323  0.2870
  173SOPE  C31119679   5.650   0.469   9.509  0.1985 -0.0797  0.5097
  173SOPE  H11X19680   5.639   0.361   9.536 -1.0882  0.0790  0.6480
  173SOPE  H11Y19681   5.716   0.515   9.586  0.7842  1.7208 -0.9933
  173SOPE  C31219682   5.723   0.479   9.371  0.3749  0.4244  0.2308
  173SOPE  H12X19683   5.660   0.419   9.301 -1.2767  0.0399  1.9773
  173SOPE  H12Y19684   5.826   0.439   9.378  0.1577 -0.0533  0.6805
  173SOPE  C31319685   5.742   0.627   9.317  0.2694  0.2303  0.8177
  173SOPE  H13X19686   5.636   0.659   9.306 -0.0118 -0.6293  1.0092
  173SOPE  H13Y19687   5.774   0.623   9.211 -1.4468  1.0982  0.2152
  173SOPE  C31419688   5.812   0.744   9.394  0.0251  0.3575 -0.1612
  173SOPE  H14X19689   5.911   0.714   9.432  0.0723 -0.6071 -1.0218
  173SOPE  H14Y19690   5.745   0.761   9.482 -0.3159 -0.7834 -0.1879
  173SOPE  C31519691   5.805   0.879   9.324 -0.1343 -0.1061 -0.2735
  173SOPE  H15X19692   5.821   0.951   9.407  3.4917 -0.8966 -0.1246
  173SOPE  H15Y19693   5.709   0.897   9.271  0.3471 -0.5591 -1.3361
  173SOPE  C31619694   5.914   0.891   9.212  0.1943  0.6086 -0.0854
  173SOPE  H16X19695   5.880   0.822   9.132  0.0197  1.4834 -0.7833
  173SOPE  H16Y19696   6.011   0.850   9.248 -0.2611 -0.5320 -0.1305
  173SOPE  C31719697   5.930   1.032   9.151  0.2679 -0.5258 -0.1405
  173SOPE  H17X19698   5.838   1.094   9.154  0.2928 -0.4590 -0.6758
  173SOPE  H17Y19699   5.956   1.029   9.042  1.7006 -0.0224  0.1523
  173SOPE  C31819700   6.036   1.114   9.228 -0.2918  0.1809 -0.3205
  173SOPE  H18X19701   6.027   1.109   9.339  0.5444  1.3793 -0.1798
  173SOPE  H18Y19702   6.029   1.215   9.182  1.2709  1.0572  1.2645
  173SOPE  H18Z19703   6.136   1.074   9.203  0.0600  1.2618 -0.6871
  174SOPE     N19704   4.016   0.352  10.851 -0.2153  0.4774  1.2042
  174SOPE   HN119705   4.002   0.309  10.945  0.0809  0.6201  1.3154
  174SOPE   HN219706   3.961   0.295  10.784  0.1863  0.7555  0.6237
  174SOPE   HN319707   4.114   0.335  10.822 -0.8046 -1.1963  0.0916
  174SOPE   C1219708   3.978   0.499  10.843 -0.0993 -0.3027 -0.2678
  174SOPE  H12A19709   3.898   0.523  10.915  0.0804 -1.9582  0.5274
  174SOPE  H12B19710   3.938   0.517  10.741  0.3592  0.9570 -0.2437
  174SOPE   C1119711   4.102   0.589  10.866 -0.1973 -0.7005 -0.1909
  174SOPE  H11A19712   4.144   0.576  10.968 -0.6762  2.3319  0.4984
  174SOPE  H11B19713   4.063   0.693  10.865 -0.6841 -0.8719  0.4147
  174SOPE     P19714   4.355   0.582  10.798  0.6112  0.1313  0.1881
  174SOPE   O1319715   4.426   0.453  10.798  0.6082 -0.2182 -0.4173
  174SOPE   O1419716   4.365   0.667  10.920  0.3455  0.2055  0.2222
  174SOPE   O1219717   4.204   0.550  10.775 -0.2991 -0.7107  0.3050
  174SOPE   O1119718   4.403   0.659  10.665  0.2578 -0.0057 -0.0069
  174SOPE    C119719   4.393   0.585  10.542 -0.0389 -0.1166 -0.1260
  174SOPE    HA19720   4.308   0.621  10.480  1.8833  0.2392 -2.7740
  174SOPE    HB19721   4.388   0.475  10.561  1.7662  0.0576  1.6704
  174SOPE    C219722   4.517   0.601  10.454 -0.4729  0.2085  0.6205
  174SOPE    HS19723   4.610   0.557  10.497 -1.3519 -2.9314 -0.4407
  174SOPE   O2119724   4.533   0.736  10.412  0.6196  0.6845 -0.6085
  174SOPE   C2119725   4.590   0.823  10.494 -0.7445 -0.6040  0.7286
  174SOPE   O2219726   4.681   0.802  10.573 -0.7176  0.1114  0.1650
  174SOPE   C2219727   4.499   0.943  10.494 -0.1668 -0.2472  0.8064
  174SOPE   H2R19728   4.442   0.932  10.588  0.5833 -2.0703  1.0730
  174SOPE   H2S19729   4.422   0.934  10.413 -0.0313  0.6554  0.5625
  174SOPE    C319730   4.493   0.527  10.320  0.0712  0.2286 -0.4795
  174SOPE    HX19731   4.596   0.533  10.277 -0.2815  1.1983 -1.2226
  174SOPE    HY19732   4.407   0.576  10.268 -2.1739 -0.5941  2.2377
  174SOPE   O3119733   4.450   0.392  10.342  0.3689  0.4104 -0.1531
  174SOPE   C3119734   4.534   0.293  10.307  0.5454 -0.0556 -0.6383
  174SOPE   O3219735   4.645   0.315  10.268 -0.5636 -0.3863 -0.3488
  174SOPE   C3219736   4.463   0.160  10.333  0.0694  0.3416  0.4847
  174SOPE   H2X19737   4.379   0.179  10.404  0.0909 -3.2982  1.7014
  174SOPE   H2Y19738   4.530   0.094  10.392 -0.5753 -3.0947 -2.2574
  174SOPE   C2319739   4.568   1.083  10.484  0.3924  0.0438  0.1950
  174SOPE   H3R19740   4.641   1.082  10.567  3.1687 -0.1040 -2.0896
  174SOPE   H3S19741   4.508   1.174  10.506  0.3257 -0.1399  0.7928
  174SOPE   C2419742   4.637   1.098  10.351 -0.0325 -0.1678  0.2961
  174SOPE   H4R19743   4.713   1.177  10.373  0.8194 -0.4817 -1.2969
  174SOPE   H4S19744   4.693   1.006  10.323  1.8442  1.3201 -1.2429
  174SOPE   C2519745   4.546   1.148  10.233 -0.1401 -0.1736  0.2572
  174SOPE   H5R19746   4.474   1.066  10.211 -0.4279 -0.0651  0.7696
  174SOPE   H5S19747   4.492   1.242  10.257  0.1592  0.1025 -0.1297
  174SOPE   C2619748   4.623   1.175  10.100 -0.2781 -0.0234  0.5598
  174SOPE   H6R19749   4.712   1.241  10.110  1.8591 -2.4478 -1.1366
  174SOPE   H6S19750   4.674   1.081  10.071  0.8567 -0.2900  3.1645
  174SOPE   C2719751   4.527   1.213   9.994  0.1018  0.2774  0.2184
  174SOPE   H7R19752   4.445   1.138   9.986  0.3667  0.0840 -0.8754
  174SOPE   H7S19753   4.481   1.313  10.012  1.6499  0.9779  0.4672
  174SOPE   C2819754   4.588   1.235   9.849 -0.5725  0.2562 -0.0514
  174SOPE   H8R19755   4.650   1.148   9.819  0.2854  1.9046 -3.5160
  174SOPE   H8S19756   4.504   1.240   9.776  0.2463  1.2231 -0.9720
  174SOPE   C2919757   4.677   1.363   9.831  0.4536  0.6006 -0.4154
  174SOPE   H9119758   4.665   1.440   9.908 -0.2259 -1.1811  1.3760
  174SOPE  C21019759   4.734   1.397   9.717 -0.0531 -1.0929 -0.0076
  174SOPE  H10119760   4.809   1.478   9.712  0.1961 -1.3227  0.0190
  174SOPE  C21119761   4.737   1.312   9.592  0.4981  0.0598  0.3371
  174SOPE  H11R19762   4.722   1.379   9.505 -1.2784 -1.7999 -0.8824
  174SOPE  H11S19763   4.648   1.245   9.584 -1.0573  1.8655  1.6858
  174SOPE  C21219764   4.868   1.235   9.565 -0.6406  0.0644 -0.1972
  174SOPE  H12R19765   4.851   1.130   9.598 -0.0191  0.1186  0.3218
  174SOPE  H12S19766   4.950   1.273   9.630  1.3420  1.4192 -3.2719
  174SOPE  C21319767   4.921   1.238   9.416  0.3791 -0.7326 -0.4806
  174SOPE  H13R19768   5.015   1.180   9.410  1.3367  0.6167  0.7676
  174SOPE  H13S19769   4.929   1.346   9.393 -1.3421 -0.3942  0.2574
  174SOPE  C21419770   4.832   1.174   9.311  0.2192  0.0719 -0.4914
  174SOPE  H14R19771   4.744   1.233   9.277 -0.1658 -0.3734 -0.2818
  174SOPE  H14S19772   4.785   1.082   9.354  2.5798  0.6412  3.9090
  174SOPE  C21519773   4.904   1.145   9.184 -0.7787 -0.2830  0.3647
  174SOPE  H15R19774   4.963   1.051   9.195 -1.1989 -1.0337 -2.7999
  174SOPE  H15S19775   4.984   1.221   9.165 -0.3939 -0.3814  1.4932
  174SOPE  C21619776   4.823   1.106   9.060 -0.9755 -0.2508 -0.4637
  174SOPE  H16R19777   4.887   1.117   8.971  0.5172  1.6583  0.7603
  174SOPE  H16S19778   4.743   1.179   9.033 -0.5282 -0.0244 -1.2023
  174SOPE  C21719779   4.762   0.968   9.060  0.8209  0.4901  0.0858
  174SOPE  H17R19780   4.683   0.982   9.138  0.2676  3.7643 -0.9099
  174SOPE  H17S19781   4.824   0.880   9.087 -1.1034 -1.3389 -1.1680
  174SOPE  C21819782   4.701   0.924   8.925 -0.0914  0.1499 -0.7455
  174SOPE  H18R19783   4.666   0.819   8.936  0.2716  0.1546  0.7122
  174SOPE  H18S19784   4.774   0.930   8.842 -0.4509  2.8456 -0.9457
  174SOPE  H18T19785   4.609   0.975   8.892 -0.1597  1.0475  0.7273
  174SOPE   C3319786   4.416   0.089  10.203  0.3655 -0.5286 -0.3226
  174SOPE   H3X19787   4.354   0.153  10.137  0.5728 -0.3769 -0.3711
  174SOPE   H3Y19788   4.354   0.008  10.247 -1.8477  2.2377  1.9863
  174SOPE   C3419789   4.520   0.005  10.125  0.5966 -0.2318 -0.0955
  174SOPE   H4X19790   4.470  -0.090  10.095 -0.3178  0.7837 -1.9622
  174SOPE   H4Y19791   4.615  -0.007  10.182  0.1338 -1.6847  0.4257
  174SOPE   C3519792   4.556   0.070   9.989 -0.8785  0.2011  0.3436
  174SOPE   H5X19793   4.631   0.148  10.014 -1.0028  0.2874  0.4498
  174SOPE   H5Y19794   4.472   0.122   9.940  0.9706  2.8703 -0.2217
  174SOPE   C3619795   4.619  -0.039   9.893  0.2855  0.1375 -0.4666
  174SOPE   H6X19796   4.532  -0.102   9.868 -0.3585  0.5130  0.7556
  174SOPE   H6Y19797   4.702  -0.084   9.952  1.1932  1.0413 -1.0106
  174SOPE   C3719798   4.681   0.032   9.771  0.1318  0.1753  0.4598
  174SOPE   H7X19799   4.770   0.087   9.809  1.2494  0.5460 -2.4340
  174SOPE   H7Y19800   4.615   0.115   9.737 -0.0848  0.8460  2.3603
  174SOPE   C3819801   4.710  -0.059   9.650  0.4563 -0.5446 -0.4874
  174SOPE   H8X19802   4.773  -0.137   9.697  1.8985  0.5509 -0.5503
  174SOPE   H8Y19803   4.774  -0.012   9.572  0.7105  2.2124  1.2321
  174SOPE   C3919804   4.589  -0.133   9.591  0.0085 -0.2417 -0.0609
  174SOPE   H9X19805   4.528  -0.055   9.541  0.7066  0.6036  0.3824
  174SOPE   H9Y19806   4.521  -0.187   9.661 -1.2731  0.3840 -0.7796
  174SOPE  C31019807   4.623  -0.225   9.476  0.2696  0.0517  0.1788
  174SOPE  H10X19808   4.693  -0.298   9.522  0.0688 -0.7342 -0.7484
  174SOPE  H10Y19809   4.675  -0.175   9.392 -0.0355  0.3493  0.1641
  174SOPE  C31119810   4.501  -0.293   9.419  0.0073  0.3217 -0.6266
  174SOPE  H11X19811   4.438  -0.322   9.506  0.6058 -2.7157 -1.0803
  174SOPE  H11Y19812   4.526  -0.394   9.381 -0.8223 -0.5157  0.9460
  174SOPE  C31219813   4.431  -0.220   9.307  0.0024  0.5333  0.2346
  174SOPE  H12X19814   4.425  -0.109   9.313  2.1236  0.6192  2.9128
  174SOPE  H12Y19815   4.327  -0.257   9.304  1.0228 -2.6205 -1.9587
  174SOPE  C31319816   4.494  -0.249   9.168 -0.3191 -0.2223 -0.1719
  174SOPE  H13X19817   4.495  -0.359   9.152 -0.2406 -0.3365  0.5596
  174SOPE  H13Y19818   4.596  -0.206   9.164  0.3200 -1.1382  3.1089
  174SOPE  C31419819   4.410  -0.190   9.055 -0.4780 -0.4719 -0.4391
  174SOPE  H14X19820   4.407  -0.081   9.074  3.9683 -0.1053 -0.8508
  174SOPE  H14Y19821   4.316  -0.249   9.054 -1.0197  0.2648  1.9511
  174SOPE  C31519822   4.488  -0.216   8.924 -0.7052 -0.0496 -0.0752
  174SOPE  H15X19823   4.497  -0.325   8.904 -2.0030 -0.1343 -0.2985
  174SOPE  H15Y19824   4.588  -0.170   8.926 -0.4070 -0.7095  1.1368
  174SOPE  C31619825   4.420  -0.141   8.808  0.2999 -0.0496  0.4541
  174SOPE  H16X19826   4.391  -0.041   8.847 -2.0333 -1.9019  3.9770
  174SOPE  H16Y19827   4.326  -0.199   8.797  0.2500  0.2774 -1.0565
  174SOPE  C31719828   4.499  -0.148   8.682  0.4694 -0.1323 -0.3177
  174SOPE  H17X19829   4.542  -0.249   8.666  0.5665  0.0537 -1.2896
  174SOPE  H17Y19830   4.581  -0.076   8.704  0.0834  0.7316 -1.5640
  174SOPE  C31819831   4.412  -0.107   8.560  0.4935  0.5565 -0.0414
  174SOPE  H18X19832   4.464  -0.119   8.463  2.3641  1.0157  0.8633
  174SOPE  H18Y19833   4.373  -0.003   8.575  1.1632  0.8890 -0.5728
  174SOPE  H18Z19834   4.332  -0.184   8.551  0.8632  0.0507  0.8815
  175SOPE     N19835   6.023   3.319  10.627 -0.2269 -0.4897 -0.3036
  175SOPE   HN119836   6.060   3.295  10.533 -2.8042  0.5012 -1.6865
  175SOPE   HN219837   5.978   3.413  10.622 -1.1903 -0.9155 -0.0621
  175SOPE   HN319838   6.104   3.318  10.691 -0.3016 -0.3454 -0.2051
  175SOPE   C1219839   5.941   3.201  10.671 -0.1007 -0.2232  0.4075
  175SOPE  H12A19840   5.835   3.226  10.645  0.8889  1.5860 -2.3075
  175SOPE  H12B19841   5.942   3.197  10.782 -0.7377 -0.3335  0.4172
  175SOPE   C1119842   5.982   3.075  10.585 -1.0463  0.1233  0.0706
  175SOPE  H11A19843   5.955   3.093  10.479 -2.2935 -0.8104  0.2038
  175SOPE  H11B19844   5.924   2.983  10.605 -0.5369 -0.4533 -0.9952
  175SOPE     P19845   6.187   2.932  10.666  0.0766  0.4118 -0.4886
  175SOPE   O1319846   6.095   2.873  10.774 -0.2158 -0.1713 -0.3574
  175SOPE   O1419847   6.326   2.968  10.703  0.2363 -0.5698  0.1691
  175SOPE   O1219848   6.121   3.056  10.590 -0.2458 -0.2678 -0.2142
  175SOPE   O1119849   6.202   2.817  10.559  0.0371 -1.0330 -0.2891
  175SOPE    C119850   6.293   2.830  10.448  0.2830  0.3757 -0.4243
  175SOPE    HA19851   6.290   2.728  10.404  0.0673  0.0463  0.3355
  175SOPE    HB19852   6.398   2.856  10.475  0.0258 -0.3060  1.3845
  175SOPE    C219853   6.244   2.926  10.326 -0.9382  0.0067 -0.3717
  175SOPE    HS19854   6.233   3.029  10.366 -1.5674 -0.6721  1.3074
  175SOPE   O2119855   6.115   2.871  10.277  0.4620 -0.5953 -0.1913
  175SOPE   C2119856   6.035   2.965  10.227 -0.3060  0.2166 -0.4018
  175SOPE   O2219857   6.052   3.085  10.222  0.0922  0.1265 -0.3805
  175SOPE   C2219858   5.911   2.895  10.162  0.7523 -0.0766  0.4376
  175SOPE   H2R19859   5.854   2.978  10.114  1.8859 -0.0538 -0.9500
  175SOPE   H2S19860   5.852   2.833  10.232  1.3828 -2.0306 -0.6809
  175SOPE    C319861   6.342   2.935  10.198  0.4846 -0.1588 -0.1870
  175SOPE    HX19862   6.364   2.829  10.174 -1.0750 -0.2892 -1.1983
  175SOPE    HY19863   6.442   2.975  10.226  1.3342 -2.5359  0.3743
  175SOPE   O3119864   6.284   2.996  10.075  0.1126  0.2470 -0.0119
  175SOPE   C3119865   6.291   3.128  10.071  0.1190  0.1831  0.2670
  175SOPE   O3219866   6.347   3.197  10.154  0.1801  0.7572  0.3674
  175SOPE   C3219867   6.239   3.183   9.937 -0.0218 -0.8772  0.0593
  175SOPE   H2X19868   6.279   3.286   9.925 -2.7719  0.2694 -0.0640
  175SOPE   H2Y19869   6.129   3.196   9.940 -0.1924 -1.2830 -2.1928
  175SOPE   C2319870   5.938   2.799  10.039  0.3145 -0.3313  0.3152
  175SOPE   H3R19871   5.849   2.733  10.030  0.7230 -0.6599 -1.7598
  175SOPE   H3S19872   6.035   2.748  10.052  1.5776  1.2403 -2.0837
  175SOPE   C2419873   5.943   2.879   9.910 -0.6458  0.8566 -0.0573
  175SOPE   H4R19874   5.843   2.923   9.890  1.0135  4.6171 -0.8304
  175SOPE   H4S19875   6.002   2.973   9.908  1.7977 -0.5978  0.0523
  175SOPE   C2519876   5.982   2.792   9.787  0.0973  0.0396  0.1321
  175SOPE   H5R19877   6.081   2.743   9.800 -2.2165 -5.3451  0.3192
  175SOPE   H5S19878   5.908   2.709   9.780 -1.7631  1.7684 -2.8342
  175SOPE   C2619879   5.988   2.865   9.650  0.2143 -0.6367 -0.2388
  175SOPE   H6R19880   5.887   2.899   9.618 -0.5906 -1.2531  1.5443
  175SOPE   H6S19881   6.059   2.950   9.658 -0.3712 -0.0927 -0.6997
  175SOPE   C2719882   6.049   2.789   9.529  0.0171 -0.0054 -0.1470
  175SOPE   H7R19883   6.152   2.767   9.566 -0.3181 -4.8855 -1.4598
  175SOPE   H7S19884   6.002   2.689   9.526  0.6665 -0.3381  0.3375
  175SOPE   C2819885   6.052   2.863   9.395  0.6728  0.7525 -0.3337
  175SOPE   H8R19886   5.951   2.844   9.352  0.3225 -2.8143  1.6689
  175SOPE   H8S19887   6.075   2.972   9.401  2.5831  0.3364  0.5838
  175SOPE   C2919888   6.156   2.804   9.303 -0.4130 -0.3880 -0.3096
  175SOPE   H9119889   6.254   2.770   9.339  0.7551 -0.5729 -3.3203
  175SOPE  C21019890   6.150   2.786   9.171  0.0357  0.2285  0.4527
  175SOPE  H10119891   6.237   2.738   9.123 -1.7009 -0.2666 -2.4654
  175SOPE  C21119892   6.027   2.814   9.085  0.9315 -0.3698  0.0284
  175SOPE  H11R19893   6.064   2.895   9.018  2.0488 -0.1457  0.8964
  175SOPE  H11S19894   5.946   2.859   9.146  2.7805 -1.2541  3.3888
  175SOPE  C21219895   5.974   2.703   8.999 -0.0999  0.5649 -0.4582
  175SOPE  H12R19896   5.881   2.742   8.952  0.7614  1.5571 -1.3735
  175SOPE  H12S19897   5.952   2.606   9.050  1.0875  0.9604  0.8919
  175SOPE  C21319898   6.060   2.670   8.880 -0.2672  0.6854  0.2281
  175SOPE  H13R19899   6.152   2.617   8.912 -0.4530 -0.3056 -0.8017
  175SOPE  H13S19900   6.095   2.765   8.835  0.3161  0.0177 -0.7727
  175SOPE  C21419901   5.984   2.594   8.772 -0.1709  0.0744  0.0432
  175SOPE  H14R19902   6.051   2.565   8.688  0.3778  2.9956 -0.6625
  175SOPE  H14S19903   5.911   2.660   8.720 -0.8210 -1.5722 -1.2123
  175SOPE  C21519904   5.910   2.469   8.810  0.6683  0.0807  0.5224
  175SOPE  H15R19905   5.853   2.499   8.901  0.1213  1.4252 -0.2367
  175SOPE  H15S19906   5.986   2.390   8.826  1.4320  0.6884 -0.0007
  175SOPE  C21619907   5.807   2.420   8.706  0.0077 -0.9994 -0.2794
  175SOPE  H16R19908   5.856   2.369   8.621  0.2593 -0.4073 -0.4933
  175SOPE  H16S19909   5.758   2.508   8.657 -1.9110 -1.8186  0.0700
  175SOPE  C21719910   5.704   2.326   8.762 -0.2877 -0.4699  0.0534
  175SOPE  H17R19911   5.742   2.225   8.790  0.7298 -0.0148  0.3697
  175SOPE  H17S19912   5.632   2.310   8.679 -0.0149  2.3634 -0.8517
  175SOPE  C21819913   5.626   2.389   8.876 -0.0572 -0.3861 -0.3253
  175SOPE  H18R19914   5.597   2.490   8.840  2.0250 -1.1791 -4.8064
  175SOPE  H18S19915   5.680   2.398   8.973  1.8238  0.7233 -1.4329
  175SOPE  H18T19916   5.537   2.326   8.897  0.1231  0.0025  1.9467
  175SOPE   C3319917   6.294   3.076   9.831 -0.3204 -0.5711  0.1909
  175SOPE   H3X19918   6.222   2.992   9.841 -1.2660  0.3631  1.4394
  175SOPE   H3Y19919   6.402   3.061   9.852 -0.1607  1.2556  0.9196
  175SOPE   C3419920   6.272   3.125   9.694 -0.2031 -0.2215  0.3712
  175SOPE   H4X19921   6.169   3.164   9.676 -0.8426 -2.5528 -1.6929
  175SOPE   H4Y19922   6.271   3.032   9.633  0.3534 -0.6070  0.9342
  175SOPE   C3519923   6.381   3.225   9.648 -0.3070 -0.0809  0.4247
  175SOPE   H5X19924   6.474   3.167   9.665 -0.7301 -0.4836  1.4600
  175SOPE   H5Y19925   6.366   3.321   9.702  0.7771  0.9620 -1.0478
  175SOPE   C3619926   6.366   3.270   9.503 -0.3700  0.4824  0.0807
  175SOPE   H6X19927   6.450   3.336   9.473 -0.5431  0.5731 -0.2134
  175SOPE   H6Y19928   6.280   3.339   9.489 -0.0736  0.7953 -0.2071
  175SOPE   C3719929   6.351   3.157   9.397 -0.4430  0.3245  0.2869
  175SOPE   H7X19930   6.250   3.112   9.401 -0.3816 -0.0977 -1.8504
  175SOPE   H7Y19931   6.428   3.080   9.421 -1.0213 -0.5599 -0.6361
  175SOPE   C3819932   6.369   3.209   9.251 -0.2647 -0.0402  0.0265
  175SOPE   H8X19933   6.467   3.261   9.248 -0.6023  0.6762  1.0250
  175SOPE   H8Y19934   6.301   3.297   9.244  2.4991  2.1850 -0.5555
  175SOPE   C3919935   6.356   3.097   9.149  0.7942  0.6492  0.3579
  175SOPE   H9X19936   6.276   3.024   9.176 -0.9485  2.4523  0.2948
  175SOPE   H9Y19937   6.453   3.043   9.152  2.3530  3.2971  1.0255
  175SOPE  C31019938   6.335   3.156   9.010  0.0538 -0.0840  1.0671
  175SOPE  H10X19939   6.388   3.087   8.940 -0.1859 -0.4436  1.2329
  175SOPE  H10Y19940   6.387   3.253   9.004 -0.6828  0.2622 -0.2289
  175SOPE  C31119941   6.193   3.178   8.958 -0.1164  0.2817  0.1981
  175SOPE  H11X19942   6.150   3.274   8.994 -1.0676  0.1308 -0.4761
  175SOPE  H11Y19943   6.126   3.098   8.998  0.9960 -0.2867  0.9564
  175SOPE  C31219944   6.190   3.175   8.803  0.6310 -0.5520 -0.0349
  175SOPE  H12X19945   6.232   3.077   8.772 -1.1825 -0.3629 -3.6746
  175SOPE  H12Y19946   6.250   3.256   8.755  0.9659 -1.7409 -1.7017
  175SOPE  C31319947   6.050   3.184   8.744  0.2013 -0.1428  0.2092
  175SOPE  H13X19948   5.996   3.277   8.772 -1.0258 -1.2753  1.8209
  175SOPE  H13Y19949   6.003   3.099   8.798  0.6826  0.0567  0.9680
  175SOPE  C31419950   6.048   3.155   8.593 -0.2368 -0.2541  0.4000
  175SOPE  H14X19951   6.099   3.058   8.578  1.6261  0.5345  1.2020
  175SOPE  H14Y19952   6.098   3.245   8.550 -0.3768 -0.9364 -1.2783
  175SOPE  C31519953   5.912   3.148   8.528  0.4675  0.9219 -0.4173
  175SOPE  H15X19954   5.910   3.154   8.417 -4.3674  2.9773 -0.4359
  175SOPE  H15Y19955   5.847   3.233   8.557 -1.3632 -1.0880  1.6890
  175SOPE  C31619956   5.848   3.016   8.569  0.1226 -0.1889 -0.2068
  175SOPE  H16X19957   5.877   2.985   8.672 -1.4578 -4.2070 -0.7818
  175SOPE  H16Y19958   5.882   2.927   8.514 -0.9592 -0.3607 -0.6325
  175SOPE  C31719959   5.692   3.008   8.570  0.3713  0.4080  1.0344
  175SOPE  H17X19960   5.662   2.903   8.593 -0.7061  0.5415  0.3088
  175SOPE  H17Y19961   5.655   3.052   8.475  0.5068  0.2003  0.8858
  175SOPE  C31819962   5.626   3.087   8.680  0.0117 -0.7305 -0.0655
  175SOPE  H18X19963   5.669   3.189   8.695 -3.1256  1.4153 -3.7970
  175SOPE  H18Y19964   5.652   3.040   8.777  1.2350 -0.5464 -0.2781
  175SOPE  H18Z19965   5.518   3.091   8.657  0.5191 -0.9105 -2.8888
  176SOPE     N19966   6.005   1.858  10.992 -0.4074 -0.3152  0.6748
  176SOPE   HN119967   6.103   1.842  10.961 -0.6070 -1.3936  0.5409
  176SOPE   HN219968   5.960   1.770  11.025 -1.0864  0.5918  2.2626
  176SOPE   HN319969   5.954   1.901  10.912  0.6616  3.4593  1.8144
  176SOPE   C1219970   6.014   1.962  11.103 -0.3473 -0.0014 -0.3903
  176SOPE  H12A19971   6.092   1.923  11.173  0.9351  1.5412 -0.9026
  176SOPE  H12B19972   5.913   1.960  11.150 -0.3160  1.2735 -0.2377
  176SOPE   C1119973   6.076   2.089  11.054 -0.5879 -0.6969  0.1890
  176SOPE  H11A19974   6.102   2.152  11.141  0.2890  0.4328 -0.8483
  176SOPE  H11B19975   6.003   2.148  10.994 -1.1642 -2.1790 -0.6162
  176SOPE     P19976   6.248   2.172  10.872 -0.2979 -0.4473  0.6115
  176SOPE   O1319977   6.390   2.192  10.898  0.3283 -0.3007 -0.2389
  176SOPE   O1419978   6.159   2.294  10.884 -0.2175  0.3854  0.4383
  176SOPE   O1219979   6.181   2.061  10.961 -0.1904 -0.3425 -0.3403
  176SOPE   O1119980   6.248   2.119  10.725  0.3717 -0.2350  0.8423
  176SOPE    C119981   6.196   1.988  10.698  0.1867 -0.6549 -0.4048
  176SOPE    HA19982   6.107   1.964  10.760 -0.3058 -1.4218 -1.3940
  176SOPE    HB19983   6.263   1.902  10.716 -1.0846 -1.3420  1.3365
  176SOPE    C219984   6.155   1.965  10.550 -0.1617  0.5054 -0.0324
  176SOPE    HS19985   6.251   1.960  10.493 -1.4036 -2.8699 -2.1431
  176SOPE   O2119986   6.070   2.066  10.502  0.2306  1.1560 -0.0627
  176SOPE   C2119987   6.127   2.170  10.458 -0.2839  0.0320 -1.1145
  176SOPE   O2219988   6.250   2.190  10.465  0.3360  0.0016  0.5429
  176SOPE   C2219989   6.025   2.245  10.367 -0.0713 -0.4036  0.3013
  176SOPE   H2R19990   5.969   2.309  10.439 -1.2198 -0.0815 -0.8313
  176SOPE   H2S19991   5.946   2.177  10.327 -0.6317 -0.0157  0.7396
  176SOPE    C319992   6.098   1.827  10.517 -0.0986  0.0330 -0.5431
  176SOPE    HX19993   6.077   1.823  10.408 -0.5942  0.1573 -0.4574
  176SOPE    HY19994   5.997   1.811  10.563  0.8734 -0.7116  1.4608
  176SOPE   O3119995   6.183   1.720  10.546 -0.0050  0.3561 -0.6920
  176SOPE   C3119996   6.160   1.656  10.655  0.5273  0.1637  0.9471
  176SOPE   O3219997   6.086   1.695  10.750 -1.2405  0.0240 -0.0779
  176SOPE   C3219998   6.242   1.528  10.658 -0.0428 -0.5154 -0.0440
  176SOPE   H2X19999   6.192   1.470  10.739  0.7238 -1.3159 -0.1273
  176SOPE   H2Y20000   6.347   1.559  10.675  0.1766 -0.7684 -0.9309
  176SOPE   C2320001   6.091   2.347  10.263  0.5341 -1.1435  0.0775
  176SOPE   H3R20002   6.122   2.280  10.180 -0.4059 -1.3565 -0.1128
  176SOPE   H3S20003   6.186   2.385  10.307  1.3742 -0.6757 -2.0332
  176SOPE   C2420004   5.996   2.467  10.225  0.0885  0.6404  1.0744
  176SOPE   H4R20005   5.963   2.517  10.319  0.0856 -0.4815  1.6953
  176SOPE   H4S20006   6.053   2.526  10.151  0.5294  0.3734  1.1983
  176SOPE   C2520007   5.868   2.420  10.146 -0.4838 -0.6850  0.2828
  176SOPE   H5R20008   5.802   2.361  10.213 -1.1034 -0.5320 -0.1820
  176SOPE   H5S20009   5.799   2.506  10.134  1.5570  0.9273 -0.5683
  176SOPE   C2620010   5.888   2.340  10.016  0.8336  0.1052 -0.1426
  176SOPE   H6R20011   5.948   2.249  10.036  1.5991 -0.1364 -3.1363
  176SOPE   H6S20012   5.795   2.297   9.974  0.6744 -1.4614  1.6639
  176SOPE   C2720013   5.954   2.425   9.905 -0.0616  0.5903  0.4399
  176SOPE   H7R20014   5.891   2.514   9.887  1.4386  1.4573 -0.7246
  176SOPE   H7S20015   6.054   2.461   9.937  0.2836 -0.4934  0.6270
  176SOPE   C2820016   5.954   2.360   9.769  0.8445  0.2187 -0.6332
  176SOPE   H8R20017   5.851   2.323   9.751  1.4072 -1.4746 -0.5531
  176SOPE   H8S20018   5.966   2.442   9.695  0.0897  3.7375  2.8137
  176SOPE   C2920019   6.053   2.243   9.748  0.6934 -0.1133 -0.0412
  176SOPE   H9120020   6.131   2.234   9.825  2.3647  1.7358 -1.3908
  176SOPE  C21020021   6.048   2.134   9.670  0.2513 -0.7870  0.3107
  176SOPE  H10120022   6.130   2.062   9.672  1.2144  0.2412 -0.5863
  176SOPE  C21120023   5.932   2.108   9.573  0.1223 -0.3164  0.2955
  176SOPE  H11R20024   5.860   2.192   9.579  0.5995  0.2858 -1.8056
  176SOPE  H11S20025   5.870   2.023   9.609 -1.6773  0.0440 -1.7918
  176SOPE  C21220026   5.964   2.107   9.421  0.1169  0.0993  0.4689
  176SOPE  H12R20027   5.989   2.198   9.363 -2.2606 -1.2605 -3.0105
  176SOPE  H12S20028   5.862   2.079   9.388 -0.4106 -0.5522  2.5230
  176SOPE  C21320029   6.062   1.999   9.374 -0.5499  0.0454 -0.1318
  176SOPE  H13R20030   6.075   1.921   9.453 -1.4197 -1.1174 -1.0961
  176SOPE  H13S20031   6.158   2.046   9.345 -1.0639  1.8663  0.9484
  176SOPE  C21420032   6.014   1.936   9.248  0.2000 -0.7530  1.0510
  176SOPE  H14R20033   5.926   1.870   9.269 -0.7270  1.0907  3.3182
  176SOPE  H14S20034   6.089   1.877   9.191  0.7356  2.3380 -1.7509
  176SOPE  C21520035   5.988   2.035   9.133  1.1602  0.4480 -0.5222
  176SOPE  H15R20036   6.049   2.126   9.153  0.5050  0.5499  1.1727
  176SOPE  H15S20037   5.887   2.079   9.122  0.3871 -1.3757 -0.9173
  176SOPE  C21620038   6.013   1.980   8.993  0.0843  0.3548  0.5045
  176SOPE  H16R20039   5.942   1.898   8.971 -0.4062  0.9601 -0.2010
  176SOPE  H16S20040   6.115   1.935   8.998 -0.6190 -1.2720  0.4908
  176SOPE  C21720041   5.992   2.084   8.886  0.1785 -0.2645 -0.3345
  176SOPE  H17R20042   6.069   2.164   8.882  2.0026 -1.9857 -1.1101
  176SOPE  H17S20043   5.895   2.136   8.902  0.1717  0.4764 -2.4287
  176SOPE  C21820044   5.990   2.036   8.740 -0.5940  0.0507  0.2578
  176SOPE  H18R20045   5.984   2.121   8.669 -1.5631 -0.4398 -0.2587
  176SOPE  H18S20046   5.900   1.976   8.717 -0.5906  1.0342 -2.6847
  176SOPE  H18T20047   6.085   1.984   8.714 -0.4434  1.6373 -2.7530
  176SOPE   C3320048   6.242   1.455  10.520  1.1902 -0.1202 -0.0501
  176SOPE   H3X20049   6.299   1.359  10.528  1.1163 -0.0036  3.0338
  176SOPE   H3Y20050   6.287   1.518  10.440 -0.8477 -0.7474 -1.7929
  176SOPE   C3420051   6.093   1.416  10.475 -0.0723  0.5585 -0.3766
  176SOPE   H4X20052   6.038   1.512  10.476  0.1281  0.7430 -2.4593
  176SOPE   H4Y20053   6.057   1.341  10.549  0.2349  0.3872 -0.3967
  176SOPE   C3520054   6.080   1.351  10.336 -0.0964 -0.2486  0.7391
  176SOPE   H5X20055   5.974   1.343  10.302  0.2253  2.4658 -1.3441
  176SOPE   H5Y20056   6.103   1.243  10.329  0.1923 -0.2079  1.0656
  176SOPE   C3620057   6.166   1.419  10.222  1.0527 -0.3518 -0.4109
  176SOPE   H6X20058   6.271   1.400  10.252  0.8460 -1.2536 -0.2284
  176SOPE   H6Y20059   6.141   1.527  10.234 -2.5007 -1.3116  3.1956
  176SOPE   C3720060   6.144   1.371  10.086  0.0047 -0.0719  0.6572
  176SOPE   H7X20061   6.033   1.371  10.084 -0.0565  1.9374  1.4679
  176SOPE   H7Y20062   6.179   1.271  10.053 -1.0777  0.0090 -0.8467
  176SOPE   C3820063   6.198   1.474   9.978 -0.1129 -0.1639 -0.5127
  176SOPE   H8X20064   6.302   1.503  10.003 -0.1892 -0.2506 -0.0743
  176SOPE   H8Y20065   6.133   1.564   9.977 -0.2514 -0.2380  0.3662
  176SOPE   C3920066   6.202   1.417   9.835 -0.3806 -0.3117 -0.5915
  176SOPE   H9X20067   6.099   1.376   9.827 -0.9121  0.9948 -0.6815
  176SOPE   H9Y20068   6.273   1.332   9.821  0.9350  0.6400  0.1243
  176SOPE  C31020069   6.204   1.533   9.728 -0.0896  0.9336 -0.0762
  176SOPE  H10X20070   6.285   1.605   9.752  0.2511  0.6401 -0.3371
  176SOPE  H10Y20071   6.107   1.588   9.720 -0.5549 -0.0265 -1.6547
  176SOPE  C31120072   6.238   1.471   9.588  0.2569 -0.7383 -0.3538
  176SOPE  H11X20073   6.147   1.414   9.562  0.4890 -0.0996 -2.8219
  176SOPE  H11Y20074   6.317   1.396   9.610 -0.8721 -1.8002  0.1322
  176SOPE  C31220075   6.271   1.575   9.481 -0.0015  0.2191  0.3487
  176SOPE  H12X20076   6.342   1.652   9.517 -0.4459  0.3608  0.9423
  176SOPE  H12Y20077   6.179   1.627   9.446  2.1924  1.9540 -3.4338
  176SOPE  C31320078   6.340   1.524   9.364 -0.3541  0.5865 -0.1869
  176SOPE  H13X20079   6.359   1.607   9.292 -0.6806 -0.6819 -1.8132
  176SOPE  H13Y20080   6.276   1.454   9.306 -0.2912  0.3772 -0.0047
  176SOPE  C31420081   6.483   1.460   9.385  0.2917  0.0563  0.4536
  176SOPE  H14X20082   6.465   1.353   9.410 -1.0685 -0.7570 -3.2982
  176SOPE  H14Y20083   6.528   1.504   9.477  0.2154  0.1044  0.4685
  176SOPE  C31520084   6.571   1.479   9.255  0.6261 -0.4751  0.5451
  176SOPE  H15X20085   6.678   1.462   9.279  0.9621 -0.6580 -1.0014
  176SOPE  H15Y20086   6.560   1.581   9.212  3.3169 -0.0603  0.6338
  176SOPE  C31620087   6.535   1.387   9.134  0.9256  0.4506  0.2889
  176SOPE  H16X20088   6.428   1.406   9.112  1.4059  2.1453 -0.6605
  176SOPE  H16Y20089   6.530   1.280   9.164 -0.6777  0.4620  0.1812
  176SOPE  C31720090   6.630   1.397   9.011  0.4385 -0.0068  0.1966
  176SOPE  H17X20091   6.730   1.357   9.039  0.3482  0.8393  1.8824
  176SOPE  H17Y20092   6.646   1.502   8.977  2.5829 -0.4406 -0.2616
  176SOPE  C31820093   6.573   1.297   8.905 -0.8565 -0.7047 -0.0577
  176SOPE  H18X20094   6.462   1.305   8.907 -0.9072 -1.1658 -0.7260
  176SOPE  H18Y20095   6.594   1.191   8.933  0.1557 -0.6707 -0.6381
  176SOPE  H18Z20096   6.621   1.316   8.807 -0.3658 -0.2870  0.2613
  177SOPE     N20097   4.994   6.510  10.897 -0.0065  0.1329  0.5571
  177SOPE   HN120098   4.933   6.537  10.977 -2.4922 -0.3304 -1.0575
  177SOPE   HN220099   5.091   6.539  10.920  0.0157  2.2790 -1.7458
  177SOPE   HN320100   4.971   6.568  10.813  1.5408  0.1428  0.1259
  177SOPE   C1220101   4.971   6.363  10.874  0.2770 -0.2542 -0.2480
  177SOPE  H12A20102   5.046   6.321  10.804 -1.0625  1.8135 -3.1073
  177SOPE  H12B20103   4.876   6.355  10.817  0.6942  1.2005 -1.1936
  177SOPE   C1120104   4.969   6.296  11.012 -0.3599  0.2348  0.7190
  177SOPE  H11A20105   5.014   6.357  11.093  0.8092 -1.1470  1.1521
  177SOPE  H11B20106   5.044   6.214  11.006 -0.8501 -0.1353 -1.9771
  177SOPE     P20107   4.796   6.102  11.029  0.0877  0.1120 -0.0850
  177SOPE   O1320108   4.676   6.096  11.115 -0.2678  0.8380  0.2767
  177SOPE   O1420109   4.903   6.013  11.067 -0.7552  1.1531 -0.7978
  177SOPE   O1220110   4.840   6.253  11.045  0.4319  0.8416 -0.4479
  177SOPE   O1120111   4.757   6.085  10.870 -1.1002  0.3328 -0.3214
  177SOPE    C120112   4.649   6.157  10.827 -0.4653  0.2566 -0.0918
  177SOPE    HA20113   4.655   6.267  10.843 -0.1694  0.0031  1.7758
  177SOPE    HB20114   4.557   6.106  10.861 -1.2684  0.3873 -1.9204
  177SOPE    C220115   4.649   6.151  10.671 -0.5806 -0.2065 -0.9365
  177SOPE    HS20116   4.644   6.045  10.640  1.7843 -0.5486 -0.3128
  177SOPE   O2120117   4.774   6.208  10.624  0.3313 -0.8840 -0.2422
  177SOPE   C2120118   4.850   6.146  10.544 -0.1706  0.8137 -0.1168
  177SOPE   O2220119   4.861   6.019  10.545  0.0639  0.3019  0.1410
  177SOPE   C2220120   4.950   6.237  10.474 -0.2479  0.0549  0.0883
  177SOPE   H2R20121   5.045   6.205  10.522  0.7531  2.8397  0.1220
  177SOPE   H2S20122   4.923   6.344  10.488  0.2309  0.2245 -0.2652
  177SOPE    C320123   4.526   6.234  10.623 -0.0533  0.1748  0.1890
  177SOPE    HX20124   4.559   6.340  10.621 -0.0236  0.1675  0.2883
  177SOPE    HY20125   4.447   6.225  10.700 -0.3569 -1.3259 -0.2663
  177SOPE   O3120126   4.468   6.186  10.501  0.0123 -0.6009 -0.1719
  177SOPE   C3120127   4.485   6.265  10.396 -0.2328 -0.1584  0.0750
  177SOPE   O3220128   4.520   6.381  10.391 -0.0099 -0.8142 -0.2179
  177SOPE   C3220129   4.418   6.186  10.271 -0.0330 -0.3690 -0.9238
  177SOPE   H2X20130   4.310   6.169  10.291  0.3602 -1.1629  0.6533
  177SOPE   H2Y20131   4.455   6.081  10.274  3.3535  0.7362  0.2011
  177SOPE   C2320132   4.935   6.217  10.317  0.5814 -0.4997  0.4092
  177SOPE   H3R20133   4.934   6.114  10.274  1.3487  0.4835 -2.1582
  177SOPE   H3S20134   5.030   6.261  10.281  0.1362 -0.7429 -1.1207
  177SOPE   C2420135   4.829   6.300  10.253  0.4044 -0.4197  0.7453
  177SOPE   H4R20136   4.724   6.300  10.289  0.3013  2.1552  0.6619
  177SOPE   H4S20137   4.852   6.409  10.258 -1.2539  0.2177 -2.5280
  177SOPE   C2520138   4.844   6.277  10.099  0.2129  0.2150 -0.5457
  177SOPE   H5R20139   4.952   6.294  10.081  0.9841 -2.9479  0.3656
  177SOPE   H5S20140   4.821   6.170  10.077  1.8280  0.0139 -1.3243
  177SOPE   C2620141   4.764   6.367  10.008 -0.3870  0.1698  0.6223
  177SOPE   H6R20142   4.655   6.367  10.032 -1.2860 -0.4846 -2.8607
  177SOPE   H6S20143   4.802   6.471  10.014  1.4782 -0.3292 -1.1590
  177SOPE   C2720144   4.763   6.337   9.855 -0.0644 -0.5241  0.2859
  177SOPE   H7R20145   4.705   6.243   9.839 -2.4705  0.8268  0.6696
  177SOPE   H7S20146   4.705   6.420   9.809 -1.0727 -1.2182  0.2546
  177SOPE   C2820147   4.905   6.336   9.795 -0.4455  0.5848 -0.3245
  177SOPE   H8R20148   4.946   6.437   9.817 -1.2086  0.6503  0.8663
  177SOPE   H8S20149   4.975   6.263   9.841 -0.3121  0.8985 -0.0200
  177SOPE   C2920150   4.896   6.303   9.651 -0.3162 -0.3227  0.3905
  177SOPE   H9120151   4.823   6.226   9.623 -0.0876 -0.5486  0.4098
  177SOPE  C21020152   4.966   6.356   9.552 -0.0097 -0.1741  0.4660
  177SOPE  H10120153   4.960   6.318   9.449 -0.0112 -0.7072  0.6557
  177SOPE  C21120154   5.075   6.459   9.574 -0.1177 -0.0631 -0.5757
  177SOPE  H11R20155   5.162   6.417   9.519 -0.3526  0.2410 -1.1926
  177SOPE  H11S20156   5.103   6.449   9.681  0.3497  0.4314 -0.6466
  177SOPE  C21220157   5.043   6.600   9.533 -0.6790 -0.5980  0.6724
  177SOPE  H12R20158   5.134   6.661   9.551 -1.4933  1.3124 -1.2511
  177SOPE  H12S20159   4.970   6.634   9.610  1.8853  0.7047  2.6848
  177SOPE  C21320160   4.990   6.622   9.389  0.8416 -0.3247 -0.5533
  177SOPE  H13R20161   4.945   6.724   9.382  0.1443 -0.1082  3.9644
  177SOPE  H13S20162   4.906   6.553   9.369  2.4164 -2.5591  0.1697
  177SOPE  C21420163   5.098   6.601   9.278  0.3461  0.7129 -0.7172
  177SOPE  H14R20164   5.138   6.498   9.287 -2.2598 -0.2738  0.5671
  177SOPE  H14S20165   5.176   6.675   9.306 -1.6060  1.6047  3.0042
  177SOPE  C21520166   5.050   6.629   9.133  0.5895 -0.0342  0.0101
  177SOPE  H15R20167   5.028   6.738   9.121 -1.0021 -0.3892 -0.4403
  177SOPE  H15S20168   4.951   6.583   9.115  0.5046 -1.1399  2.8164
  177SOPE  C21620169   5.153   6.579   9.030  0.0406 -0.6632  0.1253
  177SOPE  H16R20170   5.165   6.470   9.018  1.4319 -0.3343 -2.1737
  177SOPE  H16S20171   5.253   6.606   9.071 -0.4066 -0.0773  0.8601
  177SOPE  C21720172   5.133   6.639   8.889  0.7660  0.1489  0.9074
  177SOPE  H17R20173   5.120   6.749   8.900  3.4706  0.4289  2.2088
  177SOPE  H17S20174   5.036   6.598   8.854  0.2519  1.1326  1.1327
  177SOPE  C21820175   5.234   6.598   8.788 -0.6068  0.5204 -0.1366
  177SOPE  H18R20176   5.204   6.619   8.683 -0.3762 -1.7244 -0.6876
  177SOPE  H18S20177   5.248   6.488   8.792  0.0732  0.6260  0.7392
  177SOPE  H18T20178   5.328   6.651   8.814 -1.2039  0.0063  3.5429
  177SOPE   C3320179   4.448   6.237  10.130 -0.9767  0.3920 -0.2383
  177SOPE   H3X20180   4.545   6.188  10.108 -0.2566  1.8938 -0.5356
  177SOPE   H3Y20181   4.466   6.346  10.133  1.1943  0.0827 -0.5461
  177SOPE   C3420182   4.337   6.203  10.023  0.3090  0.3360 -0.3299
  177SOPE   H4X20183   4.242   6.239  10.068  0.5384 -0.6934  1.0602
  177SOPE   H4Y20184   4.321   6.093  10.024 -1.9434  0.6119  0.9554
  177SOPE   C3520185   4.365   6.252   9.879 -0.6928  0.3956 -0.0730
  177SOPE   H5X20186   4.460   6.213   9.839 -0.6854  0.3087  0.0286
  177SOPE   H5Y20187   4.362   6.363   9.870 -1.0744  0.3140 -1.0813
  177SOPE   C3620188   4.246   6.207   9.792  0.0911 -0.5440 -0.0099
  177SOPE   H6X20189   4.154   6.258   9.829  0.3870  0.2712 -0.3654
  177SOPE   H6Y20190   4.226   6.098   9.803 -0.3008 -0.6582 -1.5184
  177SOPE   C3720191   4.290   6.238   9.649 -0.4200  0.4665 -0.1358
  177SOPE   H7X20192   4.390   6.193   9.629  0.2356  1.6794  0.2877
  177SOPE   H7Y20193   4.300   6.349   9.655  0.8715  0.3019  1.6999
  177SOPE   C3820194   4.183   6.201   9.542 -0.1083 -0.3107  0.0941
  177SOPE   H8X20195   4.080   6.212   9.580  0.8653  1.7310  2.4518
  177SOPE   H8Y20196   4.189   6.094   9.514 -2.5868 -0.5643  0.3652
  177SOPE   C3920197   4.188   6.280   9.407  0.4384  0.3940  0.7591
  177SOPE   H9X20198   4.292   6.270   9.370  0.5957  2.2445  0.6230
  177SOPE   H9Y20199   4.157   6.386   9.421 -0.6571  0.4055 -1.2867
  177SOPE  C31020200   4.116   6.212   9.291 -0.0522  0.5728 -0.1521
  177SOPE  H10X20201   4.007   6.228   9.304 -0.1974 -0.1169 -0.4596
  177SOPE  H10Y20202   4.143   6.104   9.289 -0.7329  0.3810 -2.5945
  177SOPE  C31120203   4.150   6.255   9.143  0.2996 -0.3175  0.5719
  177SOPE  H11X20204   4.260   6.250   9.136  0.1666 -1.9086 -2.3406
  177SOPE  H11Y20205   4.131   6.360   9.112  2.4134 -0.3051 -0.9102
  177SOPE  C31220206   4.108   6.157   9.026 -0.2134  0.4983 -1.3829
  177SOPE  H12X20207   3.998   6.160   9.018 -0.4550  0.9376  1.4032
  177SOPE  H12Y20208   4.146   6.058   9.059 -2.0253 -0.6983 -2.6967
  177SOPE  C31320209   4.175   6.203   8.891 -0.0030  0.5782 -0.1268
  177SOPE  H13X20210   4.283   6.226   8.907  0.4010 -0.1520 -1.6041
  177SOPE  H13Y20211   4.123   6.296   8.858  0.3684  0.4140 -1.2136
  177SOPE  C31420212   4.160   6.098   8.785  0.9807 -0.3935 -0.5155
  177SOPE  H14X20213   4.057   6.085   8.748 -0.2209  0.9991  2.0671
  177SOPE  H14Y20214   4.185   6.004   8.840 -0.8827  0.4335  1.9387
  177SOPE  C31520215   4.258   6.098   8.666 -0.0195 -0.6091 -0.4996
  177SOPE  H15X20216   4.365   6.093   8.694  0.0017 -0.4691 -0.5570
  177SOPE  H15Y20217   4.231   6.194   8.618 -1.3840 -0.3488  0.7113
  177SOPE  C31620218   4.221   5.987   8.571 -0.1114  0.0270  0.7511
  177SOPE  H16X20219   4.111   5.986   8.554 -0.0335 -0.5956  0.2554
  177SOPE  H16Y20220   4.237   5.894   8.628 -1.4192 -0.0170  1.0878
  177SOPE  C31720221   4.303   5.969   8.437  0.0625 -0.1526 -0.1877
  177SOPE  H17X20222   4.284   6.063   8.381 -0.0293  0.3021  0.5914
  177SOPE  H17Y20223   4.253   5.893   8.374  2.2760 -1.4764 -0.4615
  177SOPE  C31820224   4.448   5.933   8.458  0.3580 -0.2110 -0.4046
  177SOPE  H18X20225   4.465   5.841   8.517 -1.3879  1.1048  2.3792
  177SOPE  H18Y20226   4.512   6.009   8.509  0.7846 -0.9136  0.1159
  177SOPE  H18Z20227   4.487   5.926   8.354  2.1531 -0.6681  0.2643
  178SOPE     N20228   2.921   4.336  10.893 -0.2068  0.4704 -0.1645
  178SOPE   HN120229   3.021   4.352  10.918 -0.4256  1.5969  0.0178
  178SOPE   HN220230   2.919   4.245  10.843  1.9092 -1.2732  2.5788
  178SOPE   HN320231   2.887   4.403  10.822  1.3657  1.2077 -0.2595
  178SOPE   C1220232   2.838   4.306  11.011  0.5158  0.3380 -0.0831
  178SOPE  H12A20233   2.859   4.383  11.088  0.1958 -0.8815  1.2870
  178SOPE  H12B20234   2.883   4.212  11.048 -0.2724 -0.4486 -1.0531
  178SOPE   C1120235   2.684   4.284  10.994 -0.9079  0.1446 -0.2623
  178SOPE  H11A20236   2.642   4.387  10.991  1.0941  1.0730  0.9759
  178SOPE  H11B20237   2.646   4.241  11.088  0.1244  1.1915  0.6674
  178SOPE     P20238   2.512   4.165  10.840  0.0627  0.1714 -0.1090
  178SOPE   O1320239   2.402   4.231  10.907  0.1063 -0.8119 -0.5055
  178SOPE   O1420240   2.518   4.015  10.859  0.1387 -0.8678  0.1969
  178SOPE   O1220241   2.653   4.221  10.877 -0.2879 -0.3166 -0.1255
  178SOPE   O1120242   2.502   4.186  10.686  0.2381  0.1762  0.0718
  178SOPE    C120243   2.565   4.294  10.621 -0.5189  0.2727 -0.0092
  178SOPE    HA20244   2.594   4.377  10.689  1.4068 -2.0047  2.1768
  178SOPE    HB20245   2.513   4.346  10.538  0.0021 -0.0177 -0.5300
  178SOPE    C220246   2.698   4.246  10.554  0.0426 -0.7714  0.2335
  178SOPE    HS20247   2.765   4.217  10.637  0.2230  1.1689  0.8135
  178SOPE   O2120248   2.763   4.349  10.474  0.2973  0.2899  0.0304
  178SOPE   C2120249   2.845   4.422  10.534 -0.5853 -0.0640 -0.0187
  178SOPE   O2220250   2.857   4.448  10.653 -0.4902  0.0898 -0.2586
  178SOPE   C2220251   2.926   4.483  10.425  0.0528  0.6327 -0.5867
  178SOPE   H2R20252   2.997   4.562  10.459  0.5792  1.4919 -3.4077
  178SOPE   H2S20253   2.863   4.534  10.349 -0.4972  0.3713 -0.3195
  178SOPE    C320254   2.682   4.112  10.471  0.7982  0.0657  0.3619
  178SOPE    HX20255   2.637   4.149  10.376  2.0046  0.0572 -0.2282
  178SOPE    HY20256   2.627   4.032  10.526  0.7407  0.2113  0.5167
  178SOPE   O3120257   2.811   4.064  10.422  0.3256 -0.2174  0.1515
  178SOPE   C3120258   2.793   3.949  10.359 -0.1762 -0.0343  0.1793
  178SOPE   O3220259   2.683   3.900  10.337 -0.6998  0.4087 -0.0928
  178SOPE   C3220260   2.922   3.879  10.327  0.3756  0.5624 -0.1500
  178SOPE   H2X20261   2.900   3.794  10.259  4.0665 -0.7824  0.1144
  178SOPE   H2Y20262   2.956   3.832  10.422  1.5273 -1.2330 -1.3806
  178SOPE   C2320263   3.013   4.372  10.367 -0.3081 -0.4287  0.8682
  178SOPE   H3R20264   2.949   4.298  10.314 -0.3712 -1.0915  1.8512
  178SOPE   H3S20265   3.061   4.313  10.448 -1.4611  0.9411  2.6227
  178SOPE   C2420266   3.112   4.431  10.263 -0.9955  0.6228 -0.0964
  178SOPE   H4R20267   3.171   4.507  10.318 -2.9306 -0.0302  3.1130
  178SOPE   H4S20268   3.180   4.346  10.239  0.1953  1.0570  1.5785
  178SOPE   C2520269   3.047   4.471  10.137  0.1348 -0.1522 -0.7157
  178SOPE   H5R20270   2.979   4.393  10.097 -1.4019  0.0543  1.3161
  178SOPE   H5S20271   2.985   4.559  10.166 -0.2263 -1.0627  1.4673
  178SOPE   C2620272   3.148   4.508  10.033 -0.2338 -0.0105  0.2778
  178SOPE   H6R20273   3.199   4.602  10.063  3.9454 -1.3007 -2.0236
  178SOPE   H6S20274   3.222   4.425  10.022 -1.6637 -1.6033  1.8344
  178SOPE   C2720275   3.077   4.538   9.896 -0.0477 -0.2163 -0.3684
  178SOPE   H7R20276   3.025   4.445   9.864 -1.2503  0.0722  0.6872
  178SOPE   H7S20277   3.002   4.618   9.913  0.7257  0.3896  0.3065
  178SOPE   C2820278   3.170   4.589   9.783 -0.6437  0.4701  0.6081
  178SOPE   H8R20279   3.246   4.660   9.820  0.1044  0.9169 -1.6304
  178SOPE   H8S20280   3.232   4.501   9.753 -1.2371 -0.1058  1.0262
  178SOPE   C2920281   3.093   4.649   9.669  0.1738 -0.1054  0.1442
  178SOPE   H9120282   3.038   4.741   9.691  2.5425  0.5130  4.6786
  178SOPE  C21020283   3.060   4.587   9.556  0.6631  0.0226  0.5629
  178SOPE  H10120284   3.009   4.646   9.478  0.8196 -1.5749 -0.8059
  178SOPE  C21120285   3.106   4.447   9.506 -0.1111 -0.2509 -0.3484
  178SOPE  H11R20286   3.022   4.374   9.504  0.0880 -0.5745  1.2212
  178SOPE  H11S20287   3.175   4.398   9.578  1.3986  0.1699 -1.4695
  178SOPE  C21220288   3.184   4.448   9.375  0.3097 -0.3835  0.4660
  178SOPE  H12R20289   3.283   4.495   9.394 -0.6293  1.5756  0.8095
  178SOPE  H12S20290   3.134   4.507   9.295 -2.7004 -0.4802  2.1393
  178SOPE  C21320291   3.203   4.308   9.325 -0.0327  0.8099 -0.6751
  178SOPE  H13R20292   3.114   4.252   9.289 -0.2223  0.5440  0.1831
  178SOPE  H13S20293   3.238   4.246   9.410  0.7751  0.9403 -0.9028
  178SOPE  C21420294   3.307   4.289   9.217 -0.0222 -0.4192 -0.1025
  178SOPE  H14R20295   3.324   4.183   9.188 -1.2296 -1.1517  1.7122
  178SOPE  H14S20296   3.403   4.326   9.259  1.0894  1.1039 -3.6420
  178SOPE  C21520297   3.278   4.361   9.084  0.7663 -0.0685 -0.6454
  178SOPE  H15R20298   3.361   4.346   9.012  0.5327 -0.9651 -0.7419
  178SOPE  H15S20299   3.268   4.470   9.104 -0.4494 -0.3551  0.4280
  178SOPE  C21620300   3.147   4.310   9.018 -0.4419 -0.1662 -0.2498
  178SOPE  H16R20301   3.066   4.364   9.070 -0.8008 -0.4511 -0.5119
  178SOPE  H16S20302   3.143   4.199   9.019 -0.2084 -0.1933  1.5137
  178SOPE  C21720303   3.162   4.352   8.872  0.4658  0.1874 -0.1378
  178SOPE  H17R20304   3.245   4.299   8.820 -0.9667 -0.5942 -1.7419
  178SOPE  H17S20305   3.185   4.460   8.860  2.1095 -0.1310 -0.0847
  178SOPE  C21820306   3.030   4.318   8.800 -0.0088 -0.2090 -0.2285
  178SOPE  H18R20307   2.958   4.397   8.830 -0.0612  0.3153 -1.6622
  178SOPE  H18S20308   2.994   4.219   8.835  1.4298 -1.4213 -1.9796
  178SOPE  H18T20309   3.045   4.328   8.690  0.5839  0.6100 -0.0862
  178SOPE   C3320310   3.033   3.973  10.263 -0.3756  0.1510 -0.6065
  178SOPE   H3X20311   3.120   3.908  10.243 -0.6783 -1.0842  1.7059
  178SOPE   H3Y20312   3.066   4.042  10.344  0.3808  1.0395 -1.6478
  178SOPE   C3420313   2.996   4.053  10.134  0.0577  0.2075  0.3927
  178SOPE   H4X20314   3.085   4.103  10.090  0.8709 -1.3915  0.1770
  178SOPE   H4Y20315   2.916   4.128  10.157 -0.2960 -0.7372  2.5484
  178SOPE   C3520316   2.952   3.956  10.020 -0.1281 -0.2530 -0.5844
  178SOPE   H5X20317   2.858   3.903  10.046  0.1048  0.3507  1.7053
  178SOPE   H5Y20318   3.026   3.876  10.000 -0.9921 -0.7558 -1.8719
  178SOPE   C3620319   2.936   4.011   9.879 -0.4439 -0.6414  0.3634
  178SOPE   H6X20320   3.029   4.069   9.860 -1.2188  0.2069 -0.9840
  178SOPE   H6Y20321   2.850   4.082   9.877 -1.6810 -1.8128  3.7750
  178SOPE   C3720322   2.936   3.910   9.773 -0.2554 -0.3532  0.2405
  178SOPE   H7X20323   2.870   3.828   9.808  0.1504 -0.6348  0.3619
  178SOPE   H7Y20324   3.037   3.870   9.748 -0.5448 -1.7437  1.1575
  178SOPE   C3820325   2.868   3.967   9.641 -0.0491  0.8276  0.2895
  178SOPE   H8X20326   2.783   4.026   9.681  1.2808  1.9801  1.4623
  178SOPE   H8Y20327   2.828   3.882   9.580  1.7481  1.2634 -1.5932
  178SOPE   C3920328   2.951   4.056   9.543  0.0042  0.1875  0.3621
  178SOPE   H9X20329   3.050   4.006   9.535  0.4851  1.1822 -0.1279
  178SOPE   H9Y20330   2.975   4.148   9.602  3.0459 -1.0935  1.3023
  178SOPE  C31020331   2.894   4.086   9.407 -0.4737  0.4730  0.4230
  178SOPE  H10X20332   2.946   4.175   9.364 -0.1980 -0.4032 -1.1652
  178SOPE  H10Y20333   2.787   4.116   9.405 -0.2062  1.4843 -1.2965
  178SOPE  C31120334   2.914   3.978   9.298  0.1500 -0.0421  0.1256
  178SOPE  H11X20335   2.894   3.877   9.338  0.6187  0.2447  1.1083
  178SOPE  H11Y20336   3.023   3.983   9.278  0.2807  3.3673  1.0889
  178SOPE  C31220337   2.828   4.001   9.172 -0.2717 -0.0753  0.1625
  178SOPE  H12X20338   2.848   4.101   9.126 -2.2863  0.2375 -0.1302
  178SOPE  H12Y20339   2.726   4.013   9.215 -0.6029 -2.5842  0.2035
  178SOPE  C31320340   2.838   3.887   9.066  0.0765 -0.0876  0.5130
  178SOPE  H13X20341   2.786   3.800   9.112 -1.4678 -0.5507 -1.9414
  178SOPE  H13Y20342   2.941   3.848   9.053  1.1259  2.7649 -0.5847
  178SOPE  C31420343   2.776   3.933   8.932 -0.1726 -0.3105  0.0028
  178SOPE  H14X20344   2.825   4.027   8.901 -0.7943 -0.1732 -0.5775
  178SOPE  H14Y20345   2.671   3.958   8.961  0.0984  2.0537 -0.8394
  178SOPE  C31520346   2.786   3.837   8.813  0.0091 -0.2456  0.4599
  178SOPE  H15X20347   2.688   3.859   8.765 -0.0147  0.0698  0.6516
  178SOPE  H15Y20348   2.785   3.734   8.855  1.4505  0.2426  1.7967
  178SOPE  C31620349   2.908   3.865   8.724 -0.0229  0.4124 -0.0553
  178SOPE  H16X20350   2.992   3.885   8.794 -0.6669 -2.7454  1.8153
  178SOPE  H16Y20351   2.902   3.951   8.653  2.9875  0.2092 -0.7038
  178SOPE  C31720352   2.956   3.744   8.644  0.8110  0.0104 -0.5773
  178SOPE  H17X20353   2.981   3.668   8.721  0.0115  1.2220  0.9393
  178SOPE  H17Y20354   3.050   3.768   8.589  2.1008 -1.4391  0.9079
  178SOPE  C31820355   2.846   3.686   8.558  0.1552  0.6145 -0.6862
  178SOPE  H18X20356   2.805   3.764   8.490 -0.6394  1.4967  0.7608
  178SOPE  H18Y20357   2.772   3.640   8.627  0.4120  1.3147  0.0722
  178SOPE  H18Z20358   2.892   3.609   8.492  2.0519  0.2090  0.9919
  179SOPE     N20359   1.768   5.164   6.624 -0.2044  0.7135  0.0195
  179SOPE   HN120360   1.729   5.227   6.697 -1.3029  1.3853 -1.1118
  179SOPE   HN220361   1.765   5.068   6.664 -1.6312  0.7577  0.0762
  179SOPE   HN320362   1.866   5.183   6.596 -0.6475  2.2645 -0.5770
  179SOPE   C1220363   1.693   5.178   6.501  1.2349 -0.2954  0.7530
  179SOPE  H12A20364   1.708   5.089   6.436 -0.4508 -2.4597  3.1583
  179SOPE  H12B20365   1.736   5.265   6.445 -1.0369  0.1102 -0.4929
  179SOPE   C1120366   1.550   5.202   6.525 -0.1255 -0.1186 -0.0951
  179SOPE  H11A20367   1.507   5.105   6.559 -0.2647  0.3787  1.2204
  179SOPE  H11B20368   1.500   5.230   6.430  3.7746 -2.9735 -3.3315
  179SOPE     P20369   1.405   5.396   6.636 -0.2112 -0.6082 -0.0518
  179SOPE   O1320370   1.378   5.461   6.505 -0.4856  0.3571  0.2175
  179SOPE   O1420371   1.426   5.494   6.743 -0.3728  0.6012  0.4840
  179SOPE   O1220372   1.529   5.302   6.622  0.3087 -0.2825 -0.3794
  179SOPE   O1120373   1.285   5.302   6.670 -0.1297 -0.0318 -0.5520
  179SOPE    C120374   1.298   5.185   6.755 -0.6212  0.0132  0.6049
  179SOPE    HA20375   1.405   5.156   6.770 -0.7529  0.1500  1.9554
  179SOPE    HB20376   1.228   5.109   6.714 -0.7644 -0.0885  1.0303
  179SOPE    C220377   1.254   5.193   6.904  0.2171  0.0555 -0.0697
  179SOPE    HS20378   1.143   5.191   6.901  0.1991 -2.2486 -0.2511
  179SOPE   O2120379   1.307   5.310   6.966 -0.2908 -0.1213 -0.2637
  179SOPE   C2120380   1.224   5.412   6.963  0.0924 -0.0885  0.3149
  179SOPE   O2220381   1.116   5.411   6.914 -0.1436 -0.5713  0.6069
  179SOPE   C2220382   1.281   5.533   7.028  0.2264  0.6724  0.1352
  179SOPE   H2R20383   1.316   5.599   6.946 -1.0171 -0.9222 -1.7769
  179SOPE   H2S20384   1.364   5.502   7.096 -0.4837  0.0461  0.7305
  179SOPE    C320385   1.301   5.060   6.972  0.0675  0.3396  0.1798
  179SOPE    HX20386   1.411   5.069   6.984  0.1081  2.2009 -1.1865
  179SOPE    HY20387   1.276   4.972   6.909 -2.2600 -0.4668  2.0333
  179SOPE   O3120388   1.236   5.045   7.100 -0.3102  0.7575 -0.4422
  179SOPE   C3120389   1.284   4.929   7.161 -0.4399 -0.1449 -0.1506
  179SOPE   O3220390   1.358   4.849   7.109 -0.4985 -0.1281 -0.3971
  179SOPE   C3220391   1.221   4.927   7.299  0.1324  0.5213 -0.8177
  179SOPE   H2X20392   1.133   4.860   7.296 -0.0016  0.7088 -1.1766
  179SOPE   H2Y20393   1.194   5.032   7.325  3.3027  1.4246 -0.7327
  179SOPE   C2320394   1.177   5.614   7.123 -0.0514  0.1510 -0.3736
  179SOPE   H3R20395   1.095   5.651   7.059  0.9962 -0.0609 -1.8832
  179SOPE   H3S20396   1.218   5.710   7.162 -2.1380  1.3823 -1.1173
  179SOPE   C2420397   1.126   5.536   7.243  0.7697 -0.5322  0.3888
  179SOPE   H4R20398   1.032   5.583   7.276  1.1485  0.0540  0.6479
  179SOPE   H4S20399   1.115   5.426   7.226  0.4186 -0.4737  0.2260
  179SOPE   C2520400   1.216   5.540   7.366  0.0538 -0.5384 -0.3060
  179SOPE   H5R20401   1.176   5.461   7.433 -0.0377 -0.0191  0.2575
  179SOPE   H5S20402   1.313   5.498   7.332 -0.1756  0.1112 -1.8542
  179SOPE   C2620403   1.230   5.675   7.435 -0.5878 -0.1041 -0.0820
  179SOPE   H6R20404   1.267   5.749   7.360 -0.6597  1.0747  1.0123
  179SOPE   H6S20405   1.127   5.704   7.464  0.1020  0.8217  1.5775
  179SOPE   C2720406   1.329   5.655   7.551  0.1243 -0.4749 -0.1437
  179SOPE   H7R20407   1.297   5.580   7.628  2.0758  0.6314  1.8626
  179SOPE   H7S20408   1.427   5.636   7.503  1.8961  0.7363  2.7479
  179SOPE   C2820409   1.361   5.787   7.635 -0.3764  0.0170 -0.4041
  179SOPE   H8R20410   1.334   5.869   7.565 -0.5012 -2.1463 -3.0710
  179SOPE   H8S20411   1.289   5.799   7.719 -0.4432  1.5957 -0.6507
  179SOPE   C2920412   1.506   5.791   7.676 -0.1311 -0.5464  0.2418
  179SOPE   H9120413   1.572   5.860   7.622  1.2204 -1.0456  1.1892
  179SOPE  C21020414   1.548   5.749   7.787 -0.4347 -0.0738  0.8996
  179SOPE  H10120415   1.655   5.758   7.813  0.1929 -2.2234 -0.6482
  179SOPE  C21120416   1.465   5.677   7.889 -0.1303  0.2192  0.2442
  179SOPE  H11R20417   1.511   5.582   7.924  1.9487  1.9090  2.4548
  179SOPE  H11S20418   1.363   5.653   7.852  0.4908 -0.4480 -1.0854
  179SOPE  C21220419   1.445   5.763   8.020  0.0730  0.2150 -0.1866
  179SOPE  H12R20420   1.539   5.779   8.077 -0.2149  0.5901  0.1917
  179SOPE  H12S20421   1.377   5.703   8.084  0.7655 -0.5879 -0.1765
  179SOPE  C21320422   1.389   5.900   7.991  0.2772 -0.2760  0.0170
  179SOPE  H13R20423   1.294   5.893   7.933  0.8218 -0.7434 -0.8333
  179SOPE  H13S20424   1.471   5.952   7.937  0.4982 -0.1442  0.4737
  179SOPE  C21420425   1.367   5.985   8.120 -0.4806 -0.2046 -0.9789
  179SOPE  H14R20426   1.326   6.083   8.089 -0.9620 -0.0459  0.1183
  179SOPE  H14S20427   1.467   5.998   8.167 -0.6189  2.7777 -1.3421
  179SOPE  C21520428   1.276   5.918   8.217  1.0374 -0.1977 -0.3750
  179SOPE  H15R20429   1.321   5.823   8.253 -0.3735 -1.3892 -1.6027
  179SOPE  H15S20430   1.186   5.888   8.159 -1.0127  2.2626  1.3205
  179SOPE  C21620431   1.222   6.004   8.332 -0.1763  0.1783  0.8562
  179SOPE  H16R20432   1.143   5.944   8.381 -0.7748  0.9957  0.9189
  179SOPE  H16S20433   1.163   6.089   8.293 -0.1556 -0.5448 -0.8289
  179SOPE  C21720434   1.310   6.036   8.450  0.0950 -0.9296  0.5380
  179SOPE  H17R20435   1.368   5.945   8.475  0.2628 -1.2850 -1.0471
  179SOPE  H17S20436   1.250   6.051   8.543 -0.9105 -1.8316  0.0493
  179SOPE  C21820437   1.410   6.155   8.430 -0.2538  0.4084  0.2850
  179SOPE  H18R20438   1.469   6.190   8.517 -0.1169 -0.2376  0.4538
  179SOPE  H18S20439   1.353   6.245   8.398  0.5443  0.9401  0.3283
  179SOPE  H18T20440   1.487   6.136   8.352 -0.4758 -0.7345  0.3400
  179SOPE   C3320441   1.322   4.883   7.413 -0.4171  0.2600 -0.0842
  179SOPE   H3X20442   1.419   4.932   7.391  0.3917 -1.6694 -1.0600
  179SOPE   H3Y20443   1.324   4.771   7.415 -0.7009  0.1686 -2.4496
  179SOPE   C3420444   1.285   4.913   7.562  1.1079  0.5365  0.2600
  179SOPE   H4X20445   1.264   5.021   7.571 -1.5947  0.0878  0.4262
  179SOPE   H4Y20446   1.370   4.902   7.632  1.0506  1.5693  0.5104
  179SOPE   C3520447   1.165   4.825   7.606 -0.2599  0.0941 -0.0687
  179SOPE   H5X20448   1.184   4.716   7.599  1.4882  0.3294  0.4107
  179SOPE   H5Y20449   1.086   4.842   7.530 -1.1383 -1.4636  0.4682
  179SOPE   C3620450   1.099   4.855   7.741 -0.4510 -0.0970  0.2904
  179SOPE   H6X20451   1.163   4.925   7.799 -1.0833 -0.2351  1.1849
  179SOPE   H6Y20452   1.096   4.766   7.808  1.3526 -1.0972 -0.8530
  179SOPE   C3720453   0.957   4.905   7.714 -1.1076 -0.1276  0.0334
  179SOPE   H7X20454   0.904   4.819   7.668  1.4817 -1.0050 -1.5333
  179SOPE   H7Y20455   0.966   4.986   7.640 -0.4076 -1.5397 -1.4838
  179SOPE   C3820456   0.888   4.938   7.840  0.4014  0.1602 -0.5971
  179SOPE   H8X20457   0.964   4.997   7.896  1.3863 -1.2916 -0.3488
  179SOPE   H8Y20458   0.864   4.849   7.902 -0.1817  0.3719 -0.5187
  179SOPE   C3920459   0.756   5.020   7.811  0.2330  0.6246 -0.0246
  179SOPE   H9X20460   0.662   4.962   7.799  0.8020 -0.2283 -0.4417
  179SOPE   H9Y20461   0.775   5.075   7.716  0.2222 -0.2579 -0.5422
  179SOPE  C31020462   0.715   5.106   7.934 -0.0924  0.0719  0.0076
  179SOPE  H10X20463   0.805   5.172   7.947  1.9823 -2.9613  2.5494
  179SOPE  H10Y20464   0.707   5.043   8.024 -0.5706 -0.4949 -0.4294
  179SOPE  C31120465   0.587   5.178   7.924 -0.8956 -0.1472  0.0788
  179SOPE  H11X20466   0.508   5.100   7.936 -0.6284 -0.5831 -0.9005
  179SOPE  H11Y20467   0.596   5.220   7.821  3.6872  0.0897  0.4014
  179SOPE  C31220468   0.587   5.293   8.033  0.3846  0.0155 -0.0460
  179SOPE  H12X20469   0.681   5.349   8.016 -1.0430  2.7653  0.6303
  179SOPE  H12Y20470   0.590   5.254   8.137  0.6385  0.9982  0.3268
  179SOPE  C31320471   0.479   5.389   8.020  0.1978 -0.1222 -0.6370
  179SOPE  H13X20472   0.386   5.338   8.054 -0.6182  2.1247  0.7528
  179SOPE  H13Y20473   0.456   5.426   7.918 -0.6451 -1.0699 -0.8067
  179SOPE  C31420474   0.488   5.505   8.117 -0.3068 -0.3744 -0.3695
  179SOPE  H14X20475   0.419   5.590   8.096  0.0997  0.4251  1.3825
  179SOPE  H14Y20476   0.586   5.555   8.097  1.0017 -1.3631  2.8899
  179SOPE  C31520477   0.468   5.470   8.263 -0.1992 -0.4684 -0.1230
  179SOPE  H15X20478   0.555   5.405   8.284  1.2607  1.6644  0.9135
  179SOPE  H15Y20479   0.369   5.422   8.275 -1.6891  2.8106  2.6540
  179SOPE  C31620480   0.479   5.599   8.353  0.6445  0.4821  1.0463
  179SOPE  H16X20481   0.418   5.681   8.310  1.7008  0.1837 -1.1828
  179SOPE  H16Y20482   0.587   5.624   8.348  1.5534 -2.7097  2.0937
  179SOPE  C31720483   0.421   5.579   8.490 -0.2685  0.4369 -0.3207
  179SOPE  H17X20484   0.314   5.550   8.480 -0.2960  0.9696 -1.8583
  179SOPE  H17Y20485   0.430   5.666   8.558 -0.3820  1.3635 -1.4539
  179SOPE  C31820486   0.489   5.470   8.573 -0.5124  0.5088  0.1354
  179SOPE  H18X20487   0.438   5.464   8.672 -1.5505 -1.5318 -0.4602
  179SOPE  H18Y20488   0.597   5.498   8.580  0.0759 -0.4256 -3.2667
  179SOPE  H18Z20489   0.480   5.379   8.510 -0.3017  1.1057 -0.7687
  180SOPE     N20490   5.757   5.142   6.091 -0.1606 -0.3356 -0.2526
  180SOPE   HN120491   5.861   5.142   6.093 -0.1209  0.9461 -1.1983
  180SOPE   HN220492   5.719   5.182   6.003  1.3382 -1.7060 -1.5807
  180SOPE   HN320493   5.723   5.211   6.161 -1.5984 -1.6147  0.3851
  180SOPE   C1220494   5.696   5.009   6.121 -0.4538 -0.1323  0.1678
  180SOPE  H12A20495   5.730   4.947   6.035  2.1320  0.5348  0.6038
  180SOPE  H12B20496   5.587   5.029   6.124 -0.3688  0.5286 -0.7498
  180SOPE   C1120497   5.751   4.947   6.253 -0.5356 -0.0350  0.1488
  180SOPE  H11A20498   5.694   4.854   6.270  1.0534 -1.0179  0.2791
  180SOPE  H11B20499   5.733   5.015   6.340 -1.8213  0.4373 -0.4679
  180SOPE     P20500   5.974   4.832   6.323  0.2191  0.2919  0.0235
  180SOPE   O1320501   6.123   4.869   6.339 -0.4232 -0.3599  0.9148
  180SOPE   O1420502   5.946   4.696   6.281 -0.3396  0.1828 -0.0306
  180SOPE   O1220503   5.892   4.935   6.234 -0.2836 -0.2126 -0.1862
  180SOPE   O1120504   5.906   4.853   6.468 -0.3081  0.0019  0.0888
  180SOPE    C120505   5.924   4.975   6.539  0.9107 -0.3155 -0.5341
  180SOPE    HA20506   5.826   5.009   6.579  0.0290 -3.2065  0.0496
  180SOPE    HB20507   5.956   5.052   6.466  1.7117 -1.2714 -1.2141
  180SOPE    C220508   6.048   4.977   6.627 -0.0651  0.5297 -0.0427
  180SOPE    HS20509   6.137   4.934   6.575  2.3847  0.8342  3.5102
  180SOPE   O2120510   6.026   4.892   6.750  0.2059 -0.2072  0.0567
  180SOPE   C2120511   6.042   4.761   6.725 -0.7343  0.5167 -0.0812
  180SOPE   O2220512   6.101   4.722   6.626  0.0845 -0.6196 -0.2292
  180SOPE   C2220513   5.988   4.685   6.841 -0.5615  0.2304  0.0789
  180SOPE   H2R20514   5.883   4.657   6.819 -0.3565 -1.2118  0.7631
  180SOPE   H2S20515   5.994   4.753   6.928  2.6187 -0.5565  0.6130
  180SOPE    C320516   6.065   5.131   6.655  0.0190  0.5779  0.4116
  180SOPE    HX20517   5.964   5.175   6.672 -0.5222  0.3601 -1.8808
  180SOPE    HY20518   6.100   5.179   6.561  0.6668  1.8040  1.2479
  180SOPE   O3120519   6.157   5.150   6.763  0.1941  0.2354 -0.5026
  180SOPE   C3120520   6.284   5.190   6.732  0.1185 -0.2987 -0.3052
  180SOPE   O3220521   6.326   5.198   6.618  0.0807  0.4349 -0.2392
  180SOPE   C3220522   6.358   5.219   6.867  0.6019 -0.6820 -0.5994
  180SOPE   H2X20523   6.459   5.174   6.875 -0.3806 -2.7575  1.7373
  180SOPE   H2Y20524   6.299   5.165   6.945 -0.5836  2.0566  0.5467
  180SOPE   C2320525   6.065   4.552   6.866  0.1553  0.4781 -0.7367
  180SOPE   H3R20526   6.162   4.575   6.916 -0.5629  0.5515  0.6589
  180SOPE   H3S20527   6.086   4.501   6.769  0.9646  1.5536 -1.1475
  180SOPE   C2420528   5.986   4.449   6.951 -0.2373  0.3486 -0.0644
  180SOPE   H4R20529   5.885   4.442   6.906  0.2276 -0.5474 -1.0072
  180SOPE   H4S20530   6.027   4.346   6.937 -2.6967 -0.9109  1.3777
  180SOPE   C2520531   5.978   4.480   7.100  0.3141 -0.6031  0.1127
  180SOPE   H5R20532   5.986   4.591   7.099  1.0380 -0.5213 -4.0874
  180SOPE   H5S20533   5.879   4.455   7.145  0.5236  0.2767  1.1059
  180SOPE   C2620534   6.087   4.412   7.190 -0.0027  0.2071  0.4463
  180SOPE   H6R20535   6.118   4.311   7.155  0.9248  1.0538 -1.2742
  180SOPE   H6S20536   6.176   4.478   7.191 -1.1178  1.8868  3.7837
  180SOPE   C2720537   6.053   4.404   7.345  0.5859 -0.4419 -0.6068
  180SOPE   H7R20538   6.045   4.511   7.375  0.9641 -0.4746 -0.3791
  180SOPE   H7S20539   5.954   4.359   7.365 -2.0964  3.3710 -3.7193
  180SOPE   C2820540   6.162   4.346   7.439  0.2448  0.0257 -0.2068
  180SOPE   H8R20541   6.131   4.357   7.545 -0.3980  1.1933 -0.4964
  180SOPE   H8S20542   6.148   4.236   7.432  0.4858  0.0770 -2.0362
  180SOPE   C2920543   6.305   4.383   7.413 -0.1168 -0.2174 -0.2080
  180SOPE   H9120544   6.345   4.344   7.319 -2.6183  1.1212 -1.9512
  180SOPE  C21020545   6.396   4.435   7.499  0.0170 -0.0701  0.1497
  180SOPE  H10120546   6.503   4.429   7.473 -0.6604 -3.3635 -2.4590
  180SOPE  C21120547   6.370   4.479   7.638 -0.6233 -0.0875 -0.5035
  180SOPE  H11R20548   6.421   4.407   7.706 -2.1969 -0.0344  0.7971
  180SOPE  H11S20549   6.262   4.477   7.667 -0.7618 -0.9981 -1.0451
  180SOPE  C21220550   6.427   4.618   7.663  1.0556 -0.3587  0.3155
  180SOPE  H12R20551   6.529   4.638   7.624  0.5110  0.5632 -0.7097
  180SOPE  H12S20552   6.421   4.639   7.771  2.1352  0.6476  0.1962
  180SOPE  C21320553   6.334   4.731   7.598 -1.1183  0.0722 -0.1316
  180SOPE  H13R20554   6.230   4.695   7.614 -0.7936 -2.2064 -2.4601
  180SOPE  H13S20555   6.348   4.710   7.490 -0.0127  1.6895 -0.3347
  180SOPE  C21420556   6.374   4.877   7.604 -0.2044 -0.3233  0.3524
  180SOPE  H14R20557   6.380   4.900   7.713  0.2968 -3.1302  1.0115
  180SOPE  H14S20558   6.297   4.928   7.543 -0.8733 -1.2956  0.3582
  180SOPE  C21520559   6.507   4.902   7.536  0.0716  0.6062  0.4722
  180SOPE  H15R20560   6.501   4.888   7.426 -1.5312  0.7225  0.5151
  180SOPE  H15S20561   6.580   4.826   7.570 -1.2939 -0.0612  2.0543
  180SOPE  C21620562   6.568   5.037   7.567  0.6807  0.0182 -0.2666
  180SOPE  H16R20563   6.604   5.046   7.672 -2.1741  0.6020  0.7560
  180SOPE  H16S20564   6.481   5.105   7.559  0.1300 -0.5743  0.4638
  180SOPE  C21720565   6.681   5.073   7.465 -0.2665 -0.2432 -0.6017
  180SOPE  H17R20566   6.645   5.040   7.365  0.9479 -0.5718 -0.9438
  180SOPE  H17S20567   6.772   5.010   7.477  0.0305 -0.2587 -2.6061
  180SOPE  C21820568   6.714   5.223   7.458  0.2916 -0.1721 -0.4757
  180SOPE  H18R20569   6.624   5.287   7.466 -0.5494 -1.1335 -1.7932
  180SOPE  H18S20570   6.759   5.242   7.358 -0.5266  1.0112 -0.6305
  180SOPE  H18T20571   6.784   5.255   7.538  2.0291  0.1580 -2.0646
  180SOPE   C3320572   6.362   5.366   6.912  0.1145  0.5915  0.1668
  180SOPE   H3X20573   6.265   5.419   6.901 -0.6195 -0.5647  0.9487
  180SOPE   H3Y20574   6.428   5.419   6.840  0.5668 -1.7023 -1.2042
  180SOPE   C3420575   6.393   5.390   7.060 -0.0816 -0.2232  0.2623
  180SOPE   H4X20576   6.479   5.333   7.103  0.5061  1.9200  2.1368
  180SOPE   H4Y20577   6.304   5.363   7.121 -0.2891  0.6519  0.3591
  180SOPE   C3520578   6.416   5.538   7.108 -0.1956  0.1278 -0.0236
  180SOPE   H5X20579   6.328   5.592   7.066  0.3755  1.5016  0.4681
  180SOPE   H5Y20580   6.507   5.587   7.068 -0.3362 -0.9868 -1.8130
  180SOPE   C3620581   6.421   5.534   7.264  0.1933  0.0881 -0.3644
  180SOPE   H6X20582   6.524   5.501   7.291  0.9977  1.5382 -1.5642
  180SOPE   H6Y20583   6.368   5.451   7.316 -0.6507  1.5093  1.1256
  180SOPE   C3720584   6.381   5.667   7.342 -0.0470  0.8105  0.0558
  180SOPE   H7X20585   6.272   5.680   7.331  0.0860  2.0830  0.1231
  180SOPE   H7Y20586   6.426   5.756   7.292  0.7911 -0.0190 -0.7001
  180SOPE   C3820587   6.417   5.661   7.491 -0.2856 -0.2194  0.2347
  180SOPE   H8X20588   6.390   5.762   7.529 -1.1551  0.8622 -2.9741
  180SOPE   H8Y20589   6.527   5.654   7.480 -0.3017 -1.8864  0.9049
  180SOPE   C3920590   6.364   5.548   7.574  0.1126 -0.3736  0.1217
  180SOPE   H9X20591   6.383   5.449   7.525  0.9420  0.6396 -1.7123
  180SOPE   H9Y20592   6.256   5.551   7.602  0.1931 -0.6479  0.4722
  180SOPE  C31020593   6.448   5.547   7.707  0.6702  0.4942  0.2667
  180SOPE  H10X20594   6.415   5.629   7.774 -2.8880  1.1670 -2.0294
  180SOPE  H10Y20595   6.557   5.559   7.691  1.0206 -1.0692  1.1903
  180SOPE  C31120596   6.421   5.423   7.795  0.0344  0.3357 -0.9228
  180SOPE  H11X20597   6.498   5.409   7.873 -0.5682 -0.6798 -0.4921
  180SOPE  H11Y20598   6.428   5.330   7.734  1.6452  0.6943 -1.3301
  180SOPE  C31220599   6.281   5.414   7.855  0.0471 -0.3922  0.4898
  180SOPE  H12X20600   6.198   5.418   7.781 -1.4574  0.3819  2.1405
  180SOPE  H12Y20601   6.267   5.500   7.923 -0.1372 -1.1489  1.4344
  180SOPE  C31320602   6.266   5.280   7.930  0.1361 -0.3488  0.1315
  180SOPE  H13X20603   6.176   5.290   7.995 -0.5706  2.4106 -1.1072
  180SOPE  H13Y20604   6.353   5.274   7.999  0.7004 -0.5988 -0.5942
  180SOPE  C31420605   6.254   5.157   7.846 -0.1718  0.4132  0.2173
  180SOPE  H14X20606   6.352   5.127   7.802  0.6898  0.6501  1.8910
  180SOPE  H14Y20607   6.185   5.177   7.761  0.0843  1.2746  0.1958
  180SOPE  C31520608   6.192   5.036   7.915  1.1190  0.3377 -0.3751
  180SOPE  H15X20609   6.121   5.064   7.995 -0.7142 -2.5579 -0.8108
  180SOPE  H15Y20610   6.267   4.985   7.978 -0.8245  0.8183  2.5101
  180SOPE  C31620611   6.092   4.945   7.836 -0.5715  0.1438  0.3853
  180SOPE  H16X20612   6.152   4.878   7.770 -1.2473  0.8848 -1.0159
  180SOPE  H16Y20613   6.038   5.008   7.762 -0.0656 -0.0693 -0.1730
  180SOPE  C31720614   6.014   4.850   7.930 -0.0157 -0.1634 -0.6396
  180SOPE  H17X20615   5.939   4.909   7.988  1.7456  0.6771  0.8887
  180SOPE  H17Y20616   6.073   4.799   8.008 -1.0091  0.1082  0.3106
  180SOPE  C31820617   5.953   4.733   7.847 -0.3237 -0.3697  0.1464
  180SOPE  H18X20618   6.038   4.689   7.791 -0.2979  0.7494 -0.7303
  180SOPE  H18Y20619   5.880   4.777   7.775 -0.6136  0.4017  0.9010
  180SOPE  H18Z20620   5.903   4.662   7.917 -0.1017  0.2185  0.9133
  181SOPE     N20621   5.212   3.589   6.136  0.4731  0.1243 -0.8177
  181SOPE   HN120622   5.260   3.497   6.148 -1.8598 -1.3648 -2.0734
  181SOPE   HN220623   5.110   3.570   6.132  0.3284 -2.1371  4.5193
  181SOPE   HN320624   5.246   3.639   6.051  1.3398  1.5983  0.3490
  181SOPE   C1220625   5.247   3.697   6.232  0.1833  0.4721  0.6892
  181SOPE  H12A20626   5.190   3.682   6.326  1.3893 -0.3630  1.3008
  181SOPE  H12B20627   5.220   3.795   6.188 -1.4450  0.5769  1.8177
  181SOPE   C1120628   5.396   3.693   6.273 -0.1472  0.2865  0.3397
  181SOPE  H11A20629   5.435   3.611   6.336  0.8427  0.5496  0.0992
  181SOPE  H11B20630   5.416   3.786   6.331  2.1423  0.9914 -1.4253
  181SOPE     P20631   5.549   3.607   6.074 -0.1973  0.0996  0.2994
  181SOPE   O1320632   5.697   3.619   6.072  0.5186 -0.0234  0.0105
  181SOPE   O1420633   5.486   3.612   5.936 -0.5450 -0.1864  0.1720
  181SOPE   O1220634   5.481   3.719   6.167  0.6118 -0.4741 -0.1791
  181SOPE   O1120635   5.497   3.473   6.134  0.2403 -0.4883 -0.3283
  181SOPE    C120636   5.579   3.356   6.148  0.5169  0.3577  0.5294
  181SOPE    HA20637   5.671   3.362   6.088  0.3631 -0.5144  0.1964
  181SOPE    HB20638   5.523   3.278   6.092  0.8683  0.7488 -0.3906
  181SOPE    C220639   5.612   3.324   6.293  0.6834  0.1178  1.0603
  181SOPE    HS20640   5.510   3.334   6.335 -0.1954  0.7086 -1.0390
  181SOPE   O2120641   5.709   3.417   6.340  0.6168  0.1306  0.0344
  181SOPE   C2120642   5.684   3.468   6.458 -0.3139  0.1299 -0.0534
  181SOPE   O2220643   5.587   3.446   6.529  0.0145  0.1845  0.1082
  181SOPE   C2220644   5.769   3.581   6.479  0.4225 -0.7352  0.6966
  181SOPE   H2R20645   5.798   3.620   6.379 -4.9047  1.8355 -0.2353
  181SOPE   H2S20646   5.865   3.535   6.512  2.1941  1.5705 -0.9622
  181SOPE    C320647   5.671   3.177   6.298  0.4852 -0.0345  0.8593
  181SOPE    HX20648   5.756   3.158   6.229 -0.6941 -1.7063 -0.2259
  181SOPE    HY20649   5.595   3.116   6.245 -0.4209  1.3989  0.4502
  181SOPE   O3120650   5.696   3.127   6.435  0.5374 -0.3843  0.3488
  181SOPE   C3120651   5.822   3.159   6.469  0.0803  0.1312  0.4225
  181SOPE   O3220652   5.910   3.204   6.400 -0.0667  0.9630  0.3647
  181SOPE   C3220653   5.834   3.123   6.615  0.1800 -0.1409  0.4663
  181SOPE   H2X20654   5.935   3.162   6.638 -0.9218  2.9205  0.5916
  181SOPE   H2Y20655   5.841   3.014   6.635 -2.0118 -0.4108  0.0288
  181SOPE   C2320656   5.720   3.697   6.568 -0.5178  0.6101  0.4739
  181SOPE   H3R20657   5.609   3.701   6.565 -0.4728  1.4780 -0.6487
  181SOPE   H3S20658   5.754   3.795   6.530  0.9246 -0.2387 -0.5266
  181SOPE   C2420659   5.763   3.673   6.718 -0.1901  0.6613  0.1587
  181SOPE   H4R20660   5.705   3.747   6.777 -0.1645 -0.0188  1.0653
  181SOPE   H4S20661   5.728   3.574   6.754  0.9226  0.6986  1.4375
  181SOPE   C2520662   5.911   3.666   6.744 -0.7362  0.4128 -0.1233
  181SOPE   H5R20663   5.959   3.598   6.670 -1.1861 -1.3906  1.1778
  181SOPE   H5S20664   5.954   3.769   6.741 -1.0018  0.5101 -2.7389
  181SOPE   C2620665   5.950   3.600   6.881 -0.4135 -0.9364 -0.9465
  181SOPE   H6R20666   5.912   3.495   6.884 -2.3466 -0.3229  3.0873
  181SOPE   H6S20667   6.060   3.595   6.893 -0.3243 -0.3480 -1.5198
  181SOPE   C2720668   5.884   3.677   6.999 -0.1695 -0.4012  0.1702
  181SOPE   H7R20669   5.931   3.777   7.006  1.0843 -0.6694 -2.9195
  181SOPE   H7S20670   5.777   3.700   6.980  0.0523  0.9212  0.4391
  181SOPE   C2820671   5.890   3.593   7.131 -1.0496 -0.0952  0.0859
  181SOPE   H8R20672   5.818   3.617   7.212  0.0410  1.1819  0.7271
  181SOPE   H8S20673   5.871   3.487   7.104  0.6613 -0.7002  1.1206
  181SOPE   C2920674   6.035   3.608   7.182 -0.1340 -0.4418 -0.6119
  181SOPE   H9120675   6.126   3.611   7.119  2.1495  0.9832  2.4810
  181SOPE  C21020676   6.055   3.630   7.313 -0.6724 -0.1542 -0.5280
  181SOPE  H10120677   6.156   3.642   7.352 -1.1988 -2.1290  1.6676
  181SOPE  C21120678   5.956   3.643   7.425 -0.5701 -0.3845  0.1091
  181SOPE  H11R20679   5.917   3.548   7.467 -2.4386  0.2972  0.0012
  181SOPE  H11S20680   5.864   3.704   7.413 -0.0598  0.8176  1.8619
  181SOPE  C21220681   6.032   3.706   7.543 -0.4698 -0.9848 -0.0197
  181SOPE  H12R20682   6.027   3.816   7.527  0.7423 -0.9421 -0.1452
  181SOPE  H12S20683   6.136   3.669   7.555 -0.2214 -1.1905 -2.4184
  181SOPE  C21320684   5.956   3.696   7.680  0.1313  0.1608  0.1522
  181SOPE  H13R20685   5.952   3.590   7.713 -0.1820  0.1248  0.0014
  181SOPE  H13S20686   5.859   3.745   7.660  1.2296  1.2006 -3.4378
  181SOPE  C21420687   6.031   3.774   7.791 -0.0901 -0.4233  0.2900
  181SOPE  H14R20688   6.039   3.884   7.773 -1.6618 -0.3672 -0.1514
  181SOPE  H14S20689   6.129   3.724   7.808 -0.8170 -2.4871 -1.3005
  181SOPE  C21520690   5.960   3.769   7.920 -0.2776  0.0950 -0.5602
  181SOPE  H15R20691   5.959   3.660   7.940  0.3375  0.0012 -1.0182
  181SOPE  H15S20692   5.855   3.807   7.914  0.2621  1.5018 -1.6835
  181SOPE  C21620693   6.030   3.839   8.047  0.4775 -0.3619 -0.1021
  181SOPE  H16R20694   6.008   3.946   8.026  1.6210 -0.1072 -0.0651
  181SOPE  H16S20695   6.140   3.829   8.063  0.2235 -1.0159  1.4866
  181SOPE  C21720696   5.971   3.789   8.176 -0.2379  0.3402 -0.1914
  181SOPE  H17R20697   5.860   3.781   8.170 -0.1421 -1.8585  0.2041
  181SOPE  H17S20698   5.997   3.854   8.262  0.8205  1.1081 -1.0634
  181SOPE  C21820699   6.031   3.651   8.217 -0.0490  0.0378  0.7211
  181SOPE  H18R20700   6.021   3.632   8.325  1.1724 -2.3606  0.4794
  181SOPE  H18S20701   6.141   3.655   8.199 -0.1845  0.6194 -0.0768
  181SOPE  H18T20702   5.986   3.577   8.147 -0.6627  2.7198 -1.9461
  181SOPE   C3320703   5.733   3.195   6.711 -0.9838 -0.0548  0.5143
  181SOPE   H3X20704   5.631   3.157   6.689 -0.5827 -2.5773  2.5372
  181SOPE   H3Y20705   5.731   3.304   6.691 -1.5080  0.0663  1.1853
  181SOPE   C3420706   5.781   3.181   6.852 -0.0481 -0.0954  0.8462
  181SOPE   H4X20707   5.885   3.220   6.861 -0.1931  0.2072  1.2253
  181SOPE   H4Y20708   5.797   3.075   6.881  1.8420 -0.5621 -1.5977
  181SOPE   C3520709   5.677   3.250   6.944  0.5652 -0.0727 -0.4009
  181SOPE   H5X20710   5.575   3.209   6.936 -0.1942  1.4630  0.9225
  181SOPE   H5Y20711   5.691   3.360   6.939 -1.0166  0.1356 -0.5681
  181SOPE   C3620712   5.718   3.218   7.090  0.3030  0.1365  0.3304
  181SOPE   H6X20713   5.825   3.240   7.109  0.8064 -1.5999 -0.3049
  181SOPE   H6Y20714   5.706   3.114   7.129  0.4383  0.5289  1.4616
  181SOPE   C3720715   5.643   3.305   7.186 -0.0836 -0.4204  0.0087
  181SOPE   H7X20716   5.534   3.310   7.168 -0.0680 -1.6357 -0.5382
  181SOPE   H7Y20717   5.674   3.410   7.167 -1.1674 -0.3650 -1.6246
  181SOPE   C3820718   5.679   3.263   7.336 -0.4317  0.0149 -0.4481
  181SOPE   H8X20719   5.786   3.282   7.357 -0.1791 -1.0027 -0.7597
  181SOPE   H8Y20720   5.661   3.154   7.340 -1.4612  0.1985  0.4103
  181SOPE   C3920721   5.599   3.344   7.434  0.3456 -0.4884  0.5408
  181SOPE   H9X20722   5.491   3.331   7.414  0.0353 -1.8159  2.6997
  181SOPE   H9Y20723   5.616   3.453   7.417 -1.9621 -0.3925 -1.7465
  181SOPE  C31020724   5.626   3.307   7.584  0.5758 -0.2867 -0.2224
  181SOPE  H10X20725   5.733   3.303   7.611  0.1514 -0.9958  1.4718
  181SOPE  H10Y20726   5.576   3.209   7.602  1.1510 -0.9212 -1.8811
  181SOPE  C31120727   5.575   3.420   7.677  0.8372  0.3240 -0.6180
  181SOPE  H11X20728   5.466   3.410   7.694  1.0052 -2.2129 -0.6028
  181SOPE  H11Y20729   5.595   3.520   7.634  0.4503  0.4983 -0.3881
  181SOPE  C31220730   5.646   3.411   7.808 -0.3967 -0.1414  0.0691
  181SOPE  H12X20731   5.757   3.403   7.801 -0.4062  0.3592 -0.6823
  181SOPE  H12Y20732   5.606   3.317   7.853  1.4411 -0.3770  1.3153
  181SOPE  C31320733   5.620   3.535   7.893 -0.1055  0.1010 -0.3998
  181SOPE  H13X20734   5.510   3.542   7.905 -0.1161 -0.5683 -0.0861
  181SOPE  H13Y20735   5.644   3.624   7.830  1.4763  0.1583  0.2410
  181SOPE  C31420736   5.708   3.528   8.022 -0.3530  0.2856  0.3186
  181SOPE  H14X20737   5.719   3.624   8.078  2.4075 -0.4328  1.1904
  181SOPE  H14Y20738   5.809   3.494   7.989 -0.0595  0.9043  0.5657
  181SOPE  C31520739   5.664   3.418   8.127  0.6493 -0.1624 -0.0125
  181SOPE  H15X20740   5.740   3.405   8.208  0.1441 -1.9717  0.2072
  181SOPE  H15Y20741   5.647   3.318   8.082 -1.6578  0.5990 -0.9542
  181SOPE  C31620742   5.520   3.452   8.188 -0.5205  0.8682  0.0066
  181SOPE  H16X20743   5.432   3.444   8.121 -0.8931 -0.8320  0.6614
  181SOPE  H16Y20744   5.519   3.559   8.218 -2.6046  0.5399  1.2807
  181SOPE  C31720745   5.488   3.365   8.310  0.1463 -0.6941 -0.4973
  181SOPE  H17X20746   5.520   3.259   8.297  1.0402 -0.8060  1.9439
  181SOPE  H17Y20747   5.378   3.353   8.314  0.3447 -3.4852 -0.8106
  181SOPE  C31820748   5.558   3.417   8.445  0.0673  1.0234 -0.4361
  181SOPE  H18X20749   5.524   3.513   8.490  0.3288  0.3360  1.3196
  181SOPE  H18Y20750   5.665   3.445   8.429 -0.0075  3.1191  2.0362
  181SOPE  H18Z20751   5.567   3.335   8.519  2.0530 -0.1336 -1.8401
  182SOPE     N20752   0.978   4.839   6.213 -0.0654  0.8760 -0.3164
  182SOPE   HN120753   0.948   4.878   6.121  1.2403  1.2499 -0.5995
  182SOPE   HN220754   1.081   4.850   6.213  0.0362  0.3860 -2.4255
  182SOPE   HN320755   0.943   4.743   6.234 -1.8564  1.2890 -1.1757
  182SOPE   C1220756   0.937   4.938   6.317  0.5589  0.9635  0.5047
  182SOPE  H12A20757   0.950   5.041   6.276 -1.7221  0.9619 -0.3345
  182SOPE  H12B20758   0.990   4.917   6.412  1.8142 -2.3083 -0.7815
  182SOPE   C1120759   0.784   4.925   6.349 -0.2536 -0.1219  0.1202
  182SOPE  H11A20760   0.746   5.005   6.415 -1.8064 -1.5470  1.0275
  182SOPE  H11B20761   0.745   4.832   6.394 -2.7322  0.4083 -0.7325
  182SOPE     P20762   0.614   5.052   6.178 -0.1430 -0.0496 -0.2396
  182SOPE   O1320763   0.509   4.989   6.092 -0.3414 -0.6880  0.5355
  182SOPE   O1420764   0.695   5.157   6.111 -0.0758 -0.7104 -0.1581
  182SOPE   O1220765   0.712   4.934   6.226  0.2582 -0.1672 -0.0526
  182SOPE   O1120766   0.545   5.102   6.305  0.1734  0.2888 -0.4242
  182SOPE    C120767   0.431   5.048   6.365  0.5113  0.2316 -0.2407
  182SOPE    HA20768   0.457   4.940   6.376 -1.7117 -0.4362 -0.9472
  182SOPE    HB20769   0.342   5.061   6.300 -0.4221  1.4105  1.2331
  182SOPE    C220770   0.404   5.117   6.504  0.2634  0.1765  0.3840
  182SOPE    HS20771   0.395   5.225   6.479  0.1802 -0.2443 -1.5865
  182SOPE   O2120772   0.522   5.091   6.592 -0.2690  0.3219 -0.4480
  182SOPE   C2120773   0.517   5.162   6.705  0.5364 -0.1534  0.4838
  182SOPE   O2220774   0.428   5.235   6.739  0.2383 -0.0572  0.1547
  182SOPE   C2220775   0.647   5.145   6.776  0.4822 -0.5032 -0.3542
  182SOPE   H2R20776   0.733   5.142   6.705  0.1490 -0.9922 -0.7502
  182SOPE   H2S20777   0.658   5.050   6.833  4.5317  1.3027  2.3286
  182SOPE    C320778   0.278   5.047   6.559  0.2845 -0.1238 -0.2883
  182SOPE    HX20779   0.197   5.045   6.482 -0.0781 -0.2756  0.0906
  182SOPE    HY20780   0.239   5.104   6.645  0.4978  2.1305 -1.5995
  182SOPE   O3120781   0.305   4.908   6.585  0.4845 -0.0824 -0.1215
  182SOPE   C3120782   0.193   4.830   6.620 -1.0397 -0.0469  0.0644
  182SOPE   O3220783   0.085   4.884   6.630  0.0380  0.0747 -0.2604
  182SOPE   C3220784   0.224   4.690   6.658  0.2625  0.0461 -0.0455
  182SOPE   H2X20785   0.326   4.666   6.621 -0.3758  0.9079 -2.5185
  182SOPE   H2Y20786   0.157   4.615   6.610  2.2043 -1.7804 -0.0870
  182SOPE   C2320787   0.670   5.259   6.885 -0.0716  0.2320 -0.3239
  182SOPE   H3R20788   0.603   5.347   6.876  1.1761  1.3458  0.9301
  182SOPE   H3S20789   0.773   5.294   6.863  0.3207  0.7607  2.0944
  182SOPE   C2420790   0.653   5.210   7.025 -0.5717  0.2286 -0.1839
  182SOPE   H4R20791   0.546   5.206   7.053 -0.8378 -1.6570 -1.3157
  182SOPE   H4S20792   0.702   5.111   7.037 -0.4306  0.4481  1.2601
  182SOPE   C2520793   0.728   5.294   7.134  0.0436  1.4698  1.3646
  182SOPE   H5R20794   0.837   5.281   7.119 -0.2858  0.2119 -0.2165
  182SOPE   H5S20795   0.711   5.403   7.119  0.4349  1.7903  3.0793
  182SOPE   C2620796   0.688   5.246   7.276  0.8104 -0.0244  0.0584
  182SOPE   H6R20797   0.577   5.249   7.280  0.8345  0.6123  0.3005
  182SOPE   H6S20798   0.726   5.142   7.284 -0.9880 -0.6665  0.8668
  182SOPE   C2720799   0.727   5.335   7.389  0.5953 -0.0051 -0.1532
  182SOPE   H7R20800   0.667   5.428   7.376 -2.7271 -1.3643  3.3970
  182SOPE   H7S20801   0.682   5.295   7.482 -0.5783  2.5033  0.4386
  182SOPE   C2820802   0.868   5.365   7.416 -0.0706  0.8519  0.1944
  182SOPE   H8R20803   0.903   5.417   7.323  0.3389 -0.0874 -0.1958
  182SOPE   H8S20804   0.872   5.436   7.501  1.1793  1.8900 -0.6714
  182SOPE   C2920805   0.959   5.250   7.434 -1.3411 -0.0483 -0.6504
  182SOPE   H9120806   0.969   5.182   7.348 -0.6581 -0.3318 -0.3559
  182SOPE  C21020807   1.047   5.245   7.536  0.4039 -0.0696 -0.1574
  182SOPE  H10120808   1.099   5.149   7.550  0.2933 -0.3750 -1.6377
  182SOPE  C21120809   1.064   5.340   7.654  0.0662 -0.3470 -0.4430
  182SOPE  H11R20810   0.972   5.372   7.707  1.1633  0.1764  1.2208
  182SOPE  H11S20811   1.117   5.431   7.618  0.4196 -0.0671  0.7385
  182SOPE  C21220812   1.172   5.280   7.754  0.0485  0.6793  0.4091
  182SOPE  H12R20813   1.268   5.271   7.697 -0.5782  1.7109 -0.8506
  182SOPE  H12S20814   1.135   5.182   7.792  1.3906  0.1545  0.4483
  182SOPE  C21320815   1.196   5.370   7.867 -0.0750 -0.0080  0.2021
  182SOPE  H13R20816   1.107   5.393   7.929 -0.6072  0.0153 -0.5541
  182SOPE  H13S20817   1.228   5.463   7.814 -0.1694 -0.0392  0.0896
  182SOPE  C21420818   1.301   5.314   7.968 -0.5777 -0.3433  0.6176
  182SOPE  H14R20819   1.392   5.341   7.911 -1.2443  0.5454 -0.0583
  182SOPE  H14S20820   1.298   5.203   7.974 -0.6530 -0.3345  0.7592
  182SOPE  C21520821   1.305   5.380   8.106 -0.6075  0.4745  0.0395
  182SOPE  H15R20822   1.198   5.387   8.134 -0.9936  2.2406 -1.6303
  182SOPE  H15S20823   1.347   5.482   8.114  3.0314 -0.6912 -1.7240
  182SOPE  C21620824   1.388   5.302   8.206 -0.1213 -0.5078  1.1443
  182SOPE  H16R20825   1.493   5.336   8.206  0.5178 -2.3612  0.0895
  182SOPE  H16S20826   1.392   5.193   8.186 -0.3833 -0.5429  1.2767
  182SOPE  C21720827   1.339   5.314   8.349 -0.9248  0.0591  0.4071
  182SOPE  H17R20828   1.239   5.268   8.360  0.3313 -2.8256  0.7997
  182SOPE  H17S20829   1.333   5.422   8.372  2.0565  0.6897 -1.1175
  182SOPE  C21820830   1.426   5.235   8.451 -0.3873  0.6164  0.7519
  182SOPE  H18R20831   1.528   5.250   8.411 -1.6279  2.6282 -1.9504
  182SOPE  H18S20832   1.402   5.126   8.454  0.2122  0.5031  2.0568
  182SOPE  H18T20833   1.416   5.275   8.554 -0.1919 -1.8032  1.8001
  182SOPE   C3320834   0.199   4.669   6.808  0.8590 -0.0102  0.1926
  182SOPE   H3X20835   0.157   4.757   6.861  0.6401 -0.4553  0.7616
  182SOPE   H3Y20836   0.293   4.640   6.859 -0.0055  0.1554  1.9435
  182SOPE   C3420837   0.101   4.553   6.843  0.8756 -0.8588 -0.5240
  182SOPE   H4X20838   0.143   4.451   6.826  1.6379 -0.6067 -0.1804
  182SOPE   H4Y20839   0.018   4.567   6.770  1.8882  3.5269 -1.1044
  182SOPE   C3520840   0.035   4.545   6.984 -0.1016 -0.8549 -0.1064
  182SOPE   H5X20841  -0.025   4.638   6.992 -1.0242 -1.3710 -0.8777
  182SOPE   H5Y20842   0.124   4.558   7.049 -0.0665  3.6170 -0.7183
  182SOPE   C3620843  -0.049   4.418   7.008 -0.4107 -0.3059  0.6702
  182SOPE   H6X20844   0.016   4.331   6.981  0.3486  0.6535 -0.7108
  182SOPE   H6Y20845  -0.139   4.429   6.944  0.6919 -1.6658 -1.2212
  182SOPE   C3720846  -0.084   4.409   7.162 -0.3757 -0.2007  0.0364
  182SOPE   H7X20847  -0.155   4.326   7.181 -0.4427  0.0325  0.8784
  182SOPE   H7Y20848  -0.137   4.504   7.186 -0.3593 -0.3307  0.6055
  182SOPE   C3820849   0.038   4.379   7.256  0.0546 -0.1673  0.3646
  182SOPE   H8X20850   0.117   4.448   7.220 -0.2959 -0.9790 -2.1838
  182SOPE   H8Y20851   0.081   4.283   7.220 -0.0185  0.2075 -0.7810
  182SOPE   C3920852   0.018   4.370   7.401  0.4362 -0.0262 -0.0126
  182SOPE   H9X20853   0.095   4.307   7.450  0.7296 -0.2740 -0.7727
  182SOPE   H9Y20854  -0.086   4.333   7.417  1.0832 -1.4916  0.9994
  182SOPE  C31020855   0.018   4.507   7.466 -0.2258  0.6715 -0.2989
  182SOPE  H10X20856  -0.073   4.568   7.449 -2.2507 -2.1935 -0.3270
  182SOPE  H10Y20857   0.111   4.562   7.439 -0.7085  3.0235  2.3627
  182SOPE  C31120858   0.028   4.495   7.622 -0.2482 -0.0404  0.1440
  182SOPE  H11X20859   0.105   4.424   7.657 -1.0949 -0.3527  1.4454
  182SOPE  H11Y20860  -0.067   4.447   7.652 -0.5825  1.1265  1.0026
  182SOPE  C31220861   0.038   4.636   7.687 -1.0468  0.3419  0.3287
  182SOPE  H12X20862  -0.026   4.706   7.629  1.1248  1.6656 -0.5787
  182SOPE  H12Y20863   0.142   4.673   7.672 -0.8904 -0.4837 -0.7374
  182SOPE  C31320864  -0.012   4.653   7.831  0.0381 -0.3210 -0.0188
  182SOPE  H13X20865   0.067   4.625   7.904  0.0193  2.2019  1.0744
  182SOPE  H13Y20866  -0.103   4.590   7.842  0.1213 -0.2635  1.0600
  182SOPE  C31420867  -0.059   4.799   7.858  0.0417  0.2690  0.4134
  182SOPE  H14X20868  -0.150   4.820   7.798  0.1641  1.2395  0.5576
  182SOPE  H14Y20869   0.028   4.864   7.836  0.2856 -0.2847 -0.2938
  182SOPE  C31520870  -0.107   4.817   8.005 -0.5941  0.1242  0.1108
  182SOPE  H15X20871  -0.015   4.812   8.068  1.2251 -0.9688 -2.4804
  182SOPE  H15Y20872  -0.168   4.729   8.037 -1.0750  0.8014  1.1162
  182SOPE  C31620873  -0.181   4.949   8.016  0.4045  0.4747  0.4332
  182SOPE  H16X20874  -0.285   4.937   7.979 -0.3868 -0.4399  2.7701
  182SOPE  H16Y20875  -0.120   5.014   7.949 -0.1161  1.4152  0.8488
  182SOPE  C31720876  -0.174   5.012   8.151 -0.4040  0.0644 -0.4018
  182SOPE  H17X20877  -0.200   5.119   8.137 -1.1535 -0.2952 -1.9978
  182SOPE  H17Y20878  -0.072   4.994   8.191 -0.7624 -0.1872  0.4275
  182SOPE  C31820879  -0.275   4.970   8.253  0.5480  0.8040  0.0590
  182SOPE  H18X20880  -0.278   5.020   8.352  0.9851  1.6497 -0.3391
  182SOPE  H18Y20881  -0.268   4.865   8.289  1.3523  1.3907  1.7035
  182SOPE  H18Z20882  -0.379   4.971   8.216  0.2868  0.8040  0.7915
  183SOPE     N20883   2.300   1.807   6.347  0.0925  0.1339  0.3371
  183SOPE   HN120884   2.238   1.732   6.309  0.2583 -0.3709  1.0424
  183SOPE   HN220885   2.329   1.798   6.446  1.9656  0.7347 -0.1247
  183SOPE   HN320886   2.247   1.896   6.350 -1.3682 -0.6577 -0.6013
  183SOPE   C1220887   2.423   1.824   6.259  0.4794  0.3170  0.2574
  183SOPE  H12A20888   2.394   1.896   6.179  1.3692  0.3548 -0.0443
  183SOPE  H12B20889   2.447   1.723   6.219  0.0444  1.1267 -2.2243
  183SOPE   C1120890   2.539   1.885   6.334  0.2804 -0.1172  0.9426
  183SOPE  H11A20891   2.629   1.860   6.275 -0.5382 -1.7978  0.3439
  183SOPE  H11B20892   2.555   1.840   6.434  2.4581 -0.9500  0.2660
  183SOPE     P20893   2.655   2.133   6.379  0.2039  0.3405 -0.4388
  183SOPE   O1320894   2.622   2.272   6.338 -0.5133 -0.5068 -0.3151
  183SOPE   O1420895   2.783   2.082   6.323 -0.3550 -0.8050 -0.0180
  183SOPE   O1220896   2.537   2.031   6.335 -0.1148  0.0432 -0.0653
  183SOPE   O1120897   2.655   2.134   6.539 -0.6931 -0.1056 -0.1318
  183SOPE    C120898   2.552   2.117   6.628  0.7797 -0.2051  0.2003
  183SOPE    HA20899   2.542   2.009   6.648 -0.2103 -0.0512  0.5699
  183SOPE    HB20900   2.456   2.151   6.585  0.3237  0.6344  1.8101
  183SOPE    C220901   2.565   2.191   6.762  0.5223  0.1709  0.0956
  183SOPE    HS20902   2.465   2.212   6.806  0.3534 -0.4323  0.0150
  183SOPE   O2120903   2.635   2.313   6.757 -0.4205  0.2063  1.0126
  183SOPE   C2120904   2.589   2.403   6.673 -0.2159 -0.0839  0.1398
  183SOPE   O2220905   2.475   2.412   6.626  0.2093 -0.0200  0.1568
  183SOPE   C2220906   2.706   2.505   6.652 -0.1051 -0.1420 -0.4308
  183SOPE   H2R20907   2.706   2.544   6.548  0.6669 -3.0877 -1.6578
  183SOPE   H2S20908   2.801   2.448   6.662  0.3221  0.7853  1.0691
  183SOPE    C320909   2.632   2.090   6.866 -0.8351 -0.2085  0.1385
  183SOPE    HX20910   2.716   2.044   6.809 -0.1072  2.1386 -0.8183
  183SOPE    HY20911   2.561   2.012   6.899 -0.0153  0.1067  2.8828
  183SOPE   O3120912   2.686   2.163   6.979 -0.1536  0.6308 -0.3117
  183SOPE   C3120913   2.607   2.190   7.075 -0.5209 -0.6089 -0.2719
  183SOPE   O3220914   2.487   2.171   7.071  0.7328  0.4006 -0.0103
  183SOPE   C3220915   2.672   2.254   7.200 -0.0429  0.5206  0.5574
  183SOPE   H2X20916   2.672   2.363   7.178  0.5270 -0.0982 -3.1974
  183SOPE   H2Y20917   2.776   2.214   7.192 -0.4401 -0.0925 -2.4372
  183SOPE   C2320918   2.675   2.625   6.752  0.2071 -0.0136  0.5769
  183SOPE   H3R20919   2.570   2.652   6.726 -0.1770 -2.3088 -0.5971
  183SOPE   H3S20920   2.749   2.702   6.725  0.3441 -0.1019  0.7018
  183SOPE   C2420921   2.674   2.586   6.901 -0.0356  0.0141  0.2173
  183SOPE   H4R20922   2.578   2.533   6.921  0.8947 -1.8318  0.0421
  183SOPE   H4S20923   2.759   2.521   6.931 -0.9138 -0.5950  1.4727
  183SOPE   C2520924   2.673   2.716   6.986  1.0416 -0.2349  0.7190
  183SOPE   H5R20925   2.777   2.754   6.972  1.2933 -1.3205 -0.6293
  183SOPE   H5S20926   2.592   2.788   6.966 -0.6217 -1.6861  1.9114
  183SOPE   C2620927   2.658   2.681   7.132  0.2238  0.0294 -0.3522
  183SOPE   H6R20928   2.578   2.603   7.132 -0.4983  0.7621 -0.5712
  183SOPE   H6S20929   2.749   2.632   7.174 -0.2873  0.2345  1.0608
  183SOPE   C2720930   2.625   2.809   7.214 -0.4244  0.3220  0.0726
  183SOPE   H7R20931   2.705   2.886   7.205 -1.2605  1.0390 -1.6723
  183SOPE   H7S20932   2.529   2.855   7.181 -0.9294  2.1408  3.6174
  183SOPE   C2820933   2.611   2.770   7.363  0.7105  0.4233  0.5196
  183SOPE   H8R20934   2.561   2.860   7.403  0.8200  0.3433  0.8411
  183SOPE   H8S20935   2.549   2.680   7.383 -0.4485  0.7732 -1.2913
  183SOPE   C2920936   2.741   2.735   7.432 -0.0456  0.4852 -0.0186
  183SOPE   H9120937   2.831   2.697   7.381  0.4558  0.4251  0.8820
  183SOPE  C21020938   2.754   2.729   7.565  0.1059  0.5680  0.2944
  183SOPE  H10120939   2.857   2.713   7.602  0.0224 -2.6027 -0.5760
  183SOPE  C21120940   2.650   2.774   7.668  0.3195  0.2925  0.4354
  183SOPE  H11R20941   2.571   2.837   7.623  1.0999  1.7337  1.0230
  183SOPE  H11S20942   2.700   2.848   7.734  0.1060  2.0759 -1.3039
  183SOPE  C21220943   2.567   2.672   7.756 -0.0989 -1.1401  0.0886
  183SOPE  H12R20944   2.635   2.621   7.828  0.7030  2.6546  2.2738
  183SOPE  H12S20945   2.514   2.615   7.677 -1.2117 -0.8338  0.6032
  183SOPE  C21320946   2.465   2.748   7.846 -0.2002  0.5510  0.9808
  183SOPE  H13R20947   2.416   2.828   7.787 -0.0647 -0.0103  0.0807
  183SOPE  H13S20948   2.529   2.803   7.918  1.4032  1.7707 -1.2435
  183SOPE  C21420949   2.371   2.651   7.913  0.2184 -0.0325  0.5550
  183SOPE  H14R20950   2.324   2.705   7.998  0.4881 -0.6503  1.1078
  183SOPE  H14S20951   2.431   2.569   7.958  1.1416  0.1895 -0.2369
  183SOPE  C21520952   2.245   2.603   7.830  0.0283  0.7102  0.5613
  183SOPE  H15R20953   2.274   2.548   7.738 -3.4246 -0.7707  0.2170
  183SOPE  H15S20954   2.199   2.700   7.804 -0.3353  0.1591 -0.9501
  183SOPE  C21620955   2.156   2.517   7.913 -0.1462  0.5363 -0.2121
  183SOPE  H16R20956   2.166   2.549   8.019 -2.7124  1.7380 -0.2425
  183SOPE  H16S20957   2.194   2.413   7.910 -1.6013 -0.2601  3.2843
  183SOPE  C21720958   2.010   2.516   7.884  0.6167  0.3629 -1.3839
  183SOPE  H17R20959   1.996   2.488   7.777  3.2300  0.9644 -1.9463
  183SOPE  H17S20960   1.964   2.616   7.898  0.4774  0.0639  0.7009
  183SOPE  C21820961   1.928   2.427   7.983  0.0649 -0.1181 -0.2043
  183SOPE  H18R20962   1.833   2.388   7.942 -1.5339  0.6561  2.5126
  183SOPE  H18S20963   1.887   2.477   8.073  3.2979 -0.5926  1.6891
  183SOPE  H18T20964   1.992   2.344   8.021 -0.7240 -0.2903  0.8092
  183SOPE   C3320965   2.620   2.227   7.342 -0.1342  0.5615 -0.0338
  183SOPE   H3X20966   2.571   2.128   7.353 -0.6489  0.9067  0.9029
  183SOPE   H3Y20967   2.538   2.302   7.355 -2.2791 -1.6492 -0.1116
  183SOPE   C3420968   2.724   2.248   7.452 -0.4703  0.5330 -0.3414
  183SOPE   H4X20969   2.768   2.350   7.448  1.2537 -0.2220 -2.7656
  183SOPE   H4Y20970   2.803   2.170   7.444 -1.9727 -1.0670 -0.1738
  183SOPE   C3520971   2.659   2.222   7.588  0.0211  0.1062  0.6222
  183SOPE   H5X20972   2.625   2.116   7.590  2.3836 -0.7426 -0.7658
  183SOPE   H5Y20973   2.563   2.277   7.599 -1.0206 -1.5655  0.2377
  183SOPE   C3620974   2.753   2.249   7.712 -0.2420  0.1054  0.6266
  183SOPE   H6X20975   2.781   2.356   7.721  2.0184 -0.0513 -2.6986
  183SOPE   H6Y20976   2.846   2.191   7.697 -0.0672  0.2535  1.1326
  183SOPE   C3720977   2.681   2.200   7.843 -0.3788 -0.1928 -0.3224
  183SOPE   H7X20978   2.637   2.104   7.808  1.1011 -0.8846 -0.3486
  183SOPE   H7Y20979   2.593   2.265   7.859  1.0519  1.5586  0.7671
  183SOPE   C3820980   2.784   2.204   7.950  0.1606 -0.4730  1.1199
  183SOPE   H8X20981   2.822   2.308   7.956  2.3706 -1.2214  1.3155
  183SOPE   H8Y20982   2.869   2.139   7.919 -0.2236 -1.2668  1.6945
  183SOPE   C3920983   2.744   2.149   8.081  0.5351 -0.2858  0.2912
  183SOPE   H9X20984   2.689   2.053   8.070 -0.5770  0.3301  0.3872
  183SOPE   H9Y20985   2.675   2.229   8.115  0.5939  0.1380 -0.5527
  183SOPE  C31020986   2.864   2.133   8.182  0.7756 -0.8114  0.5336
  183SOPE  H10X20987   2.938   2.056   8.150  1.2220 -0.0507 -0.2970
  183SOPE  H10Y20988   2.813   2.092   8.272 -0.5562  0.3920  0.3535
  183SOPE  C31120989   2.929   2.269   8.226 -1.0454  0.6169 -0.2808
  183SOPE  H11X20990   2.853   2.350   8.221 -0.3123  1.4140  1.0114
  183SOPE  H11Y20991   3.009   2.294   8.153 -1.5699  0.2011 -1.0175
  183SOPE  C31220992   2.989   2.267   8.370  0.5458  0.2807  0.1686
  183SOPE  H12X20993   3.071   2.192   8.368 -0.3682 -0.8098  1.4142
  183SOPE  H12Y20994   2.922   2.223   8.447 -1.1765 -1.0375 -1.9347
  183SOPE  C31320995   3.036   2.408   8.411 -0.4945  0.3821 -0.4547
  183SOPE  H13X20996   2.954   2.482   8.405 -0.0033  1.0073  0.2826
  183SOPE  H13Y20997   3.103   2.451   8.335  2.5104 -1.6089  0.8602
  183SOPE  C31420998   3.097   2.417   8.553 -0.2202  0.5382 -0.1078
  183SOPE  H14X20999   3.179   2.344   8.575  0.4235  1.1427 -0.4615
  183SOPE  H14Y21000   3.020   2.386   8.627  1.6494  1.9567  2.6081
  183SOPE  C31521001   3.162   2.552   8.593 -0.0576 -0.7680 -0.1462
  183SOPE  H15X21002   3.084   2.630   8.576  1.2007  0.5058 -0.2783
  183SOPE  H15Y21003   3.247   2.577   8.527  0.9297  1.2985  1.7687
  183SOPE  C31621004   3.205   2.554   8.747  0.1308 -0.2916 -0.2303
  183SOPE  H16X21005   3.283   2.480   8.773  0.8340 -0.2420 -2.0289
  183SOPE  H16Y21006   3.111   2.540   8.803  0.4458  2.0309  0.9846
  183SOPE  C31721007   3.265   2.691   8.787  0.1109  0.4130 -0.5024
  183SOPE  H17X21008   3.184   2.767   8.789  0.7840  1.1291 -0.1214
  183SOPE  H17Y21009   3.330   2.720   8.702  2.2375 -0.0516  0.8919
  183SOPE  C31821010   3.353   2.675   8.913  1.3049 -0.0588  0.8977
  183SOPE  H18X21011   3.316   2.592   8.977 -1.7636  0.0158 -0.5859
  183SOPE  H18Y21012   3.343   2.771   8.967 -3.0917 -0.1572  0.6750
  183SOPE  H18Z21013   3.460   2.662   8.887  0.9895 -0.5263 -0.2814
  184SOPE     N21014   1.210   3.264   6.279 -0.2681 -0.0197  0.4141
  184SOPE   HN121015   1.111   3.277   6.310 -1.0844 -1.6729 -1.3291
  184SOPE   HN221016   1.260   3.355   6.286 -0.4827  0.3399 -1.9189
  184SOPE   HN321017   1.202   3.237   6.179  0.5774 -1.5872  0.7517
  184SOPE   C1221018   1.277   3.141   6.339  0.2257  0.1730  0.8011
  184SOPE  H12A21019   1.217   3.051   6.312 -2.1972  1.6905  0.8858
  184SOPE  H12B21020   1.288   3.159   6.448  0.3545 -0.9444  0.9912
  184SOPE   C1121021   1.418   3.131   6.279 -0.0351  0.1215 -0.5489
  184SOPE  H11A21022   1.412   3.094   6.174 -0.3239  3.3327 -1.7781
  184SOPE  H11B21023   1.474   3.056   6.339 -1.8302  0.3873  1.6151
  184SOPE     P21024   1.645   3.260   6.266 -0.3234 -0.4922  0.0621
  184SOPE   O1321025   1.681   3.391   6.216 -0.3495 -0.5064  0.3596
  184SOPE   O1421026   1.687   3.147   6.180  0.2760  0.6652  0.2565
  184SOPE   O1221027   1.490   3.260   6.280  0.2985 -0.0328 -0.2658
  184SOPE   O1121028   1.701   3.236   6.407 -0.0501 -0.1403 -0.5619
  184SOPE    C121029   1.655   3.325   6.515 -0.9132 -0.0711  1.4425
  184SOPE    HA21030   1.584   3.271   6.580 -0.6849  0.0279  1.7766
  184SOPE    HB21031   1.601   3.414   6.475 -0.9625 -0.2325  1.1442
  184SOPE    C221032   1.773   3.373   6.602  0.1828  0.0693 -0.1871
  184SOPE    HS21033   1.874   3.338   6.573  0.4173  1.4739 -1.1791
  184SOPE   O2121034   1.749   3.330   6.735  0.0219 -0.7721 -0.8460
  184SOPE   C2121035   1.785   3.207   6.761  0.4918  0.4965  0.4229
  184SOPE   O2221036   1.817   3.121   6.683  0.1119 -0.2093  1.0892
  184SOPE   C2221037   1.776   3.198   6.913 -0.0412 -0.6282  0.5084
  184SOPE   H2R21038   1.791   3.094   6.950 -0.9046 -0.3453  1.7457
  184SOPE   H2S21039   1.677   3.221   6.959 -0.7146 -0.5832 -0.9300
  184SOPE    C321040   1.785   3.523   6.603 -0.0473  0.6143 -0.2381
  184SOPE    HX21041   1.687   3.563   6.638 -0.5453 -0.9921  0.2795
  184SOPE    HY21042   1.781   3.565   6.500 -1.2527  4.7880  1.3331
  184SOPE   O3121043   1.887   3.573   6.686  0.0658 -0.0437  0.5223
  184SOPE   C3121044   1.998   3.597   6.612  0.6444 -0.5398  0.3789
  184SOPE   O3221045   2.010   3.578   6.492  0.1539  0.0724 -0.0926
  184SOPE   C3221046   2.109   3.644   6.706  0.7102  0.0652  0.2669
  184SOPE   H2X21047   2.107   3.755   6.713 -3.4559  0.2222 -0.8661
  184SOPE   H2Y21048   2.203   3.606   6.661 -1.5061 -1.6845 -3.4000
  184SOPE   C2321049   1.879   3.292   6.985 -0.4783 -0.2515  0.1927
  184SOPE   H3R21050   1.846   3.396   6.965 -0.6515 -0.0735  1.3618
  184SOPE   H3S21051   1.972   3.306   6.926 -0.5957 -1.2284 -0.2600
  184SOPE   C2421052   1.903   3.275   7.137 -0.0021  0.0443  0.9896
  184SOPE   H4R21053   1.963   3.182   7.138 -0.6851 -0.4094  0.9387
  184SOPE   H4S21054   1.977   3.354   7.161  1.4771 -0.7942 -0.5711
  184SOPE   C2521055   1.786   3.278   7.232  0.8399 -0.5617  0.1343
  184SOPE   H5R21056   1.754   3.384   7.230  0.1260 -0.7023  2.2389
  184SOPE   H5S21057   1.696   3.219   7.203 -0.0921 -0.3394  2.3911
  184SOPE   C2621058   1.832   3.235   7.367 -0.1459 -0.1549  0.0111
  184SOPE   H6R21059   1.864   3.129   7.363 -0.8261 -0.4222  1.1987
  184SOPE   H6S21060   1.921   3.293   7.399 -0.0995 -0.2576  0.0663
  184SOPE   C2721061   1.731   3.257   7.473  0.1210  1.4321 -0.2263
  184SOPE   H7R21062   1.703   3.363   7.485  0.1473  1.2878  1.3254
  184SOPE   H7S21063   1.635   3.203   7.455 -0.3761  2.5886 -1.1796
  184SOPE   C2821064   1.787   3.215   7.613  0.5082  0.2231  0.7919
  184SOPE   H8R21065   1.822   3.111   7.594  1.5476  1.0109 -2.1180
  184SOPE   H8S21066   1.880   3.273   7.634  0.0916  0.5626  1.7352
  184SOPE   C2921067   1.674   3.220   7.711 -0.4343 -0.0008 -0.4323
  184SOPE   H9121068   1.584   3.167   7.676 -0.2253 -1.7236  1.4371
  184SOPE  C21021069   1.680   3.266   7.839 -0.0871 -0.5571  0.8776
  184SOPE  H10121070   1.595   3.265   7.908 -0.4366  2.4358  0.5988
  184SOPE  C21121071   1.811   3.304   7.907 -0.2116  0.2440 -0.0421
  184SOPE  H11R21072   1.841   3.411   7.897  3.2630 -0.5430  0.6730
  184SOPE  H11S21073   1.902   3.256   7.865 -1.6925 -1.5210 -1.3899
  184SOPE  C21221074   1.800   3.278   8.053 -0.7414 -0.0734  0.3798
  184SOPE  H12R21075   1.900   3.307   8.090 -0.6548  0.3331 -0.1698
  184SOPE  H12S21076   1.794   3.168   8.068  0.9551 -0.0017  1.9308
  184SOPE  C21321077   1.692   3.345   8.135  0.3937  0.2576 -0.4037
  184SOPE  H13R21078   1.591   3.338   8.089 -0.1118  0.4328  0.6609
  184SOPE  H13S21079   1.717   3.453   8.124 -0.0540  0.3372 -0.6782
  184SOPE  C21421080   1.688   3.317   8.286 -0.5744  0.0067  0.1705
  184SOPE  H14R21081   1.645   3.218   8.312 -0.5117 -0.7036 -2.2097
  184SOPE  H14S21082   1.631   3.399   8.335  3.8758  3.0770  0.7595
  184SOPE  C21521083   1.824   3.331   8.360 -0.3079 -0.2341 -0.3147
  184SOPE  H15R21084   1.900   3.271   8.305 -1.4805 -1.3152 -0.7932
  184SOPE  H15S21085   1.815   3.297   8.465  0.9232  1.3108  0.3285
  184SOPE  C21621086   1.862   3.473   8.378 -0.3132 -0.5684 -0.4404
  184SOPE  H16R21087   1.788   3.518   8.447  1.0251  0.8172  0.1422
  184SOPE  H16S21088   1.842   3.521   8.280 -1.1174  1.8408  0.8062
  184SOPE  C21721089   2.004   3.498   8.422 -0.0573  0.0721  0.1488
  184SOPE  H17R21090   2.066   3.444   8.347 -0.6493 -0.9047  0.3399
  184SOPE  H17S21091   2.017   3.434   8.511 -0.5127 -1.1496 -0.6284
  184SOPE  C21821092   2.048   3.642   8.440  0.3528 -0.4764 -0.4935
  184SOPE  H18R21093   2.156   3.653   8.462 -0.0013 -1.8610  2.3782
  184SOPE  H18S21094   1.990   3.685   8.524  2.5966  1.2674  0.2583
  184SOPE  H18T21095   2.026   3.691   8.342 -0.3309  0.5145  0.1418
  184SOPE   C3321096   2.085   3.580   6.845 -0.5141 -0.2828 -0.0357
  184SOPE   H3X21097   2.094   3.470   6.841 -0.5419 -0.3855  1.7936
  184SOPE   H3Y21098   1.984   3.597   6.890 -1.4935 -0.4596 -2.0584
  184SOPE   C3421099   2.194   3.626   6.950  0.8892 -0.3077 -0.3016
  184SOPE   H4X21100   2.188   3.736   6.966 -0.3890 -0.1382 -1.6737
  184SOPE   H4Y21101   2.295   3.590   6.921  0.9875 -0.0575 -0.2757
  184SOPE   C3521102   2.157   3.581   7.094  0.3605 -0.2367 -0.2276
  184SOPE   H5X21103   2.149   3.472   7.076 -1.0233 -0.2504  0.3452
  184SOPE   H5Y21104   2.049   3.608   7.102  0.7990  0.9060  3.6189
  184SOPE   C3621105   2.251   3.612   7.207 -0.2511  0.1047  0.6154
  184SOPE   H6X21106   2.350   3.581   7.167 -0.1871  0.3089  0.6129
  184SOPE   H6Y21107   2.220   3.539   7.284 -0.4438 -0.4081  0.0612
  184SOPE   C3721108   2.238   3.752   7.279  0.4044 -0.1892  0.8737
  184SOPE   H7X21109   2.130   3.770   7.292  0.7300  2.3999  0.5969
  184SOPE   H7Y21110   2.280   3.830   7.211 -1.0170 -2.0976 -2.4142
  184SOPE   C3821111   2.324   3.765   7.408  0.9809 -0.8037  0.8423
  184SOPE   H8X21112   2.429   3.755   7.373  0.3368  1.1696 -2.0259
  184SOPE   H8Y21113   2.314   3.679   7.477  2.7580 -0.7810  1.1796
  184SOPE   C3921114   2.293   3.897   7.482  0.0746 -0.4106 -0.6054
  184SOPE   H9X21115   2.189   3.906   7.520 -0.6280 -3.5996 -1.4488
  184SOPE   H9Y21116   2.322   3.984   7.420 -0.4141  0.2873  0.1260
  184SOPE  C31021117   2.380   3.890   7.605 -0.4023 -0.2467  0.4441
  184SOPE  H10X21118   2.484   3.911   7.575 -0.5360 -1.5340 -1.0656
  184SOPE  H10Y21119   2.379   3.784   7.639  0.3463 -0.6643 -0.7771
  184SOPE  C31121120   2.332   3.973   7.722  0.9763 -0.0245  0.4141
  184SOPE  H11X21121   2.223   3.953   7.738  0.4399  1.1362 -1.4524
  184SOPE  H11Y21122   2.329   4.076   7.680 -1.1891 -0.1469  0.1465
  184SOPE  C31221123   2.420   3.984   7.843 -0.1998 -0.3232  0.4265
  184SOPE  H12X21124   2.509   4.046   7.815 -0.9303 -0.0353 -1.4152
  184SOPE  H12Y21125   2.458   3.881   7.859 -1.4113 -1.1788 -1.7242
  184SOPE  C31321126   2.344   4.043   7.967  0.0654  0.0328  0.5724
  184SOPE  H13X21127   2.421   4.070   8.042 -1.5777  2.8584  1.3826
  184SOPE  H13Y21128   2.281   3.969   8.020 -0.1006  0.3576  0.8345
  184SOPE  C31421129   2.261   4.170   7.941  0.3513  0.3602 -0.5458
  184SOPE  H14X21130   2.195   4.164   7.852 -0.3702  0.1618 -0.0139
  184SOPE  H14Y21131   2.334   4.252   7.924  1.0255  0.2698  1.5855
  184SOPE  C31521132   2.162   4.212   8.059 -1.0275  0.6301  0.4622
  184SOPE  H15X21133   2.109   4.115   8.073 -0.8917  0.1538 -1.8613
  184SOPE  H15Y21134   2.094   4.291   8.022  1.4461  1.8047 -1.9311
  184SOPE  C31621135   2.232   4.249   8.195  0.0126 -0.2280 -0.3645
  184SOPE  H16X21136   2.316   4.316   8.166  0.2389 -0.4431 -0.2178
  184SOPE  H16Y21137   2.288   4.159   8.228  2.3266  1.1550 -0.2766
  184SOPE  C31721138   2.147   4.321   8.304 -0.6667  0.0955 -0.6718
  184SOPE  H17X21139   2.067   4.254   8.342  2.0834 -2.0636  1.7922
  184SOPE  H17Y21140   2.104   4.413   8.260 -2.4207 -0.7474 -0.8166
  184SOPE  C31821141   2.237   4.347   8.424 -0.1816 -0.0981 -0.4013
  184SOPE  H18X21142   2.174   4.383   8.509 -0.2477 -3.0315  0.9095
  184SOPE  H18Y21143   2.317   4.417   8.390 -0.8181  0.2285 -1.2632
  184SOPE  H18Z21144   2.290   4.254   8.454 -2.5298 -1.2354  0.4723
  185SAPI   C1221145   5.328   0.222  11.101 -0.1006 -0.6179  0.2137
  185SAPI    H221146   5.383   0.134  11.139  0.1971 -1.0158 -1.0720
  185SAPI    O221147   5.194   0.201  11.149  0.0166 -0.0458 -0.3298
  185SAPI   HO221148   5.205   0.162  11.236 -0.7821  4.9703  2.4377
  185SAPI   C1321149   5.384   0.350  11.158 -0.7824  0.0052  0.2268
  185SAPI    H321150   5.491   0.357  11.131 -0.9483 -0.1859 -0.4840
  185SAPI    O321151   5.385   0.357  11.301 -0.3672 -0.1792 -0.4741
  185SAPI   HO321152   5.294   0.387  11.315 -0.4998  0.1323 -1.8442
  185SAPI   C1421153   5.311   0.470  11.096 -0.0509 -0.0375 -0.1735
  185SAPI    H421154   5.202   0.470  11.117  0.1026 -0.2070  0.6651
  185SAPI    O421155   5.352   0.597  11.149 -0.6967  0.0254 -0.0472
  185SAPI   HO421156   5.381   0.569  11.236 -0.5426 -3.0228 -0.9758
  185SAPI   C1521157   5.322   0.465  10.939  0.1044 -0.1629  0.8309
  185SAPI    H521158   5.431   0.468  10.918  0.0507  0.1623  0.5897
  185SAPI    O521159   5.270   0.581  10.877 -0.6787 -0.4845 -0.1372
  185SAPI   HO521160   5.292   0.574  10.783  0.2502 -0.1776  0.0449
  185SAPI   C1621161   5.254   0.339  10.881  0.4167  0.2996 -0.0126
  185SAPI    H621162   5.153   0.339  10.925  1.2068 -2.5855  2.1242
  185SAPI    O621163   5.259   0.340  10.741 -0.0733 -0.2994 -0.1357
  185SAPI   HO621164   5.351   0.334  10.714 -0.4597  0.7504 -1.8922
  185SAPI   C1121165   5.321   0.219  10.944  0.4977 -0.1636 -0.5008
  185SAPI    H121166   5.425   0.218  10.906  1.0912  0.0567  1.0617
  185SAPI     P21167   5.331  -0.038  10.890  0.6540  0.0621 -0.1791
  185SAPI   O1321168   5.255  -0.147  10.962  0.3641  0.2011 -0.6085
  185SAPI   O1421169   5.472  -0.010  10.928 -0.7210  0.6589  0.0479
  185SAPI   O1221170   5.249   0.106  10.900  0.1490 -0.2887  0.0568
  185SAPI   O1121171   5.322  -0.069  10.739  0.5307  0.0875 -0.5545
  185SAPI    C121172   5.306   0.025  10.629 -0.8919  0.3802 -0.4207
  185SAPI    HA21173   5.233   0.104  10.658 -2.5690 -2.0615  2.6615
  185SAPI    HB21174   5.407   0.054  10.593 -0.2570 -1.8173 -0.5723
  185SAPI    C221175   5.233  -0.041  10.507  0.3570 -0.4838 -0.3036
  185SAPI    HS21176   5.148  -0.106  10.539  0.2445  0.9327  2.6144
  185SAPI   O2121177   5.333  -0.114  10.433 -0.5593  0.4222 -0.2423
  185SAPI   C2121178   5.295  -0.234  10.384 -0.0041 -0.2736 -0.1069
  185SAPI   O2221179   5.183  -0.280  10.388  0.0004 -0.4732 -0.4480
  185SAPI   C2221180   5.404  -0.305  10.303  0.1255 -0.1274 -0.3854
  185SAPI   H2R21181   5.425  -0.399  10.359  0.6269 -1.3846 -2.5548
  185SAPI   H2S21182   5.368  -0.328  10.201  4.9951 -0.7970 -2.2313
  185SAPI    C321183   5.170   0.077  10.428  0.9508  0.2193  0.2558
  185SAPI    HX21184   5.260   0.135  10.400  0.9175  0.2651  0.2445
  185SAPI    HY21185   5.105   0.139  10.492  0.2506  0.5052 -0.7131
  185SAPI   O3121186   5.097   0.025  10.309 -0.6482 -0.0379  0.1290
  185SAPI   C3121187   4.973  -0.018  10.330 -0.2195  0.1850 -0.2378
  185SAPI   O3221188   4.910  -0.006  10.433  0.5152  0.3455  0.0359
  185SAPI   C3221189   4.923  -0.083  10.199 -0.6951 -0.3135 -0.1984
  185SAPI   H2X21190   4.869  -0.000  10.148 -0.5582 -0.9384 -1.3859
  185SAPI   H2Y21191   4.853  -0.160  10.239  1.0374 -1.6308  0.4059
  185SAPI   C2321192   5.540  -0.234  10.292  0.1199  0.1673 -0.1763
  185SAPI   H3R21193   5.585  -0.224  10.394 -1.3848 -0.0541  0.5436
  185SAPI   H3S21194   5.526  -0.130  10.257 -0.9189  0.6887  1.6079
  185SAPI   C2421195   5.649  -0.296  10.200 -0.3069 -0.3822 -0.2723
  185SAPI   H4R21196   5.606  -0.304  10.098  1.3189 -0.6208 -0.9699
  185SAPI   H4S21197   5.652  -0.404  10.228  0.4286 -0.3025 -0.0036
  185SAPI   C2521198   5.786  -0.237  10.212 -0.0443  0.7317 -1.4768
  185SAPI   H5R21199   5.829  -0.231  10.312  0.5249  3.1947 -1.7925
  185SAPI   C2621200   5.861  -0.172  10.119 -0.2293 -0.7193 -0.2089
  185SAPI   H6R21201   5.958  -0.136  10.158 -0.3592 -1.6848  1.0286
  185SAPI   C2721202   5.830  -0.143   9.977  0.1003  0.1327  0.0351
  185SAPI   H7R21203   5.874  -0.042   9.959  1.4877 -0.1647  1.5982
  185SAPI   H7S21204   5.723  -0.145   9.947 -0.2007 -0.7523  1.1027
  185SAPI   C2821205   5.896  -0.249   9.904  0.3245 -0.2556  0.5193
  185SAPI   H8R21206   5.922  -0.342   9.956  0.7301  0.7406  2.1548
  185SAPI   C2921207   5.913  -0.241   9.772 -0.8551 -0.7188  0.3859
  185SAPI   H9R21208   5.972  -0.325   9.732  0.7284 -0.0894  1.2890
  185SAPI  C21021209   5.883  -0.127   9.683 -0.0205  0.4926  0.2837
  185SAPI  H10R21210   5.972  -0.061   9.674  0.7452 -0.5554 -0.0492
  185SAPI  H10S21211   5.796  -0.071   9.724 -0.1902 -0.4928  1.3163
  185SAPI  C21121212   5.855  -0.194   9.550 -0.5106  0.3984  0.0894
  185SAPI  H11R21213   5.799  -0.288   9.562  0.7111 -0.0372  3.0166
  185SAPI  C21221214   5.895  -0.160   9.423  0.2037 -0.3394 -0.2542
  185SAPI  H12R21215   5.868  -0.222   9.336  2.7699 -1.1254 -0.5798
  185SAPI  C21321216   5.968  -0.032   9.385 -0.3786 -0.4554 -0.2551
  185SAPI  H13R21217   5.959   0.034   9.474  0.3407 -0.0006 -0.5082
  185SAPI  H13S21218   5.914   0.030   9.310 -1.9000 -1.0168  0.3233
  185SAPI  C21421219   6.110  -0.082   9.361  0.2032  0.0681  0.0121
  185SAPI  H14R21220   6.172  -0.095   9.450  2.5748  0.0536 -1.5637
  185SAPI  C21521221   6.164  -0.111   9.241 -0.1263 -0.5229 -0.4879
  185SAPI  H15R21222   6.268  -0.146   9.235  0.0523 -0.1276  0.2812
  185SAPI  C21621223   6.094  -0.091   9.117 -0.2388 -0.1365  0.3371
  185SAPI  H16R21224   6.161  -0.048   9.040  1.0110  0.4277  1.7009
  185SAPI  H16S21225   6.013  -0.016   9.130  0.4893  0.7005  0.1460
  185SAPI  C21721226   6.028  -0.219   9.062 -0.0568  0.2474 -0.2751
  185SAPI  H17R21227   5.934  -0.197   9.007 -0.3358 -1.9345 -0.7487
  185SAPI  H17S21228   5.983  -0.282   9.141 -0.4138  0.0098 -0.6611
  185SAPI  C21821229   6.129  -0.289   8.965  0.0897 -0.1639  0.1227
  185SAPI  H18R21230   6.205  -0.345   9.024  1.6869  1.0257 -0.7033
  185SAPI  H18S21231   6.183  -0.207   8.912 -0.8416  0.2691 -0.1689
  185SAPI  C21921232   6.058  -0.366   8.856  0.2372 -0.4133  0.0281
  185SAPI  H19R21233   5.962  -0.408   8.895 -0.5762  1.0175 -0.3592
  185SAPI  H19S21234   6.120  -0.453   8.826  2.5486  0.0731  2.9474
  185SAPI  C22021235   6.035  -0.282   8.739 -0.2296  0.5623  0.6021
  185SAPI  H20R21236   5.998  -0.183   8.772  0.1402  0.7667  0.4056
  185SAPI  H20S21237   5.957  -0.328   8.675  0.6649 -2.1513  1.3101
  185SAPI  H20T21238   6.128  -0.280   8.679  1.4514  2.3285  3.1147
  185SAPI   C3321239   5.026  -0.156  10.107 -0.1445 -1.1304  0.0919
  185SAPI   H3X21240   4.968  -0.209  10.029 -0.5947  0.8880 -1.0421
  185SAPI   H3Y21241   5.094  -0.223  10.165  1.1323  0.5090  0.6041
  185SAPI   C3421242   5.115  -0.052  10.028  0.2133 -0.2186 -0.9071
  185SAPI   H4X21243   5.188   0.001  10.092 -1.4869  0.8895  0.2171
  185SAPI   H4Y21244   5.059   0.038   9.992 -1.1936 -1.4015 -1.7914
  185SAPI   C3521245   5.179  -0.102   9.901 -0.1864 -0.1081  1.0039
  185SAPI   H5X21246   5.230  -0.017   9.852 -0.4367  0.3622  1.5513
  185SAPI   H5Y21247   5.103  -0.152   9.837  1.4038 -2.6942  0.9879
  185SAPI   C3621248   5.278  -0.216   9.929 -0.4418  1.0108  0.5302
  185SAPI   H6X21249   5.216  -0.295   9.977  0.1373  0.4433  0.3732
  185SAPI   H6Y21250   5.362  -0.186   9.995  0.9124  0.3805 -0.8373
  185SAPI   C3721251   5.358  -0.268   9.805 -0.0876 -0.3109 -0.2881
  185SAPI   H7X21252   5.454  -0.212   9.798  1.2781 -1.7608  3.8869
  185SAPI   H7Y21253   5.306  -0.233   9.714  1.4270 -1.3080 -1.6021
  185SAPI   C3821254   5.385  -0.412   9.813  0.4299  0.4305  0.4864
  185SAPI   H8X21255   5.295  -0.470   9.782  1.4647 -0.3471 -1.2125
  185SAPI   H8Y21256   5.417  -0.427   9.918  0.0234  0.6160  0.6393
  185SAPI   C3921257   5.500  -0.452   9.714 -0.0052 -0.6833 -0.8920
  185SAPI   H9X21258   5.529  -0.554   9.746  0.2929 -0.7642 -1.4032
  185SAPI   H9Y21259   5.594  -0.393   9.729  0.3313 -0.8437 -2.2540
  185SAPI  C31021260   5.474  -0.432   9.565 -0.0083 -0.1359  0.1324
  185SAPI  H10X21261   5.476  -0.325   9.536  1.2636 -0.2934 -0.4622
  185SAPI  H10Y21262   5.373  -0.465   9.534 -0.8871  1.5375  1.0967
  185SAPI  C31121263   5.576  -0.503   9.470  0.5403  0.6004  0.0896
  185SAPI  H11X21264   5.564  -0.614   9.480  0.1326  0.6743  0.4935
  185SAPI  H11Y21265   5.676  -0.468   9.503  0.1419  0.8138  1.1198
  185SAPI  C31221266   5.567  -0.465   9.316 -0.2624 -0.1358 -0.8567
  185SAPI  H12X21267   5.563  -0.354   9.324 -0.0159 -0.1377 -0.6918
  185SAPI  H12Y21268   5.472  -0.505   9.274 -0.1407  0.4675 -1.7246
  185SAPI  C31321269   5.693  -0.509   9.235 -0.2860  0.3135 -0.3157
  185SAPI  H13X21270   5.712  -0.618   9.246 -1.5357  0.0531 -0.6063
  185SAPI  H13Y21271   5.781  -0.453   9.273 -0.0043 -0.4689  0.2040
  185SAPI  C31421272   5.687  -0.462   9.080  0.6179 -0.2839 -0.3374
  185SAPI  H14X21273   5.773  -0.511   9.031 -0.8066 -3.7270  0.3078
  185SAPI  H14Y21274   5.704  -0.352   9.080 -1.1252  0.0271  0.6350
  185SAPI  C31521275   5.569  -0.514   9.009  1.2312 -0.1615 -0.0185
  185SAPI  H15X21276   5.565  -0.476   8.905  1.6745 -0.4629 -0.1516
  185SAPI  H15Y21277   5.475  -0.476   9.053  0.3907 -1.8456 -0.2968
  185SAPI  C31621278   5.567  -0.670   8.996 -0.1914 -0.1509 -0.2833
  185SAPI  H16X21279   5.537  -0.725   9.088  0.0432  1.9659  1.1432
  185SAPI  H16Y21280   5.666  -0.705   8.961 -0.2379  0.4272 -1.0236
  185SAPI  C31721281   5.475  -0.709   8.876 -0.5067  0.7050 -0.2497
  185SAPI  H17X21282   5.491  -0.634   8.796 -2.0070  1.3166 -0.0130
  185SAPI  H17Y21283   5.372  -0.694   8.914 -0.7756 -3.8808  1.5405
  185SAPI  C31821284   5.501  -0.851   8.814 -0.1891 -0.3016 -0.5623
  185SAPI  H18X21285   5.446  -0.853   8.718 -1.9438 -2.5418  0.3935
  185SAPI  H18Y21286   5.483  -0.940   8.878  2.1203  0.1967  0.9224
  185SAPI  H18Z21287   5.610  -0.852   8.792  0.2942  5.5304 -0.0832
  186SAPI   C1221288   6.355   5.719  11.113 -0.6501  0.5974 -0.1410
  186SAPI    H221289   6.263   5.675  11.070 -0.1389  0.9934 -1.7116
  186SAPI    O221290   6.338   5.860  11.144  0.3193 -0.4800  0.5120
  186SAPI   HO221291   6.263   5.885  11.089  0.1175 -0.2469  0.8860
  186SAPI   C1321292   6.387   5.638  11.231 -0.3901  0.7054 -0.4218
  186SAPI    H321293   6.403   5.534  11.196  3.3089  1.0444 -0.1318
  186SAPI    O321294   6.274   5.627  11.313 -0.2214 -0.3147 -0.2661
  186SAPI   HO321295   6.271   5.713  11.356  0.6912 -0.0219 -0.7667
  186SAPI   C1421296   6.511   5.691  11.300 -0.3140 -0.2445  0.5046
  186SAPI    H421297   6.495   5.800  11.311  2.4158  0.2914 -0.0347
  186SAPI    O421298   6.525   5.632  11.428 -0.4008  0.0403  0.0954
  186SAPI   HO421299   6.585   5.691  11.474  0.5749  0.7316 -1.9509
  186SAPI   C1521300   6.628   5.669  11.206 -0.4518  0.6619  0.3914
  186SAPI    H521301   6.639   5.560  11.188  0.2830  0.9843 -1.3434
  186SAPI    O521302   6.751   5.712  11.271 -0.0455 -0.2104 -0.4004
  186SAPI   HO521303   6.783   5.637  11.321  1.6128  0.1475 -0.8844
  186SAPI   C1621304   6.603   5.740  11.075 -0.2729  0.6573 -0.6650
  186SAPI    H621305   6.605   5.848  11.099  2.1711  0.3819  0.6779
  186SAPI    O621306   6.717   5.716  10.991 -0.2530  0.4276 -0.1238
  186SAPI   HO621307   6.759   5.800  10.978 -0.8222  0.5820 -1.0906
  186SAPI   C1121308   6.472   5.705  11.010  0.9916 -0.4525  0.0104
  186SAPI    H121309   6.479   5.596  10.990 -2.7606 -0.4546 -2.2748
  186SAPI     P21310   6.341   5.744  10.784  0.4166 -0.1124  0.3670
  186SAPI   O1321311   6.269   5.868  10.756  0.1787  0.1145 -0.0006
  186SAPI   O1421312   6.258   5.637  10.834  0.1887 -0.1159 -0.0231
  186SAPI   O1221313   6.452   5.780  10.888  0.3694  0.6156 -0.0688
  186SAPI   O1121314   6.420   5.694  10.653 -0.2159 -0.3815 -0.2846
  186SAPI    C121315   6.558   5.656  10.645  0.1418  0.6479  0.2150
  186SAPI    HA21316   6.588   5.592  10.731  1.8605  3.5869  1.9507
  186SAPI    HB21317   6.569   5.614  10.542 -1.6500  0.8889 -0.1183
  186SAPI    C221318   6.653   5.781  10.634 -0.1431 -0.2928  0.0732
  186SAPI    HS21319   6.632   5.835  10.729  0.5335 -0.2420  0.1988
  186SAPI   O2121320   6.594   5.855  10.515  0.0320 -0.0333 -0.0613
  186SAPI   C2121321   6.647   5.972  10.500  0.1311  0.1045 -0.1249
  186SAPI   O2221322   6.719   6.029  10.584  0.4015  0.7572  1.0525
  186SAPI   C2221323   6.608   6.027  10.357  0.3148 -0.2298 -0.3266
  186SAPI   H2R21324   6.498   6.038  10.344  0.4563  2.5934  0.3004
  186SAPI   H2S21325   6.646   6.131  10.352 -2.1631  0.7212 -0.8699
  186SAPI    C321326   6.807   5.750  10.630 -0.5096  0.5850 -0.2600
  186SAPI    HX21327   6.838   5.664  10.694  0.3555 -0.1809 -1.6471
  186SAPI    HY21328   6.848   5.843  10.674 -1.8796  2.3778 -2.5215
  186SAPI   O3121329   6.860   5.727  10.503  0.0440  0.0420 -0.3200
  186SAPI   C3121330   6.987   5.677  10.501  0.4164 -0.6677 -0.5828
  186SAPI   O3221331   7.042   5.626  10.599 -0.2219 -0.3878  0.4878
  186SAPI   C3221332   7.061   5.692  10.366  0.1221 -0.4518 -1.0677
  186SAPI   H2X21333   7.162   5.646  10.377  0.7840  0.7197 -1.9732
  186SAPI   H2Y21334   7.069   5.800  10.342 -2.7320  0.5329  1.6798
  186SAPI   C2321335   6.659   5.942  10.234  0.6477  0.0965 -0.3932
  186SAPI   H3R21336   6.608   5.989  10.147  1.4668  0.6841 -0.5587
  186SAPI   H3S21337   6.610   5.842  10.236  1.6283 -0.4550 -2.0930
  186SAPI   C2421338   6.813   5.945  10.229  0.4980 -0.5458  0.3362
  186SAPI   H4R21339   6.862   5.867  10.167  0.4532  1.4524 -2.3658
  186SAPI   H4S21340   6.862   5.912  10.324  2.5676 -2.1949 -1.1900
  186SAPI   C2521341   6.850   6.089  10.195 -0.7079  0.8070 -0.0985
  186SAPI   H5R21342   6.859   6.170  10.269 -2.2656 -0.0588  1.0920
  186SAPI   C2621343   6.904   6.124  10.084  0.5575  0.1615  0.3367
  186SAPI   H6R21344   6.902   6.233  10.066 -0.3895  0.0246 -0.4822
  186SAPI   C2721345   6.946   6.037   9.969  0.0834  0.1464  0.3411
  186SAPI   H7R21346   6.874   6.049   9.885 -0.0972  0.1319  0.4917
  186SAPI   H7S21347   6.927   5.930   9.994  1.0974  0.1896  1.3896
  186SAPI   C2821348   7.085   6.049   9.915 -0.0902 -0.4471  0.1787
  186SAPI   H8R21349   7.146   6.089   9.997 -0.7179 -1.1432  1.0087
  186SAPI   C2921350   7.143   6.000   9.805 -0.4001 -0.2720  0.5796
  186SAPI   H9R21351   7.245   6.031   9.779 -0.8386  2.2559  1.5620
  186SAPI  C21021352   7.073   5.911   9.706 -0.0785 -0.1365  0.0035
  186SAPI  H10R21353   6.972   5.884   9.742 -0.0835  1.7338  1.5903
  186SAPI  H10S21354   7.127   5.815   9.692 -1.4810 -0.6997 -1.9002
  186SAPI  C21121355   7.054   5.989   9.576  0.0901  0.0421 -0.0932
  186SAPI  H11R21356   6.996   6.083   9.582 -1.3375 -0.5830 -2.7793
  186SAPI  C21221357   7.115   5.970   9.456 -0.1109 -0.0444 -0.2377
  186SAPI  H12R21358   7.086   6.037   9.374 -0.3991 -1.8062 -1.6483
  186SAPI  C21321359   7.215   5.867   9.412  0.1051  0.2858  0.0864
  186SAPI  H13R21360   7.251   5.811   9.501 -0.8086  0.0534  0.3184
  186SAPI  H13S21361   7.306   5.922   9.379 -0.1950 -0.3678 -1.9360
  186SAPI  C21421362   7.151   5.774   9.311  0.7016 -0.7245 -0.1578
  186SAPI  H14R21363   7.050   5.737   9.334  1.3262 -1.3176  1.8862
  186SAPI  C21521364   7.227   5.721   9.210 -0.6153  0.1347  0.4786
  186SAPI  H15R21365   7.172   5.657   9.140  0.8782 -0.6409 -0.0501
  186SAPI  C21621366   7.375   5.750   9.183  0.3647 -0.4104 -0.9812
  186SAPI  H16R21367   7.426   5.661   9.141  1.4979 -0.9610  1.3882
  186SAPI  H16S21368   7.417   5.784   9.280 -3.2325  1.5827  0.0562
  186SAPI  C21721369   7.398   5.864   9.082 -0.0525 -0.6529  0.0582
  186SAPI  H17R21370   7.506   5.887   9.070  0.1009 -0.9262  0.9230
  186SAPI  H17S21371   7.344   5.957   9.112 -2.0261 -1.4827 -0.7417
  186SAPI  C21821372   7.336   5.832   8.948 -0.7745  0.3000 -0.0636
  186SAPI  H18R21373   7.231   5.796   8.962 -0.1438 -1.2364  0.9880
  186SAPI  H18S21374   7.398   5.754   8.899  1.9568  0.6775  2.5172
  186SAPI  C21921375   7.312   5.958   8.858 -0.2250  0.3902 -0.0301
  186SAPI  H19R21376   7.406   6.016   8.849 -0.7713  1.1100 -1.5214
  186SAPI  H19S21377   7.240   6.028   8.905 -0.1582  1.8720 -1.9980
  186SAPI  C22021378   7.244   5.923   8.727  0.6776 -0.2910  0.1654
  186SAPI  H20R21379   7.134   5.918   8.740  0.6004  0.4137 -0.1575
  186SAPI  H20S21380   7.287   5.837   8.672  2.2896  0.3566  0.3531
  186SAPI  H20T21381   7.257   6.008   8.656 -3.3552 -1.7139 -2.6531
  186SAPI   C3321382   6.986   5.620  10.257 -0.0533  0.4124 -0.4565
  186SAPI   H3X21383   6.888   5.672  10.247  0.4976  1.6820  0.4195
  186SAPI   H3Y21384   6.940   5.522  10.279 -2.7748  1.5826 -0.5830
  186SAPI   C3421385   7.059   5.618  10.120 -0.1062  0.0042  0.0466
  186SAPI   H4X21386   7.133   5.536  10.126  2.9612  2.6484  1.6067
  186SAPI   H4Y21387   7.115   5.711  10.094  2.1305 -1.3620 -0.2948
  186SAPI   C3521388   6.969   5.582   9.999  0.9101 -0.0295  0.4315
  186SAPI   H5X21389   6.893   5.657   9.968  0.1555 -1.1327 -0.4770
  186SAPI   H5Y21390   6.903   5.497  10.029 -1.8585  1.3429 -1.3602
  186SAPI   C3621391   7.048   5.548   9.866 -0.3457  0.2640 -0.2512
  186SAPI   H6X21392   7.075   5.441   9.877 -0.8200  0.0671 -0.9412
  186SAPI   H6Y21393   7.129   5.624   9.863 -1.9742  2.0856 -0.2642
  186SAPI   C3721394   6.964   5.556   9.739  0.1330  0.5070 -0.2420
  186SAPI   H7X21395   6.923   5.658   9.724 -2.4597 -0.4710 -0.3383
  186SAPI   H7Y21396   6.874   5.491   9.738  1.0299 -0.7861 -1.1112
  186SAPI   C3821397   7.047   5.526   9.611  0.7295  1.1631  0.0674
  186SAPI   H8X21398   7.087   5.425   9.635 -0.6099  0.8401  1.0680
  186SAPI   H8Y21399   7.128   5.599   9.591  1.2805  0.9905  1.5525
  186SAPI   C3921400   6.959   5.499   9.489  0.0812 -0.3759 -0.4550
  186SAPI   H9X21401   6.930   5.600   9.452  1.8080 -0.0993 -1.1423
  186SAPI   H9Y21402   6.865   5.449   9.521 -0.0879 -0.1473 -0.5894
  186SAPI  C31021403   7.027   5.422   9.370  0.0063 -1.7243 -0.5650
  186SAPI  H10X21404   7.037   5.317   9.405 -0.1455 -2.4025 -2.4426
  186SAPI  H10Y21405   7.131   5.455   9.347  0.2763 -2.4997 -0.4783
  186SAPI  C31121406   6.947   5.429   9.242 -0.0339  0.3558 -0.1763
  186SAPI  H11X21407   6.976   5.529   9.202 -1.0404  1.3539  1.4516
  186SAPI  H11Y21408   6.838   5.435   9.263 -0.0502  0.1947 -0.2185
  186SAPI  C31221409   6.972   5.309   9.148  0.7033 -1.1034  0.0463
  186SAPI  H12X21410   6.932   5.214   9.189 -2.0079 -0.6429 -1.2952
  186SAPI  H12Y21411   7.082   5.303   9.140  0.6281 -0.9522 -1.4354
  186SAPI  C31321412   6.896   5.325   9.010  0.5268  0.1978 -0.1736
  186SAPI  H13X21413   6.947   5.408   8.957  1.8450  0.1267  0.9023
  186SAPI  H13Y21414   6.788   5.348   9.017  0.1585 -1.4343  0.0269
  186SAPI  C31421415   6.907   5.202   8.925 -0.4798  0.4176  0.0446
  186SAPI  H14X21416   6.868   5.119   8.987  0.9841  0.0413  0.5050
  186SAPI  H14Y21417   7.015   5.176   8.914  0.1438  1.9558  2.0155
  186SAPI  C31521418   6.836   5.214   8.792 -0.2807  0.4571 -0.2146
  186SAPI  H15X21419   6.865   5.294   8.720 -1.3621  2.0070  1.0129
  186SAPI  H15Y21420   6.729   5.221   8.822 -0.1362  3.0950 -0.1326
  186SAPI  C31621421   6.836   5.083   8.719 -0.3480  0.3968  0.5479
  186SAPI  H16X21422   6.822   5.005   8.797 -1.3982 -1.5389 -1.4644
  186SAPI  H16Y21423   6.939   5.058   8.686 -0.0134  0.0919  1.7589
  186SAPI  C31721424   6.735   5.066   8.602 -0.1642 -0.1931  0.6252
  186SAPI  H17X21425   6.730   5.152   8.532  0.4625 -0.0520  0.7492
  186SAPI  H17Y21426   6.637   5.039   8.647 -0.4737 -1.4194 -0.7236
  186SAPI  C31821427   6.764   4.938   8.520  0.1874  0.4232  0.0611
  186SAPI  H18X21428   6.680   4.925   8.448  0.8737  0.0281 -0.6856
  186SAPI  H18Y21429   6.762   4.852   8.589 -0.4628  0.5169  0.1704
  186SAPI  H18Z21430   6.861   4.945   8.465 -0.8662 -0.5540 -2.0740
  187SAPI   C1221431   2.152   6.187   6.257 -0.3375  0.3665  0.6113
  187SAPI    H221432   2.226   6.131   6.197  0.3220  1.7547  0.0861
  187SAPI    O221433   2.191   6.327   6.247 -0.6690 -0.3683  0.4279
  187SAPI   HO221434   2.286   6.332   6.235 -0.6893 -0.7640  0.0604
  187SAPI   C1321435   2.018   6.168   6.198  0.6251 -0.4087  0.4643
  187SAPI    H321436   1.991   6.060   6.197  1.8448 -0.7403 -1.6112
  187SAPI    O321437   2.020   6.205   6.060 -0.4209  0.3971 -0.0437
  187SAPI   HO321438   2.052   6.295   6.054 -0.9821  0.6652  0.8163
  187SAPI   C1421439   1.907   6.240   6.272 -0.1171 -0.2964 -0.4112
  187SAPI    H421440   1.933   6.348   6.278 -3.8253  0.6569  1.5798
  187SAPI    O421441   1.782   6.226   6.200  0.0812 -0.1821  0.1229
  187SAPI   HO421442   1.764   6.133   6.184  1.9714 -0.3772 -1.2596
  187SAPI   C1521443   1.908   6.199   6.422  0.4871 -0.2764 -0.1137
  187SAPI    H521444   1.871   6.094   6.427 -1.0816  0.2850  0.9232
  187SAPI    O521445   1.817   6.282   6.491 -0.0244  0.2396  0.2813
  187SAPI   HO521446   1.736   6.234   6.511 -0.0525  0.0137 -0.3492
  187SAPI   C1621447   2.047   6.213   6.479 -0.9653 -0.0445 -0.8594
  187SAPI    H621448   2.080   6.318   6.485 -0.3901 -0.2270 -0.7893
  187SAPI    O621449   2.054   6.170   6.613  0.3394 -0.2187  0.2691
  187SAPI   HO621450   2.133   6.116   6.627  0.4040  0.1251  1.2832
  187SAPI   C1121451   2.147   6.132   6.398 -0.2451 -0.3559  0.6440
  187SAPI    H121452   2.100   6.032   6.409 -1.6489  0.4110  2.0787
  187SAPI     P21453   2.358   5.994   6.493  0.2554  0.4368  0.1444
  187SAPI   O1321454   2.499   6.013   6.531  0.0683 -0.4046  0.1572
  187SAPI   O1421455   2.336   5.903   6.380 -0.0553 -0.1582  0.1221
  187SAPI   O1221456   2.278   6.131   6.459 -0.1880  0.1246  0.5268
  187SAPI   O1121457   2.279   5.940   6.618 -0.8084 -0.1929 -0.2237
  187SAPI    C121458   2.354   5.904   6.739  0.1172  0.0711 -0.0511
  187SAPI    HA21459   2.437   5.838   6.705 -0.2804 -0.4599 -0.0070
  187SAPI    HB21460   2.406   5.986   6.793  1.4083 -0.7164 -0.0522
  187SAPI    C221461   2.265   5.833   6.840 -0.6402  0.2271  0.0987
  187SAPI    HS21462   2.220   5.746   6.788 -1.0615  0.1529  0.5868
  187SAPI   O2121463   2.157   5.928   6.883  0.1968  0.2059 -0.4350
  187SAPI   C2121464   2.040   5.868   6.907 -0.0671 -0.2343 -0.2220
  187SAPI   O2221465   2.012   5.755   6.885  0.3250  0.3645 -0.1489
  187SAPI   C2221466   1.939   5.967   6.980  0.2952  0.9422 -0.2215
  187SAPI   H2R21467   1.998   5.995   7.070 -0.0109 -1.3571  0.7569
  187SAPI   H2S21468   1.929   6.057   6.915  1.7300  1.3464  0.0641
  187SAPI    C321469   2.336   5.784   6.966 -0.5711 -0.0503 -0.3818
  187SAPI    HX21470   2.271   5.717   7.027 -2.9688  2.8826  0.5375
  187SAPI    HY21471   2.348   5.869   7.036 -1.0288  0.8674 -1.3987
  187SAPI   O3121472   2.461   5.717   6.942  0.0762 -0.0851  0.4449
  187SAPI   C3121473   2.571   5.786   6.975 -0.1295  0.7646  0.0616
  187SAPI   O3221474   2.570   5.893   7.032  0.0978 -0.2472 -0.2264
  187SAPI   C3221475   2.694   5.707   6.940 -0.7003  0.3429 -0.4387
  187SAPI   H2X21476   2.734   5.745   6.843  0.1355  0.8426  0.0833
  187SAPI   H2Y21477   2.672   5.601   6.913  3.3203 -0.5777 -0.7968
  187SAPI   C2321478   1.809   5.883   7.010  0.2994 -0.2861  0.3608
  187SAPI   H3R21479   1.841   5.818   7.095  1.7171 -0.7051 -0.4649
  187SAPI   H3S21480   1.771   5.804   6.942  1.2638 -1.4407  1.1289
  187SAPI   C2421481   1.693   5.979   7.058 -0.9508 -0.0058 -0.3583
  187SAPI   H4R21482   1.652   6.041   6.976 -1.0560 -1.7056 -1.6396
  187SAPI   H4S21483   1.732   6.057   7.127 -0.7987  0.5505 -1.0675
  187SAPI   C2521484   1.577   5.898   7.119 -0.4051 -0.0175 -0.2391
  187SAPI   H5R21485   1.492   5.879   7.052 -0.5259 -0.2283 -0.0284
  187SAPI   C2621486   1.574   5.851   7.249 -0.1942  0.2168  1.4937
  187SAPI   H6R21487   1.481   5.797   7.271  0.1360 -0.4875  1.1646
  187SAPI   C2721488   1.690   5.862   7.348  0.4559  0.4530  0.1041
  187SAPI   H7R21489   1.656   5.920   7.437 -0.5088 -0.0769  0.1033
  187SAPI   H7S21490   1.771   5.923   7.305  0.5771  0.0920 -0.1786
  187SAPI   C2821491   1.753   5.732   7.390 -0.2973 -0.0814 -1.2857
  187SAPI   H8R21492   1.685   5.647   7.404  0.8164 -1.1469 -2.0896
  187SAPI   C2921493   1.877   5.695   7.401  0.1460 -0.4689 -0.1138
  187SAPI   H9R21494   1.900   5.593   7.436 -1.9415 -0.9347  0.0055
  187SAPI  C21021495   1.997   5.782   7.380 -0.1194  0.2108 -0.1610
  187SAPI  H10R21496   1.985   5.867   7.309  1.6435  0.2662 -0.4373
  187SAPI  H10S21497   2.078   5.722   7.334 -1.0039 -0.7847 -0.4379
  187SAPI  C21121498   2.046   5.819   7.524  0.3762  0.6466  0.7805
  187SAPI  H11R21499   1.980   5.873   7.593  2.2788  2.1200  1.5620
  187SAPI  C21221500   2.157   5.786   7.588  0.4738  0.1580 -0.0584
  187SAPI  H12R21501   2.172   5.816   7.692 -1.9456 -1.6333  0.8845
  187SAPI  C21321502   2.270   5.707   7.533  0.3520  0.0879 -0.2574
  187SAPI  H13R21503   2.223   5.610   7.503 -0.0059 -0.4023  1.7548
  187SAPI  H13S21504   2.333   5.684   7.621  3.1179  1.5414 -1.7229
  187SAPI  C21421505   2.367   5.773   7.432 -0.5381 -0.4060  0.5925
  187SAPI  H14R21506   2.328   5.868   7.393  0.1863 -0.2980  0.1087
  187SAPI  C21521507   2.481   5.727   7.380  0.2685  0.2522  0.8057
  187SAPI  H15R21508   2.535   5.791   7.308  0.5075 -0.1456  0.6314
  187SAPI  C21621509   2.549   5.595   7.407 -0.5056 -0.1063 -0.0621
  187SAPI  H16R21510   2.515   5.540   7.497  0.1032  0.3835  0.4724
  187SAPI  H16S21511   2.657   5.612   7.424 -0.4748  1.0935 -1.3292
  187SAPI  C21721512   2.544   5.500   7.291  0.2983 -0.3067  0.0547
  187SAPI  H17R21513   2.592   5.538   7.198 -0.8935 -1.1227 -0.9244
  187SAPI  H17S21514   2.438   5.471   7.275  0.8906 -1.7546 -1.6624
  187SAPI  C21821515   2.612   5.372   7.329  0.4999 -0.5467 -0.2794
  187SAPI  H18R21516   2.561   5.321   7.414  0.4716 -0.8152 -0.4565
  187SAPI  H18S21517   2.717   5.400   7.356  0.1822 -1.3928  2.1451
  187SAPI  C21921518   2.610   5.261   7.215 -0.0724 -0.2142 -0.4012
  187SAPI  H19R21519   2.672   5.303   7.133  0.0469  1.0170  0.3043
  187SAPI  H19S21520   2.503   5.235   7.195 -0.5191  0.3402  1.1222
  187SAPI  C22021521   2.687   5.139   7.265 -0.5485  0.3653  0.3650
  187SAPI  H20R21522   2.794   5.164   7.283  0.2469 -1.9987 -0.6350
  187SAPI  H20S21523   2.685   5.059   7.188  2.1198  2.8382 -2.5870
  187SAPI  H20T21524   2.651   5.107   7.365  0.3267 -2.5737 -0.1615
  187SAPI   C3321525   2.806   5.714   7.049 -1.1525 -0.4142  0.2765
  187SAPI   H3X21526   2.765   5.688   7.149 -0.8609  2.8140  1.3583
  187SAPI   H3Y21527   2.852   5.815   7.052  0.0487 -0.9516  0.9759
  187SAPI   C3421528   2.927   5.621   7.015  0.0616  0.0835  0.5860
  187SAPI   H4X21529   2.984   5.660   6.928  2.1923  1.2586  2.3980
  187SAPI   H4Y21530   2.884   5.519   7.006  1.7161 -0.7288  1.3734
  187SAPI   C3521531   3.026   5.614   7.131 -0.0899 -0.8953  0.3448
  187SAPI   H5X21532   3.044   5.723   7.146 -2.7493 -0.2548 -0.4935
  187SAPI   H5Y21533   3.116   5.557   7.100  0.4390  0.7054 -1.1989
  187SAPI   C3621534   2.982   5.555   7.262 -0.1712  0.8119  1.5451
  187SAPI   H6X21535   2.954   5.449   7.242  1.4140  0.2399  2.2448
  187SAPI   H6Y21536   2.883   5.592   7.298 -0.5560 -0.2710  1.6584
  187SAPI   C3721537   3.077   5.556   7.388 -0.4888  0.4610 -0.4142
  187SAPI   H7X21538   3.102   5.663   7.400 -0.7276  0.6266 -1.3001
  187SAPI   H7Y21539   3.168   5.494   7.374  0.3881  1.6877 -0.2728
  187SAPI   C3821540   3.016   5.507   7.523  0.2578  0.5016 -0.7135
  187SAPI   H8X21541   2.915   5.554   7.525 -0.8162 -1.5637 -2.5628
  187SAPI   H8Y21542   3.081   5.541   7.607 -1.2636 -0.8551  1.1017
  187SAPI   C3921543   2.995   5.350   7.536  0.4633  0.4079 -0.8875
  187SAPI   H9X21544   3.086   5.288   7.527 -0.7479 -1.4021 -1.2599
  187SAPI   H9Y21545   2.915   5.305   7.473 -0.8056  0.0388  0.9285
  187SAPI  C31021546   2.943   5.328   7.683 -0.1287 -0.1942 -0.1399
  187SAPI  H10X21547   2.846   5.381   7.690  0.2885  0.4071  1.8061
  187SAPI  H10Y21548   3.018   5.379   7.748 -1.5163 -0.2765  1.6097
  187SAPI  C31121549   2.938   5.182   7.721  0.5478 -0.2715 -0.6588
  187SAPI  H11X21550   3.043   5.147   7.711  0.8815  0.9523 -2.0016
  187SAPI  H11Y21551   2.876   5.113   7.660  0.3846  1.7630 -2.9637
  187SAPI  C31221552   2.898   5.174   7.874 -0.1689 -0.6873  0.2780
  187SAPI  H12X21553   2.789   5.195   7.875 -0.3431 -1.5607  0.0859
  187SAPI  H12Y21554   2.947   5.249   7.939 -1.0549  1.4264 -1.3389
  187SAPI  C31321555   2.920   5.042   7.940  0.6770 -0.5112  1.1951
  187SAPI  H13X21556   3.028   5.017   7.927  0.9226  1.2045 -0.4805
  187SAPI  H13Y21557   2.858   4.973   7.879  0.8397 -2.3533  3.0104
  187SAPI  C31421558   2.889   5.049   8.087  0.3265  0.0551 -0.4843
  187SAPI  H14X21559   2.787   5.087   8.107  0.3730 -0.0563 -0.0179
  187SAPI  H14Y21560   2.952   5.131   8.129  2.3349 -1.8065  0.3373
  187SAPI  C31521561   2.912   4.924   8.169  0.0420 -0.2482 -0.1068
  187SAPI  H15X21562   3.020   4.900   8.158  0.0568  0.0573 -0.6774
  187SAPI  H15Y21563   2.852   4.841   8.125 -3.0594  0.2978  2.6997
  187SAPI  C31621564   2.869   4.947   8.317  0.0989 -0.6282 -0.5517
  187SAPI  H16X21565   2.759   4.955   8.332 -0.0387 -1.3633 -1.1226
  187SAPI  H16Y21566   2.895   5.053   8.341 -1.9500 -0.3954  0.9904
  187SAPI  C31721567   2.914   4.846   8.425  0.3327 -0.2126  0.9067
  187SAPI  H17X21568   2.868   4.878   8.521 -2.0337  0.8610 -0.4898
  187SAPI  H17Y21569   3.023   4.856   8.440  0.8081 -1.5209 -1.3087
  187SAPI  C31821570   2.878   4.708   8.379 -0.4843  0.6176  0.7084
  187SAPI  H18X21571   2.782   4.702   8.324  0.3293  2.7296 -1.1138
  187SAPI  H18Y21572   2.870   4.647   8.471  1.3308 -2.3486 -0.9308
  187SAPI  H18Z21573   2.966   4.668   8.324  0.2197  0.1952  2.0968
  188SAPI   C1221574   4.347   1.918   6.218 -0.3217 -0.3769  0.4111
  188SAPI    H221575   4.314   1.890   6.321  1.0655  2.3049  1.6874
  188SAPI    O221576   4.488   1.943   6.233  0.2412  0.5655 -0.4299
  188SAPI   HO221577   4.504   2.024   6.281  1.1696  0.3523 -0.3553
  188SAPI   C1321578   4.314   1.814   6.112 -0.0096  0.3146 -0.5860
  188SAPI    H321579   4.205   1.796   6.121 -0.2989  2.0448 -0.3532
  188SAPI    O321580   4.367   1.692   6.158 -1.1751 -0.3242  0.1918
  188SAPI   HO321581   4.345   1.677   6.251 -0.1124  0.0313  0.5194
  188SAPI   C1421582   4.349   1.841   5.965 -0.4806 -0.2817 -0.1500
  188SAPI    H421583   4.460   1.846   5.967 -0.5098  0.4808  2.1333
  188SAPI    O421584   4.320   1.734   5.867 -0.0909  0.2174  0.2527
  188SAPI   HO421585   4.344   1.770   5.781 -1.1593  0.4919  0.0550
  188SAPI   C1521586   4.297   1.980   5.921  0.4114 -0.4331  0.6303
  188SAPI    H521587   4.186   1.979   5.919  0.4068 -0.0799  0.6814
  188SAPI    O521588   4.340   2.015   5.792  0.1403 -0.0178  0.3713
  188SAPI   HO521589   4.264   2.058   5.751  0.3783  0.4352  0.3954
  188SAPI   C1621590   4.342   2.083   6.033  0.3523 -0.3607  0.5277
  188SAPI    H621591   4.452   2.096   6.034  0.2079  0.9687  0.4162
  188SAPI    O621592   4.296   2.214   5.995 -0.3408  0.1694  0.0131
  188SAPI   HO621593   4.355   2.238   5.923  0.0840 -1.5386 -0.2412
  188SAPI   C1121594   4.289   2.045   6.171 -0.1653  0.0076  0.2324
  188SAPI    H121595   4.180   2.032   6.158 -0.3515  0.4885  1.1583
  188SAPI     P21596   4.199   2.155   6.400 -0.0148 -0.0587  0.2816
  188SAPI   O1321597   4.058   2.134   6.344 -0.1765  0.2661  0.7421
  188SAPI   O1421598   4.223   2.282   6.472 -0.1996  0.6251 -0.1918
  188SAPI   O1221599   4.309   2.143   6.278  0.4074 -0.1478 -0.1117
  188SAPI   O1121600   4.239   2.043   6.494 -0.3843  0.6319 -0.2330
  188SAPI    C121601   4.154   1.976   6.583  0.5499  0.2638  0.4565
  188SAPI    HA21602   4.063   1.943   6.528 -0.0360 -2.1057  2.6576
  188SAPI    HB21603   4.204   1.885   6.622  1.1500  0.3803 -0.0291
  188SAPI    C221604   4.120   2.056   6.712 -0.1919 -0.6171  0.6059
  188SAPI    HS21605   4.068   2.141   6.663  0.2318 -0.5610  0.2437
  188SAPI   O2121606   4.247   2.081   6.783  0.4521  0.4555  0.1349
  188SAPI   C2121607   4.258   2.198   6.828  0.0180  0.7332  0.4453
  188SAPI   O2221608   4.178   2.290   6.821 -0.0359  0.4603 -0.2668
  188SAPI   C2221609   4.391   2.201   6.903  0.4815 -0.3914  0.3896
  188SAPI   H2R21610   4.394   2.118   6.977  1.2470  0.4226  1.3059
  188SAPI   H2S21611   4.474   2.183   6.831  0.0690  1.3728 -0.5809
  188SAPI    C321612   4.021   1.992   6.810  0.5875 -0.2743  0.1543
  188SAPI    HX21613   4.063   1.895   6.845 -1.1789 -1.7978 -1.7207
  188SAPI    HY21614   3.938   1.962   6.743  2.6942  0.5188 -3.0076
  188SAPI   O3121615   3.993   2.083   6.921  0.4468 -0.7105 -0.5889
  188SAPI   C3121616   3.909   2.176   6.901  0.3802  0.1247  0.2902
  188SAPI   O3221617   3.840   2.183   6.799 -0.5528 -0.0942 -0.3456
  188SAPI   C3221618   3.886   2.285   7.011 -0.6361  0.1740 -0.1746
  188SAPI   H2X21619   3.808   2.349   6.964  0.6437  1.2821 -0.8550
  188SAPI   H2Y21620   3.978   2.347   7.022 -0.0946 -0.5821 -0.3614
  188SAPI   C2321621   4.423   2.336   6.978 -0.1221  0.1549  0.7051
  188SAPI   H3R21622   4.411   2.433   6.924  0.6881  0.0427  0.3031
  188SAPI   H3S21623   4.533   2.324   6.987  0.0442 -1.0684 -1.9824
  188SAPI   C2421624   4.370   2.341   7.118 -0.0341  0.4846 -0.7036
  188SAPI   H4R21625   4.393   2.247   7.173  0.5558  0.2732 -1.2953
  188SAPI   H4S21626   4.260   2.352   7.103 -0.1627  0.5549  0.2307
  188SAPI   C2521627   4.437   2.447   7.200 -0.7281  0.4986 -0.1170
  188SAPI   H5R21628   4.490   2.525   7.144  0.1895  1.2119  1.6544
  188SAPI   C2621629   4.420   2.461   7.329 -0.1190 -0.5897  0.3653
  188SAPI   H6R21630   4.464   2.543   7.386 -1.2096  0.7847 -0.6912
  188SAPI   C2721631   4.332   2.375   7.414 -0.0728 -0.8719  0.6971
  188SAPI   H7R21632   4.277   2.311   7.342 -0.6572  1.5458 -1.1101
  188SAPI   H7S21633   4.257   2.437   7.468 -1.8119 -0.3747 -2.1090
  188SAPI   C2821634   4.409   2.275   7.503 -0.1082  0.4536 -0.0085
  188SAPI   H8R21635   4.421   2.179   7.452 -2.6441  0.5766 -1.0110
  188SAPI   C2921636   4.434   2.290   7.636  0.5936  0.0788 -0.1699
  188SAPI   H9R21637   4.484   2.208   7.690 -0.5043 -1.1918 -1.0233
  188SAPI  C21021638   4.389   2.405   7.731 -0.0362 -0.2822 -0.1378
  188SAPI  H10R21639   4.406   2.509   7.697 -2.0893  1.0065  2.4783
  188SAPI  H10S21640   4.445   2.393   7.826 -0.3719  2.1198  0.4093
  188SAPI  C21121641   4.241   2.403   7.760  0.4099  0.3303  0.4155
  188SAPI  H11R21642   4.175   2.396   7.672 -2.3260 -0.0716  2.3627
  188SAPI  C21221643   4.181   2.443   7.862  0.3452 -0.0833 -0.9399
  188SAPI  H12R21644   4.071   2.439   7.873  0.2224  1.5678 -1.3182
  188SAPI  C21321645   4.238   2.489   7.992  0.3207  0.3932 -0.0228
  188SAPI  H13R21646   4.157   2.521   8.061 -0.7301 -0.1588 -0.9620
  188SAPI  H13S21647   4.281   2.591   7.975  1.6589  0.0187  0.9848
  188SAPI  C21421648   4.346   2.424   8.075 -0.4284 -0.6950  0.1805
  188SAPI  H14R21649   4.355   2.316   8.057 -0.6438 -0.4339 -1.6282
  188SAPI  C21521650   4.422   2.476   8.173 -0.6492 -0.0540 -0.0705
  188SAPI  H15R21651   4.509   2.421   8.214  0.5024  2.1124  0.5459
  188SAPI  C21621652   4.422   2.623   8.200 -0.5676  0.3529  0.2325
  188SAPI  H16R21653   4.344   2.676   8.143  1.3706  1.8650 -1.1321
  188SAPI  H16S21654   4.522   2.668   8.180 -0.8293  0.5951 -0.5314
  188SAPI  C21721655   4.389   2.664   8.345 -0.1349 -0.2055  0.2365
  188SAPI  H17R21656   4.406   2.773   8.345  0.6571 -0.3177 -0.5193
  188SAPI  H17S21657   4.462   2.619   8.415 -1.0314 -0.7694  0.8448
  188SAPI  C21821658   4.250   2.632   8.388 -0.5683  0.1455 -0.0359
  188SAPI  H18R21659   4.175   2.677   8.321 -2.9000 -1.0827  1.6101
  188SAPI  H18S21660   4.230   2.687   8.482 -2.4243 -2.8176  1.4578
  188SAPI  C21921661   4.224   2.482   8.413  0.0599  0.0542 -0.3786
  188SAPI  H19R21662   4.242   2.427   8.318 -2.9835 -0.2506 -0.8924
  188SAPI  H19S21663   4.113   2.478   8.423  0.2143 -0.7670  1.3170
  188SAPI  C22021664   4.286   2.426   8.545 -0.0426  0.5093  0.7777
  188SAPI  H20R21665   4.253   2.484   8.634 -1.0346 -1.3223  1.6622
  188SAPI  H20S21666   4.397   2.435   8.543  0.0834  0.7685  3.8332
  188SAPI  H20T21667   4.269   2.321   8.577  0.3400  0.7425  1.7873
  188SAPI   C3321668   3.838   2.237   7.152  0.1706  0.2088  0.6451
  188SAPI   H3X21669   3.772   2.149   7.141  0.4417  0.1339 -0.5242
  188SAPI   H3Y21670   3.779   2.315   7.203  0.4181  1.2419 -0.5776
  188SAPI   C3421671   3.955   2.205   7.240 -0.4598  0.1196  0.0908
  188SAPI   H4X21672   4.025   2.292   7.240 -0.1831 -0.0961 -0.6172
  188SAPI   H4Y21673   4.020   2.121   7.206  2.2827  1.9414  0.4861
  188SAPI   C3521674   3.915   2.165   7.380  0.1859  0.4366 -0.2726
  188SAPI   H5X21675   3.845   2.081   7.358 -1.4651  2.0371 -1.4108
  188SAPI   H5Y21676   3.847   2.247   7.411 -1.6123 -0.2099 -2.2269
  188SAPI   C3621677   4.023   2.153   7.485 -0.5342 -0.1487 -0.2336
  188SAPI   H6X21678   4.058   2.251   7.522 -0.2592  0.3580 -1.7813
  188SAPI   H6Y21679   4.107   2.106   7.430 -0.8263  0.1550 -0.9486
  188SAPI   C3721680   3.974   2.076   7.605  0.1472  0.2093  0.1539
  188SAPI   H7X21681   3.866   2.099   7.617 -0.3115 -1.3065 -0.8125
  188SAPI   H7Y21682   4.036   2.114   7.689 -0.9142 -2.0217  2.0558
  188SAPI   C3821683   3.976   1.925   7.596 -0.5404  0.2345  0.2885
  188SAPI   H8X21684   4.077   1.895   7.562 -1.1472 -0.4645 -0.9587
  188SAPI   H8Y21685   3.904   1.890   7.519 -0.0881  0.7013 -0.3607
  188SAPI   C3921686   3.943   1.846   7.723  0.5870 -0.1464  1.1018
  188SAPI   H9X21687   3.984   1.743   7.710  0.3699 -0.0073 -1.0983
  188SAPI   H9Y21688   3.834   1.826   7.724  0.5932 -0.2915  0.1378
  188SAPI  C31021689   3.995   1.921   7.850  0.3481 -0.6573  0.5034
  188SAPI  H10X21690   3.949   1.858   7.929 -1.9206 -0.5775 -0.6606
  188SAPI  H10Y21691   3.967   2.029   7.854  0.3226 -0.4894 -2.1735
  188SAPI  C31121692   4.143   1.929   7.864 -0.3059  0.0744 -0.0399
  188SAPI  H11X21693   4.194   1.973   7.776  1.2325 -0.6142  0.4751
  188SAPI  H11Y21694   4.179   1.824   7.865  1.8947  0.7718  0.3174
  188SAPI  C31221695   4.201   2.010   7.982  0.0569  0.0183 -0.1608
  188SAPI  H12X21696   4.173   2.118   7.976 -0.9258 -0.2361 -0.3072
  188SAPI  H12Y21697   4.311   1.997   7.976 -0.0445 -0.3921 -1.6229
  188SAPI  C31321698   4.142   1.967   8.121 -0.4647  0.3131  0.3251
  188SAPI  H13X21699   4.033   1.985   8.109 -0.3314 -0.0092 -1.7898
  188SAPI  H13Y21700   4.187   2.039   8.192  2.7302 -1.0429 -0.1313
  188SAPI  C31421701   4.178   1.829   8.175  0.4201  0.3716  0.5612
  188SAPI  H14X21702   4.286   1.802   8.172  0.1828 -0.6639  0.8245
  188SAPI  H14Y21703   4.132   1.758   8.102 -0.6632 -0.1101  1.6707
  188SAPI  C31521704   4.125   1.807   8.313  0.9190 -0.2734  0.2383
  188SAPI  H15X21705   4.037   1.869   8.339  0.4143 -1.3362  1.1346
  188SAPI  H15Y21706   4.204   1.848   8.380  2.6465 -1.2206 -1.1173
  188SAPI  C31621707   4.099   1.661   8.350 -0.3076  0.0206 -0.0502
  188SAPI  H16X21708   4.166   1.600   8.285 -1.5698  0.1109 -1.4649
  188SAPI  H16Y21709   3.995   1.632   8.327  0.0766 -1.7903  0.2751
  188SAPI  C31721710   4.132   1.638   8.499  0.9968  0.4516  1.5581
  188SAPI  H17X21711   4.235   1.669   8.523  1.7147 -0.1356 -0.5233
  188SAPI  H17Y21712   4.127   1.529   8.521  0.3617  0.2261  0.4144
  188SAPI  C31821713   4.020   1.698   8.594 -0.1859 -0.9892 -0.3959
  188SAPI  H18X21714   4.026   1.809   8.590  2.0080 -0.9406  1.8893
  188SAPI  H18Y21715   4.028   1.665   8.700 -0.5267  0.3080  0.0522
  188SAPI  H18Z21716   3.917   1.671   8.562 -0.0220  0.7772 -2.6753
  189POPC     N21717   3.080   3.231  11.263  0.2258  0.6348  0.2075
  189POPC   C1221718   3.108   3.166  11.125 -0.0789  0.0687 -0.6967
  189POPC  H12A21719   3.171   3.080  11.146  2.5124  1.7046 -1.2674
  189POPC  H12B21720   3.177   3.233  11.076 -0.4554  1.4343  0.5662
  189POPC   C1321721   3.204   3.236  11.348 -0.2636  0.8456  0.2136
  189POPC  H13A21722   3.178   3.287  11.440  2.1323  1.1673  0.7911
  189POPC  H13B21723   3.246   3.143  11.382  0.0417  2.1779  4.0022
  189POPC  H13C21724   3.277   3.297  11.297  0.0188 -0.5242 -1.0592
  189POPC   C1421725   3.030   3.372  11.242  0.1273  0.1013  0.3284
  189POPC  H14A21726   2.982   3.413  11.330  1.2432  0.9947  0.5428
  189POPC  H14B21727   3.114   3.429  11.206 -0.8362  0.5445 -1.3134
  189POPC  H14C21728   2.956   3.376  11.164  0.4636  1.1630  0.0555
  189POPC   C1521729   2.968   3.146  11.332 -0.6518  0.1136  1.1021
  189POPC  H15A21730   3.010   3.053  11.365  2.2596  1.3145  1.0898
  189POPC  H15B21731   2.883   3.131  11.267 -0.8461  1.8054  0.8951
  189POPC  H15C21732   2.936   3.192  11.424 -0.0971  0.5577  1.0799
  189POPC   C1121733   2.993   3.125  11.021 -1.5575  0.5735 -0.2475
  189POPC  H11A21734   2.931   3.051  11.076  0.6228 -2.0850 -1.1211
  189POPC  H11B21735   3.029   3.082  10.925 -3.0814 -0.8758 -0.2068
  189POPC     P21736   2.781   3.287  10.993  0.0303  0.1036  0.0230
  189POPC   O1321737   2.760   3.417  11.057  0.5081 -0.4477  0.0950
  189POPC   O1421738   2.708   3.174  11.057 -0.1123  0.0120  0.3697
  189POPC   O1221739   2.929   3.247  10.978 -0.4070 -0.1213 -0.5627
  189POPC   O1121740   2.731   3.289  10.847 -0.7618  0.0703  0.1430
  189POPC    C121741   2.728   3.173  10.763  0.5589  0.9748 -0.3130
  189POPC    HA21742   2.622   3.139  10.769  1.3348 -1.9563 -1.2826
  189POPC    HB21743   2.790   3.089  10.801  3.7858  3.7342  0.9290
  189POPC    C221744   2.752   3.200  10.614 -0.3326  0.2419  0.5294
  189POPC    HS21745   2.732   3.117  10.542  0.5996  2.3685 -2.3860
  189POPC   O2121746   2.892   3.240  10.591  0.2071 -0.5198 -0.4547
  189POPC   C2121747   2.976   3.136  10.583 -0.6112 -0.4508  0.2748
  189POPC   O2221748   2.954   3.020  10.621 -0.2563 -0.1992  0.4996
  189POPC   C2221749   3.111   3.186  10.530  0.4600  0.7318  0.3923
  189POPC   H2R21750   3.170   3.233  10.612  3.6603 -0.1677 -1.2267
  189POPC   H2S21751   3.094   3.257  10.446  0.9194 -2.6349 -2.7788
  189POPC    C321752   2.673   3.315  10.556  0.1943  0.5845  0.1950
  189POPC    HX21753   2.696   3.412  10.604  1.1197 -0.4658  1.9945
  189POPC    HY21754   2.568   3.284  10.576  0.2001 -0.7490 -1.5584
  189POPC   O3121755   2.694   3.307  10.415 -0.8053 -0.7196 -0.2304
  189POPC   C3121756   2.765   3.399  10.353  0.1017  0.3187 -0.2056
  189POPC   O3221757   2.849   3.469  10.405  0.3063  0.6017 -0.2550
  189POPC   C3221758   2.743   3.381  10.207 -0.5655  0.5646  0.1888
  189POPC   H2X21759   2.638   3.350  10.189 -0.1503  0.4915 -2.5253
  189POPC   H2Y21760   2.811   3.304  10.163  0.6166  1.3168  0.6474
  189POPC   C2321761   3.194   3.063  10.479  0.5365  0.3120  0.3125
  189POPC   H3R21762   3.208   2.986  10.558  0.7787  0.7004  0.6529
  189POPC   H3S21763   3.300   3.092  10.459  0.3433 -0.1628 -1.5512
  189POPC   C2421764   3.131   2.982  10.353 -0.4631 -0.2266  0.6326
  189POPC   H4R21765   3.046   2.912  10.373 -0.3081 -1.1836 -1.6459
  189POPC   H4S21766   3.207   2.905  10.328 -2.6392 -2.0198 -0.9476
  189POPC   C2521767   3.085   3.079  10.238  0.4066  0.6092  0.0736
  189POPC   H5R21768   3.161   3.155  10.208 -0.4153  1.4689  0.1136
  189POPC   H5S21769   2.996   3.137  10.270 -0.7696  0.2714 -2.3334
  189POPC   C2621770   3.030   3.002  10.111 -0.7774 -0.1650  0.2751
  189POPC   H6R21771   2.937   2.944  10.131  1.3110 -3.2626  1.7579
  189POPC   H6S21772   3.099   2.920  10.082 -2.7703 -1.6471 -0.4848
  189POPC   C2721773   3.002   3.091   9.988 -0.2111  0.1187  0.6827
  189POPC   H7R21774   3.081   3.169   9.996 -1.5263  1.5614  0.0489
  189POPC   H7S21775   2.905   3.144   9.996 -1.0163 -0.8532 -1.6244
  189POPC   C2821776   3.004   3.022   9.857 -0.2489 -0.2371 -0.0328
  189POPC   H8R21777   2.930   2.942   9.836 -2.7457  2.3432 -1.8377
  189POPC   H8S21778   3.107   2.982   9.849 -0.4340 -0.5705 -0.8560
  189POPC   C2921779   2.993   3.134   9.751  0.5108  0.2379 -0.2708
  189POPC   H9121780   3.021   3.235   9.783 -0.6786 -0.2837  2.7386
  189POPC  C21021781   2.928   3.121   9.632 -0.5930 -0.0524  0.4575
  189POPC  H10121782   2.921   3.217   9.579  2.7409  0.9445  1.5903
  189POPC  C21121783   2.853   3.000   9.584  0.5432  0.4277 -0.2755
  189POPC  H11R21784   2.743   3.020   9.583  0.6459  1.3401  2.0223
  189POPC  H11S21785   2.869   2.910   9.646  0.2763  1.1564  0.8733
  189POPC  C21221786   2.898   2.954   9.438 -0.7038  0.8037 -1.3321
  189POPC  H12R21787   2.836   2.865   9.416  0.6635 -0.5365 -0.0305
  189POPC  H12S21788   3.004   2.920   9.444 -1.2706 -0.8621  1.1153
  189POPC  C21321789   2.887   3.051   9.317 -0.6142  0.2815  0.2068
  189POPC  H13R21790   2.962   3.132   9.329  0.5300 -0.7863  0.4241
  189POPC  H13S21791   2.782   3.085   9.308 -0.6296  0.3552  0.6309
  189POPC  C21421792   2.930   2.978   9.186 -0.5531  0.1321 -0.2479
  189POPC  H14R21793   2.855   2.902   9.153 -0.5450  0.8648 -2.0914
  189POPC  H14S21794   3.031   2.932   9.180 -1.2476 -1.5854  0.5237
  189POPC  C21521795   2.931   3.070   9.061 -0.0530 -0.5710 -0.1296
  189POPC  H15R21796   3.003   3.152   9.081 -1.7006  0.6830  0.9754
  189POPC  H15S21797   2.831   3.118   9.049  0.3137  0.4741  0.8348
  189POPC  C21621798   2.986   3.003   8.929  0.5412  0.2093 -0.0872
  189POPC  H16R21799   2.915   2.924   8.896 -0.4381  1.1155 -0.2169
  189POPC  H16S21800   3.087   2.965   8.955  0.0351 -0.2942  1.2153
  189POPC  C21721801   2.998   3.116   8.821 -0.0886  0.6458 -0.0131
  189POPC  H17R21802   3.065   3.090   8.738  0.6281  1.8706  0.1545
  189POPC  H17S21803   3.049   3.203   8.869  2.5873 -1.6742  1.6442
  189POPC  C21821804   2.859   3.177   8.766  0.5444  0.8208  0.4234
  189POPC  H18R21805   2.789   3.108   8.713  0.2030 -0.3656  2.3142
  189POPC  H18S21806   2.880   3.261   8.696  1.7567 -0.2384 -0.5636
  189POPC  H18T21807   2.816   3.217   8.859  1.6064  2.1661  0.3715
  189POPC   C3321808   2.742   3.513  10.131  0.1730  0.2008 -0.0296
  189POPC   H3X21809   2.839   3.566  10.123 -0.0125  0.3059 -1.8454
  189POPC   H3Y21810   2.660   3.578  10.167 -1.6525 -0.6807 -2.3316
  189POPC   C3421811   2.682   3.480   9.991 -0.9009  0.6448  0.2734
  189POPC   H4X21812   2.573   3.494   9.978 -0.7885  0.5859 -0.8471
  189POPC   H4Y21813   2.698   3.372   9.967 -0.3079  0.4372  1.5156
  189POPC   C3521814   2.762   3.545   9.882 -0.6152  0.0546  0.3671
  189POPC   H5X21815   2.865   3.506   9.894  0.3027  2.4464  0.8419
  189POPC   H5Y21816   2.763   3.655   9.899 -0.5506 -0.2415  2.6249
  189POPC   C3621817   2.719   3.513   9.736  0.2347  0.1334 -0.1008
  189POPC   H6X21818   2.616   3.550   9.718 -0.1423 -0.7988  0.0836
  189POPC   H6Y21819   2.719   3.402   9.738  2.4450  0.1025  0.4826
  189POPC   C3721820   2.804   3.579   9.631 -0.4551  0.5990  0.6568
  189POPC   H7X21821   2.912   3.577   9.655  0.2296 -2.0638 -1.9868
  189POPC   H7Y21822   2.771   3.685   9.635 -1.4759  0.3005  0.4875
  189POPC   C3821823   2.771   3.517   9.490 -0.0329  0.2962 -0.4401
  189POPC   H8X21824   2.666   3.543   9.468  0.1552  2.4392  0.8198
  189POPC   H8Y21825   2.787   3.408   9.497 -1.5295  0.1372  0.9461
  189POPC   C3921826   2.858   3.567   9.383  0.1428  0.3796 -0.1681
  189POPC   H9X21827   2.964   3.538   9.400  0.0945  0.2221 -0.1333
  189POPC   H9Y21828   2.848   3.677   9.373  1.1124  0.5221  0.2702
  189POPC  C31021829   2.820   3.509   9.246  0.1219 -0.1733 -0.3049
  189POPC  H10X21830   2.821   3.399   9.266  2.0584 -0.4394 -1.6408
  189POPC  H10Y21831   2.888   3.531   9.161  0.6275 -0.3459  0.0531
  189POPC  C31121832   2.675   3.531   9.200 -0.2851 -0.4849  1.5999
  189POPC  H11X21833   2.654   3.640   9.207 -2.2323 -0.3871 -2.4959
  189POPC  H11Y21834   2.599   3.477   9.259 -0.5996  0.1348  1.7733
  189POPC  C31221835   2.667   3.502   9.049  0.0878  0.5971 -0.2490
  189POPC  H12X21836   2.669   3.393   9.029 -0.2735  0.4555  0.4685
  189POPC  H12Y21837   2.759   3.543   9.002  2.9357 -2.4294  2.1992
  189POPC  C31321838   2.523   3.553   9.007  0.0881 -0.0871 -0.2473
  189POPC  H13X21839   2.505   3.650   9.058 -0.4057  0.1502 -0.8570
  189POPC  H13Y21840   2.444   3.487   9.047  0.5649 -0.2103  0.5217
  189POPC  C31421841   2.512   3.565   8.853  0.1450  0.4148 -1.1219
  189POPC  H14X21842   2.545   3.474   8.799  2.9766  1.4621 -1.3004
  189POPC  H14Y21843   2.584   3.642   8.820  0.3918  0.4816 -0.4393
  189POPC  C31521844   2.369   3.592   8.808  0.7539 -0.1395 -0.7893
  189POPC  H15X21845   2.332   3.683   8.859  0.0096 -1.3501  0.9472
  189POPC  H15Y21846   2.311   3.518   8.867 -1.2946  1.5285 -0.6016
  189POPC  C31621847   2.330   3.585   8.663 -0.4521  0.0513 -0.1997
  189POPC  H16X21848   2.221   3.600   8.650 -0.4607 -1.2244 -2.0986
  189POPC  H16Y21849   2.343   3.487   8.613  0.3646  0.2459 -0.3886
  189POPC  H16Z21850   2.390   3.662   8.609 -1.3077  0.7013 -0.2485
  190POPC     N21851   6.553   1.499  11.556  0.1514  1.2476 -0.1290
  190POPC   C1221852   6.566   1.517  11.408 -0.3863 -0.1975  0.0060
  190POPC  H12A21853   6.664   1.490  11.373 -0.2674  0.8732 -0.5332
  190POPC  H12B21854   6.556   1.624  11.393 -0.4891 -0.2469 -0.2813
  190POPC   C1321855   6.586   1.358  11.597  0.6751  0.2024 -0.3636
  190POPC  H13A21856   6.552   1.284  11.526 -2.3352  0.5707  0.5408
  190POPC  H13B21857   6.692   1.349  11.617  0.4224  1.5532  1.9213
  190POPC  H13C21858   6.534   1.336  11.689  2.7681 -1.3739  0.5213
  190POPC   C1421859   6.648   1.586  11.634 -0.4957 -0.0928  0.6290
  190POPC  H14A21860   6.638   1.577  11.741 -3.6668  1.4875  0.5743
  190POPC  H14B21861   6.743   1.544  11.601 -0.9668 -0.5041 -0.2399
  190POPC  H14C21862   6.635   1.688  11.602 -2.3655 -1.3389 -3.1804
  190POPC   C1521863   6.412   1.528  11.598 -0.1225  0.0322  1.2339
  190POPC  H15A21864   6.343   1.447  11.580  1.0998 -1.3993  2.6699
  190POPC  H15B21865   6.385   1.624  11.557  0.5832 -0.0631  0.5205
  190POPC  H15C21866   6.404   1.531  11.705  1.8542  0.3615  1.4149
  190POPC   C1121867   6.456   1.437  11.328 -0.3262 -0.3827 -0.3559
  190POPC  H11A21868   6.465   1.477  11.225 -0.9614 -0.3149 -0.3903
  190POPC  H11B21869   6.351   1.470  11.346  0.1954  0.6733  0.9256
  190POPC     P21870   6.578   1.209  11.258 -0.2299 -0.2211  0.2646
  190POPC   O1321871   6.600   1.093  11.346 -0.0060  0.4298  0.3216
  190POPC   O1421872   6.694   1.293  11.231  0.7234  0.6777 -0.4311
  190POPC   O1221873   6.468   1.292  11.329  0.0089  0.2646  0.1268
  190POPC   O1121874   6.499   1.172  11.127  0.7395  0.1784 -0.0096
  190POPC    C121875   6.425   1.272  11.056  0.2484  0.0231  0.1670
  190POPC    HA21876   6.484   1.363  11.037 -1.2562  0.9367 -0.3474
  190POPC    HB21877   6.332   1.295  11.114  0.8028  2.6051  0.1504
  190POPC    C221878   6.365   1.227  10.915 -0.4546  0.1816 -0.3853
  190POPC    HS21879   6.321   1.317  10.868  0.8749  1.5979  0.9861
  190POPC   O2121880   6.274   1.114  10.937  0.2802  0.0272  0.1865
  190POPC   C2121881   6.144   1.129  10.893  0.4807 -0.8148 -0.1939
  190POPC   O2221882   6.099   1.238  10.859  0.6542 -0.4303 -0.4215
  190POPC   C2221883   6.074   0.996  10.906 -0.0530 -0.7671 -0.0723
  190POPC   H2R21884   6.020   1.003  11.002 -1.5621 -0.0696 -0.9315
  190POPC   H2S21885   6.145   0.911  10.897 -1.3777 -2.0560  1.3181
  190POPC    C321886   6.464   1.189  10.800 -0.2412 -0.5928 -0.2102
  190POPC    HX21887   6.543   1.117  10.829  1.0784  0.7784 -0.2735
  190POPC    HY21888   6.521   1.281  10.775 -1.7034 -0.2415 -2.6026
  190POPC   O3121889   6.393   1.147  10.685 -0.1476 -0.1971  0.6235
  190POPC   C3121890   6.466   1.081  10.584 -0.3021  0.5686 -0.8016
  190POPC   O3221891   6.584   1.056  10.593 -0.3024 -0.2969  0.1212
  190POPC   C3221892   6.364   1.058  10.467 -0.3013  0.5244  0.0183
  190POPC   H2X21893   6.287   1.136  10.483  0.8703  1.4236  1.5371
  190POPC   H2Y21894   6.319   0.960  10.490 -1.8864  1.4959  1.2628
  190POPC   C2321895   5.960   0.971  10.805 -0.0117  0.3431  0.2849
  190POPC   H3R21896   5.907   1.066  10.780  0.3605  0.5083  0.1181
  190POPC   H3S21897   5.883   0.905  10.850  0.2435 -1.0848 -1.2761
  190POPC   C2421898   6.013   0.929  10.673  0.1397  0.5127 -0.8153
  190POPC   H4R21899   6.045   0.823  10.673 -0.8629  0.2007 -1.0076
  190POPC   H4S21900   6.104   0.994  10.670  0.8652 -0.4676 -0.5909
  190POPC   C2521901   5.921   0.950  10.553  0.0836  0.0055  0.1314
  190POPC   H5R21902   5.857   1.038  10.574  0.7932  0.6856 -0.4755
  190POPC   H5S21903   5.845   0.869  10.548  2.4493 -2.3286 -0.3243
  190POPC   C2621904   5.991   0.959  10.416  0.0642 -0.0609  0.8387
  190POPC   H6R21905   6.081   0.895  10.414  0.9265  1.1306 -1.3086
  190POPC   H6S21906   6.028   1.062  10.395 -1.0155 -0.0487 -1.2470
  190POPC   C2721907   5.889   0.927  10.306 -0.3976  0.7250  0.0996
  190POPC   H7R21908   5.806   0.994  10.336 -1.2323 -0.6551  0.9914
  190POPC   H7S21909   5.842   0.827  10.313 -2.7324  1.7248 -0.3562
  190POPC   C2821910   5.938   0.967  10.171 -0.1310  1.0283 -0.2664
  190POPC   H8R21911   5.988   1.065  10.186  0.5805  0.7277 -0.6606
  190POPC   H8S21912   5.846   0.964  10.108 -0.9377  2.3007  0.7887
  190POPC   C2921913   6.043   0.872  10.124  0.2258  0.8805  0.1031
  190POPC   H9121914   6.102   0.802  10.186 -0.6782 -0.8502 -0.9054
  190POPC  C21021915   6.065   0.853   9.989  0.1972 -0.4700  0.1171
  190POPC  H10121916   6.141   0.779   9.961 -0.5404 -0.9905 -0.5584
  190POPC  C21121917   5.987   0.914   9.879  0.1817  0.5227 -0.0633
  190POPC  H11R21918   5.880   0.886   9.891  0.7223 -0.5836  2.9378
  190POPC  H11S21919   6.027   0.866   9.787 -1.2569 -0.6655 -0.1090
  190POPC  C21221920   6.013   1.068   9.874  0.4693 -0.6444 -0.1369
  190POPC  H12R21921   6.112   1.093   9.917  1.2789 -1.7708 -1.2933
  190POPC  H12S21922   5.948   1.135   9.935  2.9576  1.3705  0.4754
  190POPC  C21321923   5.995   1.120   9.730  0.0151 -0.3392 -0.0948
  190POPC  H13R21924   6.074   1.066   9.674 -1.2021  0.0316 -2.2716
  190POPC  H13S21925   6.019   1.228   9.715  1.1695 -0.8706 -2.6077
  190POPC  C21421926   5.862   1.088   9.670 -0.0840 -0.2144  0.0650
  190POPC  H14R21927   5.841   0.979   9.669  1.8400 -0.6960  2.7219
  190POPC  H14S21928   5.865   1.116   9.562  0.5758  0.8301  0.3405
  190POPC  C21521929   5.745   1.176   9.732  0.8541 -0.0121 -0.3172
  190POPC  H15R21930   5.746   1.277   9.686 -1.7109  0.7443  1.1383
  190POPC  H15S21931   5.750   1.183   9.842  1.6199  0.3656 -0.3710
  190POPC  C21621932   5.609   1.109   9.714  0.1182 -0.0657  0.4224
  190POPC  H16R21933   5.532   1.171   9.766  1.3551  1.2477  0.7556
  190POPC  H16S21934   5.619   1.011   9.765  0.1399 -0.1234  0.3064
  190POPC  C21721935   5.572   1.090   9.568  0.2700  0.0014 -0.4208
  190POPC  H17R21936   5.622   1.003   9.520 -0.9347  0.5234 -2.7770
  190POPC  H17S21937   5.606   1.180   9.513  1.3397  0.9978  1.7679
  190POPC  C21821938   5.422   1.083   9.546 -0.2276 -0.3370 -0.5966
  190POPC  H18R21939   5.399   1.058   9.441  1.3226  1.7688 -1.4978
  190POPC  H18S21940   5.373   1.180   9.570  0.1659 -0.5406  1.1833
  190POPC  H18T21941   5.379   1.003   9.610 -0.5549  0.4630  0.2044
  190POPC   C3321942   6.436   1.068  10.329  0.1088 -0.3313 -0.1875
  190POPC   H3X21943   6.515   0.991  10.316  0.2111 -0.2811  0.1330
  190POPC   H3Y21944   6.487   1.166  10.325 -0.0365 -0.2411  0.1256
  190POPC   C3421945   6.340   1.062  10.207  0.5930  0.5636  0.0963
  190POPC   H4X21946   6.267   1.144  10.214 -0.8097 -0.3882 -2.1623
  190POPC   H4Y21947   6.289   0.966  10.183  1.2702  0.4734 -1.0570
  190POPC   C3521948   6.423   1.094  10.079  0.0384 -0.3355  0.4889
  190POPC   H5X21949   6.519   1.143  10.106 -0.8741  1.2876  0.8849
  190POPC   H5Y21950   6.362   1.163  10.017  0.0896 -2.3690 -1.9916
  190POPC   C3621951   6.446   0.982   9.974 -0.3849 -0.4552 -0.6013
  190POPC   H6X21952   6.353   0.923   9.960  0.2183 -0.8439 -3.6559
  190POPC   H6Y21953   6.524   0.912  10.012 -1.0076 -0.2454  1.1871
  190POPC   C3721954   6.483   1.032   9.834 -0.3063  1.0339  0.4078
  190POPC   H7X21955   6.539   0.951   9.783 -2.8063  0.2523 -1.2545
  190POPC   H7Y21956   6.550   1.119   9.849  1.4222 -0.1926  0.1326
  190POPC   C3821957   6.361   1.062   9.752 -0.0443  0.3400 -0.3009
  190POPC   H8X21958   6.287   1.128   9.802 -1.4783 -1.0999 -0.4501
  190POPC   H8Y21959   6.303   0.973   9.719  0.6564  1.3430 -4.9810
  190POPC   C3921960   6.393   1.135   9.620 -0.9685  0.1346  0.1381
  190POPC   H9X21961   6.456   1.225   9.641 -0.0002 -0.1005 -1.6322
  190POPC   H9Y21962   6.303   1.161   9.559 -0.5947  1.1925  0.0094
  190POPC  C31021963   6.476   1.061   9.513 -0.0196  0.2611 -0.6405
  190POPC  H10X21964   6.491   0.959   9.554 -1.5952 -0.1490 -1.0183
  190POPC  H10Y21965   6.579   1.103   9.507  0.7048 -0.9515  1.7871
  190POPC  C31121966   6.403   1.056   9.378 -0.3094  0.5164 -0.5922
  190POPC  H11X21967   6.372   1.153   9.334  0.6773  0.2452 -1.9578
  190POPC  H11Y21968   6.307   1.006   9.403  0.2068  0.9856  2.9231
  190POPC  C31221969   6.472   0.961   9.278  0.0599 -1.1575 -0.1131
  190POPC  H12X21970   6.461   0.857   9.317 -0.5919 -1.5470 -1.2536
  190POPC  H12Y21971   6.579   0.983   9.262 -0.1421 -0.8000 -1.0918
  190POPC  C31321972   6.408   0.958   9.134  0.0643 -0.8176  0.7675
  190POPC  H13X21973   6.496   0.930   9.072 -0.2983  1.2983 -0.8252
  190POPC  H13Y21974   6.380   1.059   9.097  1.4778 -1.1946 -1.5127
  190POPC  C31421975   6.303   0.861   9.114 -0.3722 -0.2446  0.0454
  190POPC  H14X21976   6.228   0.870   9.197 -0.5990 -1.6468  0.0198
  190POPC  H14Y21977   6.345   0.759   9.127  1.4177  0.4409 -0.1977
  190POPC  C31521978   6.235   0.878   8.975 -0.1195  0.0180  0.3277
  190POPC  H15X21979   6.205   0.985   8.967  0.2455 -0.0305 -3.0668
  190POPC  H15Y21980   6.134   0.831   8.971 -0.9810  1.8678 -2.0940
  190POPC  C31621981   6.325   0.840   8.863 -0.3535  0.2133 -0.4175
  190POPC  H16X21982   6.276   0.835   8.763 -0.7212  0.7311 -0.2656
  190POPC  H16Y21983   6.356   0.734   8.882  0.4477  0.4289 -0.4788
  190POPC  H16Z21984   6.414   0.905   8.854  0.5359 -0.9750 -0.4960
  191POPC     N21985   6.500   0.946   6.588  0.5215 -0.1728 -0.3976
  191POPC   C1221986   6.436   1.087   6.580 -0.0431  0.2542  0.1242
  191POPC  H12A21987   6.449   1.122   6.478 -0.6403 -0.6251 -0.2674
  191POPC  H12B21988   6.494   1.153   6.642  0.5394  1.6711 -1.8208
  191POPC   C1321989   6.644   0.964   6.610  0.7695 -0.2154  0.1456
  191POPC  H13A21990   6.690   0.870   6.637 -0.6038 -1.5816 -1.9411
  191POPC  H13B21991   6.685   0.983   6.512  1.6485  1.5974  0.8264
  191POPC  H13C21992   6.658   1.048   6.676  1.1016  0.8168 -1.2002
  191POPC   C1421993   6.447   0.867   6.709  0.0239 -0.2837  0.0784
  191POPC  H14A21994   6.446   0.924   6.801 -0.4991 -1.1679  0.6436
  191POPC  H14B21995   6.347   0.829   6.698  0.2609 -1.0343  0.4274
  191POPC  H14C21996   6.497   0.771   6.719 -0.9834 -0.6494  2.4084
  191POPC   C1521997   6.473   0.879   6.458 -0.2024 -0.7277  0.2828
  191POPC  H15A21998   6.528   0.941   6.388  2.5986 -2.9305  0.3882
  191POPC  H15B21999   6.366   0.877   6.441 -0.0376  0.7955 -1.2141
  191POPC  H15C22000   6.516   0.781   6.462  0.9794 -0.2171  0.5809
  191POPC   C1122001   6.291   1.119   6.620 -0.8309 -0.0641 -0.0788
  191POPC  H11A22002   6.277   1.227   6.602  0.8883 -0.0019 -1.2704
  191POPC  H11B22003   6.270   1.108   6.729 -1.6796 -0.4816 -0.2712
  191POPC     P22004   6.090   0.938   6.600 -0.3538 -0.2860 -0.0298
  191POPC   O1322005   6.098   0.816   6.519  0.8800 -0.2937 -0.0941
  191POPC   O1422006   5.960   0.992   6.621  0.5295  0.1227 -0.2212
  191POPC   O1222007   6.192   1.045   6.549  0.4293 -0.3375  0.1723
  191POPC   O1122008   6.139   0.914   6.746 -0.1374 -0.0265  0.5138
  191POPC    C122009   6.042   0.884   6.848  0.3088 -0.1320  0.0348
  191POPC    HA22010   5.950   0.831   6.815 -1.8096  2.4108  1.4388
  191POPC    HB22011   6.022   0.978   6.903 -1.2374  0.3117 -1.2186
  191POPC    C222012   6.111   0.796   6.957 -0.1366 -0.0423 -0.1984
  191POPC    HS22013   6.203   0.847   6.992  0.3629 -2.1367  1.7842
  191POPC   O2122014   6.155   0.667   6.903 -0.1013  0.3381 -0.0463
  191POPC   C2122015   6.275   0.625   6.939  0.5876 -0.5701  0.0310
  191POPC   O2222016   6.358   0.691   6.998 -0.4829  0.7485  0.1272
  191POPC   C2222017   6.304   0.483   6.890  0.2366 -0.2449  0.2800
  191POPC   H2R22018   6.410   0.471   6.859  0.8327  0.1182  2.0357
  191POPC   H2S22019   6.257   0.455   6.794  3.7254 -2.6395 -0.9082
  191POPC    C322020   6.010   0.768   7.070  0.0936  0.5796  0.7868
  191POPC    HX22021   5.922   0.708   7.037 -1.6965  3.6812 -0.5521
  191POPC    HY22022   5.961   0.862   7.105 -0.2428  0.9096 -0.5173
  191POPC   O3122023   6.065   0.694   7.185 -0.1792  0.0570 -0.1382
  191POPC   C3122024   6.140   0.774   7.262  0.1801 -0.1918 -0.9769
  191POPC   O3222025   6.167   0.891   7.235 -0.3225  0.2880 -0.2510
  191POPC   C3222026   6.205   0.696   7.373 -0.0712 -0.6603  0.4436
  191POPC   H2X22027   6.312   0.694   7.341 -0.0407  1.1551  0.3434
  191POPC   H2Y22028   6.169   0.592   7.359 -0.0718 -0.5409 -0.5693
  191POPC   C2322029   6.257   0.384   7.001  0.6874 -0.5965  0.0633
  191POPC   H3R22030   6.292   0.408   7.103  3.0424 -0.5385 -0.6901
  191POPC   H3S22031   6.304   0.287   6.971  1.2937 -0.6468  1.1296
  191POPC   C2422032   6.106   0.369   6.998  0.2372 -0.0084  0.2864
  191POPC   H4R22033   6.087   0.353   6.889  1.5325  0.7528 -0.0797
  191POPC   H4S22034   6.049   0.461   7.023  1.0120  1.4295 -2.7125
  191POPC   C2522035   6.032   0.260   7.075 -0.3924 -0.4423  0.3473
  191POPC   H5R22036   6.073   0.160   7.046  1.7140  0.0165  1.5326
  191POPC   H5S22037   5.924   0.263   7.049 -0.0990  2.3259 -0.9119
  191POPC   C2622038   6.053   0.272   7.234  0.4563  0.1204  0.2070
  191POPC   H6R22039   6.014   0.370   7.271 -0.3452  0.5148 -1.5806
  191POPC   H6S22040   6.163   0.262   7.248  0.8235  1.2226 -1.5323
  191POPC   C2722041   5.979   0.160   7.308 -0.3487 -0.0647  0.3763
  191POPC   H7R22042   5.981   0.063   7.254  0.3550  1.2305 -2.0575
  191POPC   H7S22043   5.875   0.198   7.308 -0.2206  0.4239  2.5286
  191POPC   C2822044   6.010   0.139   7.453 -0.3960 -0.1367 -0.6609
  191POPC   H8R22045   5.936   0.072   7.503  2.6699 -1.9267  1.8563
  191POPC   H8S22046   5.992   0.233   7.510  1.5567  0.0495 -0.2755
  191POPC   C2922047   6.150   0.093   7.476 -0.1793 -0.3200  0.1527
  191POPC   H9122048   6.187   0.016   7.407 -0.6432 -0.8562  0.4955
  191POPC  C21022049   6.240   0.138   7.572  1.1660 -0.8166 -0.1957
  191POPC  H10122050   6.343   0.101   7.571  1.0811 -1.0529 -0.8069
  191POPC  C21122051   6.214   0.250   7.666 -1.0051  0.1167 -0.1526
  191POPC  H11R22052   6.160   0.335   7.620 -0.1225 -0.2648 -1.9679
  191POPC  H11S22053   6.318   0.283   7.687  0.3411 -3.8044  0.3275
  191POPC  C21222054   6.162   0.190   7.802 -0.8415 -0.3459  0.8075
  191POPC  H12R22055   6.069   0.133   7.782 -1.0833  0.0561  0.7995
  191POPC  H12S22056   6.139   0.274   7.870  0.3270  0.5651  0.1115
  191POPC  C21322057   6.281   0.106   7.870 -0.2851 -0.1582  0.2570
  191POPC  H13R22058   6.371   0.171   7.875  0.1350 -0.7436  0.3658
  191POPC  H13S22059   6.307   0.020   7.806 -0.5219  0.4818 -0.7221
  191POPC  C21422060   6.233   0.059   8.011 -0.0595  0.4255  0.4678
  191POPC  H14R22061   6.306  -0.014   8.052 -1.3806 -0.4986  1.2063
  191POPC  H14S22062   6.126   0.029   8.010 -0.8244  2.8929 -1.2211
  191POPC  C21522063   6.240   0.168   8.113  0.3107 -0.4589 -0.0484
  191POPC  H15R22064   6.212   0.110   8.204  4.1287 -0.8998  1.0287
  191POPC  H15S22065   6.172   0.252   8.085  0.0254 -0.2042  1.2992
  191POPC  C21622066   6.376   0.237   8.152  1.2593  0.5723  0.5151
  191POPC  H16R22067   6.342   0.318   8.220 -2.7488  0.8171 -1.4517
  191POPC  H16S22068   6.419   0.289   8.063 -0.7659 -1.2698 -1.7016
  191POPC  C21722069   6.468   0.143   8.239  0.0662 -0.8633  0.1574
  191POPC  H17R22070   6.460   0.056   8.170 -0.6335 -0.3247 -0.4652
  191POPC  H17S22071   6.410   0.127   8.332  2.2105 -0.1848  1.6756
  191POPC  C21822072   6.610   0.182   8.274 -0.4968 -0.6440  0.5784
  191POPC  H18R22073   6.663   0.238   8.195 -2.3166  0.5042  0.1082
  191POPC  H18S22074   6.674   0.093   8.295 -1.0982 -0.5678  3.0769
  191POPC  H18T22075   6.629   0.250   8.360  0.8168 -0.1941 -0.0473
  191POPC   C3322076   6.182   0.756   7.514  0.4285 -0.0564 -1.3027
  191POPC   H3X22077   6.077   0.792   7.517 -0.4344 -2.4899  0.4840
  191POPC   H3Y22078   6.246   0.845   7.534  2.6001 -2.1838  2.3829
  191POPC   C3422079   6.204   0.653   7.623 -0.3183  0.1538 -0.2462
  191POPC   H4X22080   6.311   0.622   7.612 -0.6393 -0.7945 -0.8495
  191POPC   H4Y22081   6.139   0.564   7.615 -1.3248  0.3891  3.5229
  191POPC   C3522082   6.186   0.709   7.758  0.3509 -0.2753 -0.4564
  191POPC   H5X22083   6.087   0.753   7.783  1.3262  0.6580  2.0769
  191POPC   H5Y22084   6.257   0.794   7.772  0.6361 -0.5714 -0.0686
  191POPC   C3622085   6.231   0.609   7.866 -0.0897  0.0018 -0.0025
  191POPC   H6X22086   6.342   0.598   7.872 -0.0793 -0.8669 -1.2090
  191POPC   H6Y22087   6.193   0.509   7.836 -2.2807  0.8652 -0.2693
  191POPC   C3722088   6.189   0.654   8.004  0.0230 -0.0858 -0.2783
  191POPC   H7X22089   6.080   0.674   8.000 -0.3485 -1.8894 -0.1831
  191POPC   H7Y22090   6.236   0.751   8.032 -1.1016  0.1967  0.6947
  191POPC   C3822091   6.227   0.560   8.108 -0.2274 -0.0417  0.5141
  191POPC   H8X22092   6.337   0.552   8.120  0.0030  0.3633 -1.1063
  191POPC   H8Y22093   6.195   0.457   8.083 -0.1113  0.5642 -2.4730
  191POPC   C3922094   6.169   0.611   8.240 -1.0491 -0.8467  0.0707
  191POPC   H9X22095   6.062   0.633   8.224 -0.6982  2.0229  1.0214
  191POPC   H9Y22096   6.223   0.706   8.264  1.0886 -1.7272 -1.0034
  191POPC  C31022097   6.198   0.520   8.365 -0.0971  0.1535  0.0091
  191POPC  H10X22098   6.156   0.418   8.351 -2.7683  1.0348  0.9520
  191POPC  H10Y22099   6.132   0.567   8.441 -0.1483 -0.2236  0.2007
  191POPC  C31122100   6.341   0.528   8.417 -0.2031 -0.2528 -0.1045
  191POPC  H11X22101   6.382   0.630   8.430  1.6896 -1.0719  0.6678
  191POPC  H11Y22102   6.407   0.487   8.338 -0.0911 -0.4817  0.1064
  191POPC  C31222103   6.362   0.445   8.546  0.4598 -0.5874 -0.4568
  191POPC  H12X22104   6.320   0.499   8.634  1.2949  0.2496 -0.5634
  191POPC  H12Y22105   6.470   0.425   8.562  0.5768 -0.3258 -0.9204
  191POPC  C31322106   6.287   0.315   8.542  0.1414  0.5759 -0.0188
  191POPC  H13X22107   6.310   0.267   8.444  0.4640  1.0364 -0.1717
  191POPC  H13Y22108   6.176   0.315   8.533  0.1409 -0.6464 -0.2403
  191POPC  C31422109   6.324   0.210   8.653 -0.6105  0.1558 -0.4318
  191POPC  H14X22110   6.316   0.259   8.752 -0.1073  1.5246 -1.0450
  191POPC  H14Y22111   6.434   0.195   8.639 -0.2770  1.5668  0.4593
  191POPC  C31522112   6.245   0.078   8.639  0.0874  0.1256 -1.3463
  191POPC  H15X22113   6.143   0.117   8.621 -0.7256 -1.7030 -0.9586
  191POPC  H15Y22114   6.229   0.027   8.737  0.4268 -0.7600 -1.7373
  191POPC  C31622115   6.278  -0.027   8.527  0.0752 -0.3452  0.0720
  191POPC  H16X22116   6.217  -0.119   8.534 -1.3891  0.6225  0.4265
  191POPC  H16Y22117   6.383  -0.063   8.533  0.1508 -0.0031  1.0336
  191POPC  H16Z22118   6.261   0.034   8.435  1.5625 -1.3262 -0.9025
  192POPC     N22119   3.655   3.949   6.539  0.1679  0.0579 -0.1466
  192POPC   C1222120   3.747   4.027   6.446  0.8948  0.6187  0.3903
  192POPC  H12A22121   3.848   4.009   6.481  0.0784 -3.4327  1.1558
  192POPC  H12B22122   3.714   4.130   6.440 -0.2300  0.3360  1.3810
  192POPC   C1322123   3.691   3.805   6.547 -0.1500 -0.4673  0.2747
  192POPC  H13A22124   3.664   3.752   6.457 -0.9866  1.4058 -0.6237
  192POPC  H13B22125   3.796   3.802   6.572 -0.4669 -0.5432  1.6744
  192POPC  H13C22126   3.646   3.752   6.630 -2.0203 -0.9072 -0.9563
  192POPC   C1422127   3.662   4.008   6.675 -1.1301  0.1994 -0.8928
  192POPC  H14A22128   3.600   3.947   6.739 -0.2509 -1.8539 -1.9204
  192POPC  H14B22129   3.764   4.001   6.710 -1.8438  0.2555  1.3415
  192POPC  H14C22130   3.626   4.110   6.677  1.9280  1.3586 -0.7263
  192POPC   C1522131   3.508   3.950   6.499  0.0573 -0.3309  0.2894
  192POPC  H15A22132   3.437   3.909   6.569  0.4218 -0.1989  0.7448
  192POPC  H15B22133   3.491   3.894   6.409  0.3797 -0.8012  0.5128
  192POPC  H15C22134   3.490   4.053   6.473  2.5832  0.0851 -0.1073
  192POPC   C1122135   3.749   3.984   6.300  0.0583  0.0854  1.4042
  192POPC  H11A22136   3.786   4.060   6.228 -1.3472 -2.1356 -1.9202
  192POPC  H11B22137   3.649   3.950   6.265  1.1790  0.1242 -2.2522
  192POPC     P22138   4.001   3.874   6.317  0.6296  0.4269 -0.6731
  192POPC   O1322139   4.076   3.946   6.207 -0.5622  0.0846  0.1909
  192POPC   O1422140   4.046   3.739   6.343 -0.6154 -0.3646  0.0642
  192POPC   O1222141   3.844   3.875   6.285 -0.4195  0.3724  0.0847
  192POPC   O1122142   4.014   3.954   6.455 -0.1602  0.1149  0.3449
  192POPC    C122143   4.144   4.008   6.480 -0.1449 -0.2759  0.0601
  192POPC    HA22144   4.161   4.104   6.427 -0.6438  0.5131  1.3212
  192POPC    HB22145   4.227   3.940   6.448  1.1501  1.0992  0.3944
  192POPC    C222146   4.171   4.044   6.627 -0.2200 -0.0369 -0.1056
  192POPC    HS22147   4.265   4.104   6.633 -1.1127  1.4744 -0.6111
  192POPC   O2122148   4.172   3.923   6.711  0.2535 -0.1895 -0.0374
  192POPC   C2122149   4.292   3.857   6.706  0.2088 -0.5309 -0.2434
  192POPC   O2222150   4.388   3.886   6.637  0.7462  0.6905  0.4745
  192POPC   C2222151   4.286   3.740   6.803  0.6373 -0.2229 -0.8051
  192POPC   H2R22152   4.363   3.660   6.791  0.7386 -0.6319  1.9024
  192POPC   H2S22153   4.191   3.688   6.781 -0.6381  1.4094  0.5972
  192POPC    C322154   4.067   4.144   6.680 -0.0573  0.0227  0.1462
  192POPC    HX22155   3.968   4.096   6.667 -0.0371  0.0379 -0.0774
  192POPC    HY22156   4.056   4.238   6.621 -0.2938  1.0151  1.7218
  192POPC   O3122157   4.102   4.188   6.811 -0.0273 -0.0049 -0.9069
  192POPC   C3122158   4.050   4.126   6.910  0.1281  0.3185 -0.2618
  192POPC   O3222159   3.957   4.045   6.902 -0.0198  0.0091 -0.2777
  192POPC   C3222160   4.114   4.172   7.033 -0.5174 -0.3475 -0.3754
  192POPC   H2X22161   4.068   4.272   7.044 -3.4332 -1.8164  2.6214
  192POPC   H2Y22162   4.225   4.172   7.036 -0.3853  0.7000 -2.9000
  192POPC   C2322163   4.280   3.779   6.952  0.3162  0.0661  0.7624
  192POPC   H3R22164   4.217   3.708   7.010 -0.3527  0.6467  0.7632
  192POPC   H3S22165   4.215   3.868   6.969  0.8877  0.4494  0.9763
  192POPC   C2422166   4.418   3.825   6.993 -0.0617  0.2093 -0.4055
  192POPC   H4R22167   4.452   3.886   6.906  1.8062  2.0563  1.4763
  192POPC   H4S22168   4.489   3.741   7.008 -0.2290  0.3400  1.3468
  192POPC   C2522169   4.403   3.905   7.121  0.0818  0.0767 -0.4593
  192POPC   H5R22170   4.302   3.902   7.166 -1.5838 -0.6640 -3.9537
  192POPC   H5S22171   4.426   4.013   7.105 -2.1113  1.2597  3.2547
  192POPC   C2622172   4.485   3.843   7.235 -0.0547 -0.7586 -0.3454
  192POPC   H6R22173   4.592   3.841   7.205 -0.4565 -0.6528 -1.8565
  192POPC   H6S22174   4.442   3.741   7.248  0.5655 -1.1334 -1.1282
  192POPC   C2722175   4.468   3.921   7.368 -0.3558  0.4233  0.4428
  192POPC   H7R22176   4.374   3.891   7.418 -2.7479  4.8335 -0.8797
  192POPC   H7S22177   4.450   4.030   7.354 -4.4693 -0.1276  0.1736
  192POPC   C2822178   4.595   3.905   7.461 -0.5706 -0.2030 -0.0665
  192POPC   H8R22179   4.575   3.987   7.533 -0.0682  0.4010 -0.6029
  192POPC   H8S22180   4.689   3.922   7.404 -0.7951  0.2134 -0.3186
  192POPC   C2922181   4.588   3.783   7.537  0.4088  0.4008 -0.3583
  192POPC   H9122182   4.533   3.702   7.488 -0.9358  0.5915  0.7606
  192POPC  C21022183   4.629   3.762   7.665  0.0800 -0.3484 -0.5585
  192POPC  H10122184   4.617   3.661   7.705  1.6140  0.3849  1.9541
  192POPC  C21122185   4.693   3.859   7.761  0.6122  0.5133  1.0077
  192POPC  H11R22186   4.743   3.942   7.706  2.6436 -2.0534 -1.3186
  192POPC  H11S22187   4.775   3.813   7.821 -1.3002 -0.8952  2.6375
  192POPC  C21222188   4.594   3.921   7.859  0.0840 -0.0332  0.3374
  192POPC  H12R22189   4.511   3.968   7.802  0.3111 -0.3563 -0.2566
  192POPC  H12S22190   4.631   4.012   7.912 -1.5036 -0.2675  1.9498
  192POPC  C21322191   4.548   3.817   7.963 -0.0131 -0.8989  0.4859
  192POPC  H13R22192   4.631   3.745   7.978 -0.2122 -0.9996  1.1391
  192POPC  H13S22193   4.460   3.758   7.931 -1.3349  0.9450  0.5808
  192POPC  C21422194   4.512   3.875   8.101  0.0426 -0.1246 -0.0315
  192POPC  H14R22195   4.606   3.921   8.139 -0.8805  1.0356  0.9079
  192POPC  H14S22196   4.482   3.781   8.152  0.7686 -3.2399 -4.6500
  192POPC  C21522197   4.413   3.981   8.097 -0.1499 -0.8522 -0.3485
  192POPC  H15R22198   4.334   3.972   8.019 -0.0776  1.6044 -0.7860
  192POPC  H15S22199   4.470   4.075   8.076 -1.3452 -0.3754 -1.6686
  192POPC  C21622200   4.348   4.013   8.230 -0.3622 -0.3181 -0.4546
  192POPC  H16R22201   4.301   3.923   8.275  0.3242 -0.4153  0.0830
  192POPC  H16S22202   4.272   4.093   8.218  0.0105 -0.0951 -1.4236
  192POPC  C21722203   4.446   4.064   8.341 -0.2529 -0.8359  0.7547
  192POPC  H17R22204   4.485   4.156   8.293  2.1322 -1.3579  1.5510
  192POPC  H17S22205   4.530   3.993   8.354  0.0028 -0.6225  0.2693
  192POPC  C21822206   4.373   4.101   8.474 -0.3925 -0.2283  0.0630
  192POPC  H18R22207   4.291   4.166   8.437  0.4246 -0.3131 -2.0876
  192POPC  H18S22208   4.429   4.165   8.545  0.6409 -0.8034 -0.2126
  192POPC  H18T22209   4.343   4.007   8.524 -2.3295  0.3919  0.1555
  192POPC   C3322210   4.076   4.077   7.138  0.6392  0.2989 -0.8301
  192POPC   H3X22211   4.111   3.973   7.122  1.5042  0.5385 -0.5291
  192POPC   H3Y22212   3.967   4.068   7.159  0.5308  1.7710 -0.6527
  192POPC   C3422213   4.122   4.129   7.275 -0.3448  0.2723  0.4383
  192POPC   H4X22214   4.089   4.235   7.286  2.3909  1.3070 -0.5471
  192POPC   H4Y22215   4.232   4.140   7.269 -0.4860  1.2396 -0.8772
  192POPC   C3522216   4.079   4.045   7.395  0.2387 -0.0542  0.4638
  192POPC   H5X22217   4.107   3.940   7.373 -0.4348  0.3301 -2.8478
  192POPC   H5Y22218   3.968   4.042   7.404  0.2266  0.9632  0.6942
  192POPC   C3622219   4.140   4.104   7.521 -0.0843  0.6161 -0.5583
  192POPC   H6X22220   4.122   4.214   7.527 -1.3932  0.3401  1.5423
  192POPC   H6Y22221   4.247   4.075   7.512 -0.8694 -2.2304 -1.6873
  192POPC   C3722222   4.080   4.056   7.656  0.0040  0.7007  1.0460
  192POPC   H7X22223   4.103   3.948   7.666 -0.3927  0.4452 -0.5083
  192POPC   H7Y22224   3.971   4.074   7.646  0.1030  0.3920 -0.9335
  192POPC   C3822225   4.136   4.136   7.770 -0.1736 -0.9160  0.7563
  192POPC   H8X22226   4.116   4.242   7.743  0.3928 -1.2225 -1.0009
  192POPC   H8Y22227   4.245   4.115   7.765 -0.4947 -2.5264 -0.1802
  192POPC   C3922228   4.071   4.113   7.906 -0.5437  1.1423  0.5764
  192POPC   H9X22229   4.127   4.175   7.979 -1.3157  2.9002 -0.2500
  192POPC   H9Y22230   4.088   4.008   7.937  1.4979  0.9699 -0.9499
  192POPC  C31022231   3.921   4.138   7.918 -0.1312  0.3051 -0.1646
  192POPC  H10X22232   3.867   4.079   7.841 -0.2010 -0.7615  0.6908
  192POPC  H10Y22233   3.910   4.246   7.894 -0.5307  0.0871 -0.9927
  192POPC  C31122234   3.872   4.117   8.054 -0.5617  0.3139  0.2569
  192POPC  H11X22235   3.763   4.101   8.062 -0.3808 -1.4952 -0.4992
  192POPC  H11Y22236   3.898   4.209   8.111  0.6516  1.5931 -2.1705
  192POPC  C31222237   3.932   4.001   8.138  0.0118 -0.2307 -0.2847
  192POPC  H12X22238   4.034   4.024   8.175  0.4915 -3.2680  0.5913
  192POPC  H12Y22239   3.934   3.911   8.073 -3.8603 -0.7666  0.1131
  192POPC  C31322240   3.847   3.961   8.258 -0.0542  0.7128 -0.1492
  192POPC  H13X22241   3.874   3.859   8.295  1.5627  0.8096 -0.9605
  192POPC  H13Y22242   3.739   3.959   8.233  0.1489  2.1891 -1.2338
  192POPC  C31422243   3.858   4.060   8.377  0.1551 -0.6293  0.1708
  192POPC  H14X22244   3.800   4.149   8.346  1.3201 -0.6998 -2.4362
  192POPC  H14Y22245   3.963   4.095   8.372 -0.7091  2.2784  0.6151
  192POPC  C31522246   3.816   4.002   8.511 -0.1972  0.5013  0.5592
  192POPC  H15X22247   3.869   3.907   8.537  0.7620  0.9056  0.1423
  192POPC  H15Y22248   3.711   3.973   8.493  0.5458 -1.2708 -1.3284
  192POPC  C31622249   3.832   4.106   8.622 -0.1866 -0.4561  0.8238
  192POPC  H16X22250   3.793   4.081   8.723  1.1617  1.5093  1.8898
  192POPC  H16Y22251   3.772   4.196   8.597  1.6285  0.1098 -1.9684
  192POPC  H16Z22252   3.937   4.142   8.628  0.2965 -1.7733  0.7097
  193SOD    SOD22253   3.756   2.255  15.054  0.1591  0.7411 -0.7364
  194SOD    SOD22254   5.172   1.975   0.400  0.2591  0.7952 -0.0531
  195SOD    SOD22255   4.022   5.560   3.367 -0.4046 -0.0582  0.6333
  196SOD    SOD22256   0.216   6.485   6.509  0.1826 -0.5099 -0.2452
  197SOD    SOD22257   6.670   4.144  13.602  0.1547  0.1580  0.1285
  198SOD    SOD22258   6.648   6.039  15.517  0.2394  0.2067 -0.0375
  199SOD    SOD22259   4.993   2.446   1.154 -0.0457 -0.0651 -0.1016
  200SOD    SOD22260   2.498   1.955  13.878  0.1284 -0.3423 -0.3372
  201SOD    SOD22261   0.614   4.089   3.869 -0.0571  0.4292  0.4047
  202SOD    SOD22262   4.613   6.655  12.651 -0.1121 -0.3739 -0.3642
  203SOD    SOD22263   0.344   6.538   0.121  0.0407 -0.8849 -0.3539
  204SOD    SOD22264   2.747   3.538   0.036 -0.1734  0.2375  0.8718
  205SOD    SOD22265   3.974   1.141  11.430  0.3464 -0.0786  0.4453
  206SOD    SOD22266   0.027   4.192   3.950  0.1527  0.0012 -0.2002
  207SOD    SOD22267   3.873   2.111  11.222  0.3134  0.4809  0.2053
  208SOD    SOD22268   2.087   3.567  12.119  0.0845 -0.1336 -0.0988
  209SOD    SOD22269   0.354   0.049  11.109  0.2602  0.9015 -0.1023
  210SOD    SOD22270   6.722   3.612   4.419  0.3953 -0.3172 -0.0898
  211SOD    SOD22271   2.015   2.024   0.568  0.1111  0.1743 -0.0113
  212SOD    SOD22272   2.551   5.143  12.087 -0.0305  0.0329  0.2775
  213SOD    SOD22273   1.086   4.071  10.599  0.0004  0.4986 -0.1460
  214SOD    SOD22274   0.867   6.221   4.795 -0.2132 -0.3095  0.1499
  215SOD    SOD22275   0.605   1.266   3.258  0.0684 -0.8901 -0.2610
  216SOD    SOD22276   0.341   5.329   5.524 -0.3209  0.0640 -0.2983
  217SOD    SOD22277   5.746   4.810  10.399 -0.3352 -0.3722 -0.1374
  218SOD    SOD22278   2.604   2.169   4.872 -0.5172  0.0972 -0.2717
  219SOD    SOD22279   1.855   6.747  11.544 -0.3997 -0.0099 -0.1949
  220SOD    SOD22280   3.178   6.354   2.327  0.2002 -0.0973  0.1790
  221SOD    SOD22281   4.695   0.004   6.027  0.2257 -0.1207  0.6141
  222SOD    SOD22282   4.010   3.447   3.414 -0.2382  0.0397  0.2785
  223SOD    SOD22283   1.204   2.298  15.041 -0.3871  0.4676  0.3047
  224SOD    SOD22284   3.785   1.341   5.883 -0.5349 -0.0968 -0.6230
  225SOD    SOD22285   5.626   5.897   5.786 -0.0639  0.4107  0.0453
  226SOD    SOD22286   4.793   0.478  11.058 -0.1290  0.2450  0.4834
  227SOD    SOD22287   6.595   0.185  13.495  0.1009 -0.1268  0.5888
  228SOD    SOD22288   5.520   2.229   6.413  0.7069 -0.3494  0.2964
  229SOD    SOD22289   4.168   2.459   6.575 -0.6817  0.1790 -0.3504
  230SOD    SOD22290   1.538   0.495  10.877 -0.0707  0.1008  0.1425
  231SOD    SOD22291   1.170   0.359   5.833  0.3175  0.0151 -0.2342
  232SOD    SOD22292   4.307   1.178  14.354 -0.3626 -0.6028  0.0550
  233SOD    SOD22293   5.693   1.322  11.458 -0.1698 -0.2537 -0.7537
  234SOD    SOD22294   5.070   2.671  15.651  0.1314  0.2814 -0.0825
  235SOD    SOD22295   4.983   3.152  16.431 -0.0329 -0.1876 -0.1613
  236SOD    SOD22296   5.792   4.132  17.071  0.3606 -0.3438  0.3093
  237SOD    SOD22297   5.786   4.816   0.287 -0.3448 -0.0648 -0.2846
  238SOD    SOD22298   5.467   5.328  14.596  0.0293  0.4679  0.0410
  239SOD    SOD22299   0.472   0.690   0.464  0.0089 -0.4535 -0.2598
  240SOD    SOD22300   3.436   1.760  12.710 -0.0286 -0.0783 -0.2342
  241SOD    SOD22301   2.203   2.510  12.893  0.0131 -0.2309 -0.3832
  242SOD    SOD22302   3.227   1.492  11.521 -0.0378  0.4876 -0.1305
  243SOD    SOD22303   5.184   1.094  16.896  0.1642 -0.0601 -0.5920
  244SOD    SOD22304   3.019   3.387  13.451  0.4449 -0.0588  0.3919
  245SOD    SOD22305   5.914   0.632   6.146 -0.2651 -0.0014  0.8254
  246SOD    SOD22306   2.073   4.064  10.601  0.1130  0.0185 -0.2005
  247SOD    SOD22307   6.126   4.992  12.117 -0.0386  0.4513 -0.1783
  248SOD    SOD22308   0.534   6.081   6.313 -0.4631  0.0016  0.2636
  249SOD    SOD22309   2.634   0.969  16.519 -0.0981  0.0175  0.1378
  250SOD    SOD22310   4.035   2.646   0.106 -0.0345  0.3516 -0.2323
  251SOD    SOD22311   6.768   3.070  14.488 -0.3771 -0.5231 -0.3302
  252SOD    SOD22312   3.301   0.412   0.041  0.2387  0.2669 -0.1759
  253SOD    SOD22313   1.500   2.410  16.179 -0.5654 -0.0631  0.2810
  254SOD    SOD22314   0.940   3.626   0.536 -0.3118 -0.4911  0.1404
  255SOD    SOD22315   6.253   2.217  12.562 -0.4730  0.1402  0.5396
  256SOD    SOD22316   0.687   2.121   4.532 -0.2953  0.1146  0.4356
  257SOD    SOD22317   5.261   6.359  12.793  0.1896 -0.0337  0.1606
  258SOD    SOD22318   4.708   3.545   5.199  0.0891  0.3157  0.4605
  259SOD    SOD22319   1.393   5.495   2.444  0.2714  0.0662 -0.3342
  260SOD    SOD22320   2.730   0.758  13.324  0.2627 -0.0657  0.0503
  261SOD    SOD22321   1.794   2.763   6.415 -0.2647  0.1537 -0.1277
  262SOD    SOD22322   4.205   6.265   6.539 -0.3856 -0.0946 -0.3962
  263SOD    SOD22323   0.386   5.760   3.530  0.4556 -0.2972 -0.2671
  264SOD    SOD22324   4.729   4.318  11.881  0.2490  0.3715  0.0499
  265SOD    SOD22325   1.908   1.368   2.575 -0.3885 -0.1823  0.4835
  266SOD    SOD22326   3.365   6.709  12.548  0.0160  0.4137 -0.0282
  267SOD    SOD22327   2.413   5.664   4.108  0.2352  0.1494  0.4198
  268SOD    SOD22328   5.564   3.269  11.970 -0.1905  0.0902  0.2752
  269SOD    SOD22329   6.283   3.475  13.005  0.1791  0.1789  0.0861
  270CLA    CLA22330   0.251   5.946  17.129 -0.1663 -0.2845 -0.0621
  271CLA    CLA22331   2.889   2.691   1.134 -0.0658  0.5208  0.3716
  272CLA    CLA22332   3.410   6.324  13.966 -0.5504 -0.0710  0.1252
  273CLA    CLA22333   2.915   1.324   1.401  0.3261  0.3843 -0.1131
  274CLA    CLA22334   4.715   6.734   5.411  0.1593 -0.1394 -0.0912
  275CLA    CLA22335   5.078   4.925   0.967 -0.0699 -0.1282  0.1309
  276CLA    CLA22336   1.974   6.036   3.391  0.4392  0.1550  0.1255
  277CLA    CLA22337   4.133   6.071   6.127 -0.0274  0.1702 -0.1442
  278CLA    CLA22338   1.960   3.903   0.430 -0.0098 -0.1449 -0.3459
  279CLA    CLA22339   5.237   1.525  16.746  0.1384  0.1820 -0.3320
  280CLA    CLA22340   1.106   5.453   3.211 -0.3760 -0.0238 -0.4051
  281CLA    CLA22341   5.196   1.222  11.568 -0.0625 -0.0275  0.2019
  282CLA    CLA22342   5.058   3.963  12.228 -0.0096 -0.3625  0.5068
  283CLA    CLA22343   2.644   6.292  13.326  0.3295 -0.0955  0.3102
  284CLA    CLA22344   1.771   1.626  12.306  0.2382  0.6653 -0.4302
  285CLA    CLA22345   0.981   4.567  16.862 -0.3357 -0.3605 -0.2801
  286CLA    CLA22346   3.183   0.430   3.124  0.4253  0.6481  0.1226
  287CLA    CLA22347   4.420   3.254   3.287 -0.0543  0.1614  0.1500
  288CLA    CLA22348   0.240   6.566   1.374 -0.1898  0.4512  0.6257
  289CLA    CLA22349   6.454   3.885  12.904 -0.2735  0.0250  0.1378
  290CLA    CLA22350   3.736   0.428  12.674  0.1132 -0.0727 -0.3097
  291CLA    CLA22351   2.766   5.334   0.868  0.0118 -0.1005 -0.1345
  292CLA    CLA22352   0.712   5.313   4.601  0.0760 -0.3857 -0.0765
  293CLA    CLA22353   3.494   3.840  11.555 -0.3709 -0.2942  0.0272
  294CLA    CLA22354   5.008   2.379   1.418  0.0256  0.1842 -0.1658
  295CLA    CLA22355   2.424   0.629   3.716 -0.1080 -0.2166  0.0283
  296CLA    CLA22356   2.911   1.586   3.090 -0.3898 -0.0017 -0.0630
  297CLA    CLA22357   5.423   0.138  16.738 -0.3042 -0.7585 -0.3161
  298CLA    CLA22358   3.608   0.648  17.305  0.2086  0.5415 -0.7940
  299CLA    CLA22359   3.495   3.525  13.873 -0.5916  0.2009  0.0592
  300CLA    CLA22360   5.283   5.424  12.940  0.1611  0.0058  0.1066
  301CLA    CLA22361   3.603   5.118  15.723 -0.5211 -0.2836  0.1118
  302CLA    CLA22362   2.757   4.766  14.284 -0.6586 -0.4392  0.1838
  303CLA    CLA22363   4.835   3.399  16.793 -0.0939 -0.1484 -0.4213
  304CLA    CLA22364   4.567   0.359  11.217  0.0495 -0.0354 -0.0839
  305CLA    CLA22365   4.907   1.369   1.702 -0.0204 -0.1669 -0.5143
  306CLA    CLA22366   3.291   0.801  13.120  0.0748  0.6152  0.3606
  307CLA    CLA22367   1.554   2.757  17.024  0.3527 -0.3182 -0.2114
  308CLA    CLA22368   0.237   6.755   3.576  0.2753  0.2995 -0.5210
  309CLA    CLA22369   3.455   5.885   1.422 -0.3761  0.4320 -0.0428
  310CLA    CLA22370   4.410   6.076  15.619  0.1274  0.1917 -0.2469
  311CLA    CLA22371   5.717   2.221  14.994 -0.0355  0.0394 -0.0374
  312CLA    CLA22372   1.956   1.488  14.817  0.3017 -0.1750 -0.1468
  313CLA    CLA22373   1.887   1.562   4.703  0.2958 -0.2855  0.1478
  314CLA    CLA22374   0.862   2.595  16.508 -0.2148  0.3698 -0.0934
  315CLA    CLA22375   2.100   3.184  14.701  0.0074 -0.1859  0.0890
  316CLA    CLA22376   5.177   5.957   4.257  0.4602 -0.1497  0.0597
  317CLA    CLA22377   2.132   3.022  14.046  0.2897  0.0057 -0.1578
  318CLA    CLA22378   2.849   3.245   2.788  0.1955 -0.2892  0.6430
  319CLA    CLA22379   4.961   1.797  13.030 -0.1534 -0.1501  0.5345
  320CLA    CLA22380   0.945   5.819  15.474 -0.0681 -0.2715  0.1443
  321CLA    CLA22381   0.841   1.492  12.669  0.0768 -0.4130 -0.1075
  322CLA    CLA22382   3.449   2.586  16.339  0.2043  0.1380  0.2965
  323TIP3   OH222383   4.660   4.684  15.560  0.4920  0.4513  0.1042
  323TIP3    H122384   4.578   4.689  15.511  0.1535 -0.2221  0.5806
  323TIP3    H222385   4.727   4.672  15.493 -0.0854 -1.6643 -0.1881
  324TIP3   OH222386   1.395   3.761  12.950 -0.0916  0.1212 -0.7538
  324TIP3    H122387   1.461   3.820  12.915  1.4340 -1.3502 -0.4619
  324TIP3    H222388   1.312   3.805  12.932  0.9479  2.0828 -1.0102
  325TIP3   OH222389   3.136   2.542  16.344 -0.2086  0.0466 -0.0577
  325TIP3    H122390   3.229   2.548  16.366 -0.3000 -0.6341  0.5454
  325TIP3    H222391   3.135   2.511  16.253  0.1583 -1.0869  0.3125
  326TIP3   OH222392   3.036   1.382  11.414  0.6523  0.3597 -0.3771
  326TIP3    H122393   3.055   1.299  11.370  1.1837  1.0706 -1.5543
  326TIP3    H222394   2.954   1.413  11.374 -0.5500 -0.4372  1.3505
  327TIP3   OH222395   4.123   5.548  13.500 -0.2349  0.2271 -0.1851
  327TIP3    H122396   4.054   5.608  13.529  0.6142 -0.1508  3.0436
  327TIP3    H222397   4.162   5.591  13.424 -2.5254  1.5405 -0.7017
  328TIP3   OH222398   1.197   5.118  17.293  0.1837  0.1271 -0.5571
  328TIP3    H122399   1.155   5.095  17.210  0.0904  0.4866 -0.6131
  328TIP3    H222400   1.232   5.035  17.326  0.0701 -0.0482 -0.8701
  329TIP3   OH222401   5.929   0.172   0.046  0.2460 -0.0565 -0.2386
  329TIP3    H122402   5.936   0.135   0.134 -1.3347 -0.7953 -0.3862
  329TIP3    H222403   6.012   0.149   0.004  0.4521 -0.9438  0.6110
  330TIP3   OH222404   4.238   0.758  15.265 -0.1666  0.1223  0.5821
  330TIP3    H122405   4.200   0.806  15.191  0.4163  2.0754  1.4795
  330TIP3    H222406   4.167   0.702  15.295 -0.0177 -1.7770 -2.2369
  331TIP3   OH222407   5.219   2.454   1.934 -0.0623 -0.1764  0.6245
  331TIP3    H122408   5.219   2.545   1.905 -2.4685  0.2228  1.6160
  331TIP3    H222409   5.171   2.407   1.867  0.8166 -0.6646  0.3228
  332TIP3   OH222410   5.472   0.587   1.995 -0.6075  0.1006  0.5974
  332TIP3    H122411   5.418   0.665   2.003 -2.3787 -0.9209 -0.5879
  332TIP3    H222412   5.431   0.523   2.054 -0.3577 -0.5080  0.1281
  333TIP3   OH222413   4.844   5.455   2.206  0.1792  0.6447  0.0596
  333TIP3    H122414   4.814   5.534   2.162  0.2839  1.0716  0.7401
  333TIP3    H222415   4.781   5.441   2.277  0.8486  0.8257  0.7061
  334TIP3   OH222416   6.146   1.678  14.312  0.3661 -0.0091  0.1506
  334TIP3    H122417   6.075   1.742  14.306 -0.9666 -1.5088 -1.2713
  334TIP3    H222418   6.147   1.636  14.226  1.1662 -1.8738  1.0091
  335TIP3   OH222419   0.060   1.517  14.241  0.0454  0.3207  0.4966
  335TIP3    H122420   0.110   1.544  14.164 -2.0026  1.7689 -0.4253
  335TIP3    H222421   0.043   1.424  14.227 -0.6357  0.6444 -1.0594
  336TIP3   OH222422   0.569   1.048   0.621 -0.4742 -0.1975 -0.5402
  336TIP3    H122423   0.509   1.112   0.582 -1.2321 -0.2573  0.4618
  336TIP3    H222424   0.555   1.057   0.715 -0.6057 -1.8487 -0.3685
  337TIP3   OH222425   5.708   2.999   1.093 -0.7680 -0.0722 -0.8360
  337TIP3    H122426   5.772   2.999   1.023 -0.3347 -1.5802 -0.4881
  337TIP3    H222427   5.714   3.086   1.132  0.6274  0.0135 -1.2028
  338TIP3   OH222428   1.529   3.351  13.673  0.4685 -0.6465  0.0545
  338TIP3    H122429   1.577   3.276  13.709  2.2684  0.6990  0.5780
  338TIP3    H222430   1.575   3.428  13.706  2.3318  0.7920 -4.9819
  339TIP3   OH222431   6.547   2.633  15.753  0.0237  0.5868 -0.2470
  339TIP3    H122432   6.573   2.704  15.694 -0.5806  1.3411  0.3611
  339TIP3    H222433   6.621   2.623  15.813  1.2349 -1.1289 -1.9216
  340TIP3   OH222434   5.963   6.710   4.975  0.3452 -1.0823  0.6308
  340TIP3    H122435   5.878   6.686   4.939 -0.2153  1.4856  0.0116
  340TIP3    H222436   6.017   6.731   4.899  0.4856  0.3380  1.0758
  341TIP3   OH222437   0.379   4.357  12.960 -0.1766 -0.3345  0.2542
  341TIP3    H122438   0.423   4.406  13.029  0.1065  0.7613 -0.6676
  341TIP3    H222439   0.448   4.305  12.919 -0.4447 -1.3981  1.1212
  342TIP3   OH222440   6.393   0.187  12.295  0.9094 -0.5458  0.1339
  342TIP3    H122441   6.413   0.196  12.388 -0.2624 -1.8999  0.5577
  342TIP3    H222442   6.300   0.166  12.293  0.7035  0.3983 -1.4175
  343TIP3   OH222443   0.820   1.587   3.574 -0.0013  0.0711  0.6482
  343TIP3    H122444   0.886   1.621   3.513  0.2486 -0.2295  0.7466
  343TIP3    H222445   0.760   1.536   3.520  0.8338 -1.1028  0.7919
  344TIP3   OH222446   2.164   4.765  11.452 -0.0149  0.2478  0.7682
  344TIP3    H122447   2.118   4.833  11.502 -1.2027 -1.1877  1.7236
  344TIP3    H222448   2.114   4.685  11.470  0.4179 -0.6057 -1.5608
  345TIP3   OH222449   5.123   6.237  11.864 -0.0410  0.0249  0.1626
  345TIP3    H122450   5.217   6.257  11.859  0.1147 -0.4610  1.0096
  345TIP3    H222451   5.097   6.264  11.952 -0.6382 -0.0972  0.0286
  346TIP3   OH222452   4.439   1.505   4.532  0.1177  0.1361  0.4852
  346TIP3    H122453   4.475   1.466   4.452  0.6833  1.3116  0.1375
  346TIP3    H222454   4.346   1.482   4.530  0.5982 -2.0263  0.8402
  347TIP3   OH222455   3.981   5.978   0.871 -0.2792 -0.0027  0.3392
  347TIP3    H122456   4.005   5.994   0.780  0.3370 -0.9770  0.3106
  347TIP3    H222457   3.889   6.001   0.876 -0.7439 -1.4291 -0.9349
  348TIP3   OH222458   4.412   4.479   4.278 -0.6029  0.1604  0.0610
  348TIP3    H122459   4.433   4.566   4.311  1.8269 -0.1951 -0.4178
  348TIP3    H222460   4.411   4.424   4.357  0.4814  0.1582  0.0793
  349TIP3   OH222461   3.259   0.790   5.681  0.4619  0.7772  0.0901
  349TIP3    H122462   3.226   0.702   5.698 -1.6366  1.3338 -0.7989
  349TIP3    H222463   3.354   0.783   5.696  0.4121 -1.6911 -0.2946
  350TIP3   OH222464   3.307   6.195  16.710  0.1587  0.1318 -0.8096
  350TIP3    H122465   3.311   6.170  16.802  1.9438 -0.1492 -0.9349
  350TIP3    H222466   3.225   6.245  16.703 -0.6166 -0.8547  0.6456
  351TIP3   OH222467   0.370   4.693   3.349 -0.4322  0.5690  0.3316
  351TIP3    H122468   0.338   4.651   3.269 -0.8462 -0.0272  0.8092
  351TIP3    H222469   0.430   4.630   3.388 -0.2234  0.8628  0.4895
  352TIP3   OH222470   0.546   0.763   1.889 -0.2890  0.2194  0.4748
  352TIP3    H122471   0.454   0.771   1.863 -0.8294 -1.0143  1.8805
  352TIP3    H222472   0.567   0.671   1.878  0.2616  0.1684  1.7524
  353TIP3   OH222473   1.298   4.147   5.285 -0.5044  0.5050  0.5622
  353TIP3    H122474   1.332   4.214   5.226 -1.8339  1.8237  1.2415
  353TIP3    H222475   1.261   4.080   5.228 -0.9519  1.3183 -0.1175
  354TIP3   OH222476   3.073   4.078   2.973 -0.2155 -0.2836  0.0653
  354TIP3    H122477   3.076   4.167   2.938 -0.2082 -0.4228 -0.2945
  354TIP3    H222478   3.143   4.032   2.927  3.1181  0.7049  3.6604
  355TIP3   OH222479   5.116   3.486   1.798 -0.0935  0.0518  0.5143
  355TIP3    H122480   5.199   3.447   1.827 -0.6871 -0.7308  1.1975
  355TIP3    H222481   5.057   3.412   1.785 -0.8449  0.6304  0.5439
  356TIP3   OH222482   0.665   4.524   3.369  0.2719  0.3626 -0.0214
  356TIP3    H122483   0.723   4.448   3.360  0.0669  0.1996  0.0264
  356TIP3    H222484   0.703   4.590   3.311 -0.0745 -0.0956 -0.7849
  357TIP3   OH222485   3.665   1.852   5.587 -0.1445 -0.3673 -0.1260
  357TIP3    H122486   3.616   1.921   5.541  0.5578  0.9276  0.9950
  357TIP3    H222487   3.731   1.824   5.524 -0.0190  0.4577 -0.3765
  358TIP3   OH222488   0.025   5.719  15.219 -0.2452  0.5542  0.0891
  358TIP3    H122489  -0.024   5.665  15.280  1.9246 -1.8982 -0.2013
  358TIP3    H222490   0.009   5.809  15.249 -1.3370 -0.3844  2.6206
  359TIP3   OH222491   1.808   5.960  17.012  0.4042 -0.0624  0.4129
  359TIP3    H122492   1.715   5.980  16.997  0.4314  1.2918  1.8102
  359TIP3    H222493   1.807   5.897  17.084  0.5194 -1.7977 -1.0355
  360TIP3   OH222494   5.252   2.023   0.624 -0.2998  0.2164  0.5385
  360TIP3    H122495   5.347   2.007   0.624 -0.2658  0.4062  1.1000
  360TIP3    H222496   5.235   2.067   0.707 -0.5238  2.3197 -0.5709
  361TIP3   OH222497   5.386   1.539   4.594 -0.4644  0.6600  0.4665
  361TIP3    H122498   5.459   1.529   4.656 -0.6490  0.4001  0.6493
  361TIP3    H222499   5.361   1.631   4.600  0.4801  0.9878 -0.3218
  362TIP3   OH222500   1.831   2.966   5.068 -0.5116 -0.5635 -0.6187
  362TIP3    H122501   1.830   3.059   5.045  1.6045 -0.7551 -1.7110
  362TIP3    H222502   1.885   2.925   5.000 -1.4070 -2.5971 -0.1534
  363TIP3   OH222503   2.996   3.573  10.610 -0.2410 -0.4020  0.4853
  363TIP3    H122504   2.953   3.541  10.531  0.6253  0.0844 -0.2038
  363TIP3    H222505   2.926   3.580  10.675 -1.2606  0.6341 -0.6811
  364TIP3   OH222506   0.418   4.513   3.109  0.5198 -0.1219 -0.5520
  364TIP3    H122507   0.501   4.532   3.065 -0.2402  0.6156 -1.7103
  364TIP3    H222508   0.353   4.512   3.039 -0.2948 -1.8921  0.1687
  365TIP3   OH222509   3.785   4.881  13.604  0.5846  0.1625 -0.6206
  365TIP3    H122510   3.819   4.912  13.689  0.3264 -1.2811  0.0347
  365TIP3    H222511   3.690   4.890  13.611  0.5132 -0.6550 -0.4605
  366TIP3   OH222512   0.162   0.875   1.442 -0.1972 -0.1649 -0.5384
  366TIP3    H122513   0.212   0.954   1.466 -1.2945  0.4868 -0.3421
  366TIP3    H222514   0.194   0.852   1.355 -0.5422  1.0694 -1.0038
  367TIP3   OH222515   3.719   5.420   1.820  0.0618  0.6582  0.4375
  367TIP3    H122516   3.808   5.454   1.815  0.9411 -1.5479 -0.0098
  367TIP3    H222517   3.697   5.424   1.913  0.9299  0.4605  0.6546
  368TIP3   OH222518   6.448   6.538   5.199 -0.2823  0.2032  0.2377
  368TIP3    H122519   6.461   6.452   5.159  0.3801  0.7945 -0.8729
  368TIP3    H222520   6.430   6.519   5.291  1.8689 -1.0574  0.4611
  369TIP3   OH222521   1.658   5.071  14.510  0.3471 -0.0627  0.0358
  369TIP3    H122522   1.595   5.143  14.518  1.1118  0.5052  1.1231
  369TIP3    H222523   1.743   5.113  14.503  0.8342 -0.8567  0.9182
  370TIP3   OH222524   0.807   2.550   5.131 -0.2255  0.4175  0.0932
  370TIP3    H122525   0.900   2.556   5.110  0.0576  1.4400  1.4721
  370TIP3    H222526   0.795   2.461   5.164  0.1562  0.1380 -0.5093
  371TIP3   OH222527   0.275   5.888  12.478 -0.4126 -0.2942 -0.5246
  371TIP3    H122528   0.210   5.957  12.494  0.1771  0.3463 -0.8521
  371TIP3    H222529   0.306   5.863  12.565  0.6386  1.0930 -0.4829
  372TIP3   OH222530   0.739   2.253   0.820  0.3724 -0.0300  0.5698
  372TIP3    H122531   0.651   2.278   0.794  0.3411 -0.9900 -0.3008
  372TIP3    H222532   0.772   2.201   0.747  1.5619  0.0814  1.0017
  373TIP3   OH222533   5.209   2.021  13.360 -0.0338 -0.1121 -0.3383
  373TIP3    H122534   5.187   2.077  13.285  0.7658 -0.9870 -1.2619
  373TIP3    H222535   5.304   2.027  13.367 -0.1370  0.2892  0.8927
  374TIP3   OH222536   1.037   1.177   4.702  0.3184  0.5554 -0.0534
  374TIP3    H122537   1.090   1.135   4.635 -1.3985 -0.7619 -0.6698
  374TIP3    H222538   0.992   1.248   4.655 -1.9382 -1.2182 -0.7349
  375TIP3   OH222539   3.889   3.974  10.975  0.2124  0.0157 -0.1282
  375TIP3    H122540   3.861   3.902  10.918  1.7355 -0.8680  0.1851
  375TIP3    H222541   3.962   4.014  10.928  3.1110 -2.2302  2.1308
  376TIP3   OH222542   4.781   3.741   3.100 -0.8307  0.0568  0.8060
  376TIP3    H122543   4.807   3.670   3.159 -0.1658 -0.7075 -0.3626
  376TIP3    H222544   4.800   3.707   3.012 -0.9764  1.4911  0.1962
  377TIP3   OH222545   0.289   0.143   2.427 -0.0257  0.1542  0.5195
  377TIP3    H122546   0.284   0.213   2.362 -2.6294  0.8570  1.3786
  377TIP3    H222547   0.379   0.147   2.459  0.4039  1.8881 -0.7538
  378TIP3   OH222548   5.014   2.726   5.901 -0.4436  0.3688  0.0262
  378TIP3    H122549   4.932   2.684   5.928  0.4278 -1.5575 -0.1381
  378TIP3    H222550   5.031   2.792   5.968 -1.3074 -0.3113  0.9366
  379TIP3   OH222551   5.925   1.931  17.102  0.1009 -0.0956 -0.6302
  379TIP3    H122552   5.967   1.969  17.180  0.5978 -0.9018 -0.4833
  379TIP3    H222553   5.834   1.959  17.107 -0.1502 -1.0466  0.8745
  380TIP3   OH222554   2.520   4.971  16.210  0.3846  0.1059  0.5940
  380TIP3    H122555   2.484   5.015  16.133 -0.1753  0.1295  0.8634
  380TIP3    H222556   2.597   5.022  16.233  0.2392  0.4254  0.3779
  381TIP3   OH222557   5.752   4.582  16.987  0.1990  0.3214 -1.0080
  381TIP3    H122558   5.765   4.521  17.059  2.2350 -0.0909 -1.6581
  381TIP3    H222559   5.707   4.531  16.920 -1.1123  0.5255 -0.3223
  382TIP3   OH222560   3.601   1.342  10.923 -0.1449 -0.5847  0.2246
  382TIP3    H122561   3.638   1.363  10.838 -0.4966  1.2930  0.4911
  382TIP3    H222562   3.509   1.364  10.916 -0.7766 -2.9366  0.3124
  383TIP3   OH222563   0.899   3.932  10.635 -0.5793 -0.2772  0.3211
  383TIP3    H122564   0.878   3.863  10.698 -0.7570 -1.0470 -0.5497
  383TIP3    H222565   0.822   3.989  10.635 -0.2177  0.2543  1.4368
  384TIP3   OH222566   5.676   4.572   4.723 -1.1720  0.0538 -0.0212
  384TIP3    H122567   5.647   4.661   4.745  1.3539  1.0507 -0.3764
  384TIP3    H222568   5.757   4.560   4.773 -0.4051 -1.2752 -1.5006
  385TIP3   OH222569   2.433   2.226  15.231 -0.0626 -0.5782  0.5809
  385TIP3    H122570   2.450   2.275  15.151 -0.4053 -1.3573  0.0115
  385TIP3    H222571   2.338   2.219  15.234 -0.0631 -0.3168  1.2075
  386TIP3   OH222572   5.621   0.084  13.933 -0.9280  0.2547 -0.0002
  386TIP3    H122573   5.641   0.133  13.853  1.3126 -1.9006 -0.9210
  386TIP3    H222574   5.642  -0.007  13.910 -0.5740 -0.4969  2.9449
  387TIP3   OH222575   0.779   1.357  10.669  0.4677 -0.1585 -0.2079
  387TIP3    H122576   0.864   1.313  10.678 -0.4680 -2.0183 -0.1727
  387TIP3    H222577   0.798   1.433  10.614  2.8956  1.6566  2.7924
  388TIP3   OH222578   3.783   4.236  12.621  0.1913  0.5629 -0.3456
  388TIP3    H122579   3.847   4.190  12.675 -0.3135  1.0870  0.7519
  388TIP3    H222580   3.797   4.204  12.532 -0.7532 -2.4386  0.4675
  389TIP3   OH222581   5.657   2.761   2.745 -0.5447 -0.2535 -0.6805
  389TIP3    H122582   5.676   2.847   2.784  1.2061 -0.3081 -1.3398
  389TIP3    H222583   5.601   2.781   2.670  0.1606  0.3718 -1.0542
  390TIP3   OH222584   4.288   1.660  15.203  0.0054  0.0722  0.3972
  390TIP3    H122585   4.333   1.602  15.142 -0.8751 -1.1972  0.9130
  390TIP3    H222586   4.227   1.710  15.149  0.3072  0.0555  0.0375
  391TIP3   OH222587   1.817   1.910   0.472 -0.5819 -0.1929  0.4435
  391TIP3    H122588   1.781   1.992   0.437  1.4142  0.2170 -0.8017
  391TIP3    H222589   1.838   1.858   0.395  1.7902 -0.2374  1.0381
  392TIP3   OH222590   0.669   5.888   2.774 -0.0820 -0.2910  0.0335
  392TIP3    H122591   0.757   5.869   2.743 -0.4628 -1.7497 -0.2492
  392TIP3    H222592   0.626   5.930   2.699 -0.6843 -2.8722 -1.1888
  393TIP3   OH222593   2.645   5.624  16.484  0.5049 -0.0560 -0.0374
  393TIP3    H122594   2.605   5.703  16.520  0.5809  0.5254 -1.2024
  393TIP3    H222595   2.614   5.553  16.542  0.5510  0.8246  1.1034
  394TIP3   OH222596   2.697   4.558   0.159 -0.3515  0.0423 -0.0626
  394TIP3    H122597   2.634   4.608   0.210  0.8735 -0.1220  1.6931
  394TIP3    H222598   2.777   4.611   0.161 -0.2401  0.0113 -1.8294
  395TIP3   OH222599   2.071   5.649  16.742 -0.1038 -0.5520  0.2810
  395TIP3    H122600   2.076   5.724  16.801  2.6686 -0.3659 -0.0314
  395TIP3    H222601   2.083   5.573  16.799  1.0833 -0.4593  0.1927
  396TIP3   OH222602   3.821   6.518   5.198  0.2202  0.2146  0.2930
  396TIP3    H122603   3.832   6.495   5.291  2.0595 -1.5077 -0.2826
  396TIP3    H222604   3.907   6.502   5.159 -1.0785 -1.3171 -2.1660
  397TIP3   OH222605   2.459   5.356   5.171 -0.4174 -0.6166 -0.0467
  397TIP3    H122606   2.430   5.343   5.261  0.2365  2.3328  0.7134
  397TIP3    H222607   2.554   5.351   5.175 -0.2149  1.9104  0.0105
  398TIP3   OH222608   3.677   0.887   4.888  0.0022  0.5974 -0.4156
  398TIP3    H122609   3.643   0.850   4.969  0.8990 -1.2538 -0.8273
  398TIP3    H222610   3.600   0.922   4.843 -0.8398 -0.3884  0.2265
  399TIP3   OH222611   1.833   4.151   3.872 -0.5264 -0.0801  0.1213
  399TIP3    H122612   1.854   4.116   3.958 -2.4943 -1.4459  0.1293
  399TIP3    H222613   1.823   4.245   3.885 -1.5987 -0.3591  1.6056
  400TIP3   OH222614   0.275   2.954  10.838  0.6949 -0.1806  0.3116
  400TIP3    H122615   0.295   2.971  10.746  1.9361  0.2030  0.6337
  400TIP3    H222616   0.224   2.873  10.837  0.2010  0.1338 -0.7559
  401TIP3   OH222617   0.827   1.692  16.050  0.0577 -0.2298 -0.0927
  401TIP3    H122618   0.876   1.686  16.132  0.4311 -1.3685 -0.3796
  401TIP3    H222619   0.867   1.626  15.993 -0.6272  0.0850 -0.9633
  402TIP3   OH222620   3.928   4.757   5.859  0.5942 -0.2991  0.3204
  402TIP3    H122621   4.018   4.780   5.885 -0.4622  2.4696  1.9828
  402TIP3    H222622   3.909   4.814   5.785  0.1998 -0.9050 -0.0508
  403TIP3   OH222623   4.881   5.468  16.811  0.1370 -0.6384 -0.1302
  403TIP3    H122624   4.841   5.533  16.869 -0.6430 -0.9851 -0.2690
  403TIP3    H222625   4.972   5.495  16.805  0.2995 -0.7318  1.4407
  404TIP3   OH222626   6.020   4.283  11.647  0.1505 -0.3427 -0.0898
  404TIP3    H122627   5.982   4.285  11.560 -1.6217 -1.3430  0.6107
  404TIP3    H222628   6.028   4.190  11.668  0.9516 -0.1190  0.6525
  405TIP3   OH222629   0.860   5.092  12.149 -0.1043  0.3864  0.2540
  405TIP3    H122630   0.785   5.123  12.098 -0.8056 -2.8052 -0.9041
  405TIP3    H222631   0.821   5.038  12.218  1.0506  0.4504  0.9777
  406TIP3   OH222632   2.246   2.459   6.504  1.0902  0.3392  0.2468
  406TIP3    H122633   2.215   2.384   6.452  1.2285  1.2182 -1.1602
  406TIP3    H222634   2.304   2.420   6.569  1.6077 -0.7447 -0.8132
  407TIP3   OH222635   1.289   2.859  14.083  0.0715  0.1687 -0.8003
  407TIP3    H122636   1.275   2.954  14.081 -0.5897  0.0833 -0.4343
  407TIP3    H222637   1.383   2.849  14.098 -0.0959  0.7696  0.8919
  408TIP3   OH222638   4.531   1.855  16.607  0.2217  0.1885 -0.2105
  408TIP3    H122639   4.590   1.930  16.617  2.3412 -1.3961 -0.0879
  408TIP3    H222640   4.457   1.875  16.663  0.4793  2.3923 -0.5500
  409TIP3   OH222641   4.671   5.523   1.724  0.5304 -0.1203 -0.0510
  409TIP3    H122642   4.610   5.554   1.658  1.6108  0.2600 -0.9003
  409TIP3    H222643   4.717   5.601   1.754  0.3898 -0.3543  0.8192
  410TIP3   OH222644   1.642   1.334  14.589  0.2941  0.4858 -0.2702
  410TIP3    H122645   1.653   1.344  14.494  1.3185 -3.6924 -0.8145
  410TIP3    H222646   1.730   1.339  14.624  0.2710 -0.7937  0.0169
  411TIP3   OH222647   2.518   0.853  16.989  0.1104 -0.0235 -0.1602
  411TIP3    H122648   2.468   0.774  16.970  0.5160 -0.5794  1.0205
  411TIP3    H222649   2.466   0.900  17.055 -0.2661  0.8610 -1.0460
  412TIP3   OH222650   1.271   2.968   5.041 -0.0681  0.1756 -0.5865
  412TIP3    H122651   1.240   3.048   5.084 -2.0248 -0.3026 -1.0154
  412TIP3    H222652   1.319   2.921   5.109 -1.4005  0.3686  0.5302
  413TIP3   OH222653   5.188   6.771  12.709 -0.2504 -0.4212  0.8096
  413TIP3    H122654   5.214   6.727  12.628 -1.2599  0.3793  0.0234
  413TIP3    H222655   5.265   6.766  12.765  0.8873  0.0435 -0.6498
  414TIP3   OH222656   2.404   4.689   2.444 -0.4517 -0.3565  0.2084
  414TIP3    H122657   2.435   4.679   2.534 -0.0358 -0.7656  0.0243
  414TIP3    H222658   2.370   4.603   2.421 -0.2428 -0.3483 -0.1378
  415TIP3   OH222659   4.214   2.910   1.928  0.4372 -0.2707 -0.6132
  415TIP3    H122660   4.293   2.949   1.965 -0.0441 -1.7448  2.3645
  415TIP3    H222661   4.226   2.816   1.942 -1.1298 -0.6622 -1.6775
  416TIP3   OH222662   0.814   5.262  15.736  0.4563 -0.7177 -0.6403
  416TIP3    H122663   0.767   5.330  15.784 -0.5911 -1.4975 -0.5061
  416TIP3    H222664   0.761   5.247  15.658  0.1873 -1.9599 -0.2482
  417TIP3   OH222665   1.651   2.180  13.843  0.0611 -0.6103 -0.2222
  417TIP3    H122666   1.588   2.115  13.873  2.0999 -2.2328  0.8690
  417TIP3    H222667   1.707   2.132  13.781  1.7008  0.0132  0.7143
  418TIP3   OH222668   1.332   1.644   0.934 -0.3259 -0.0384  0.8854
  418TIP3    H122669   1.404   1.602   0.888 -0.3629  0.2828  0.5240
  418TIP3    H222670   1.282   1.572   0.973 -0.0198 -0.2818  0.8264
  419TIP3   OH222671   3.870   2.364  11.376  0.7233  0.2899  0.0363
  419TIP3    H122672   3.946   2.422  11.380  1.4061 -0.5511 -0.1991
  419TIP3    H222673   3.871   2.318  11.460  0.0639  0.7677  0.3081
  420TIP3   OH222674   6.187   4.643   0.528 -0.2489  0.0950  0.0896
  420TIP3    H122675   6.172   4.582   0.600 -2.6649 -0.2063 -0.6001
  420TIP3    H222676   6.274   4.681   0.547  2.0974 -4.4654 -0.1774
  421TIP3   OH222677   0.300   1.688  13.747  0.3547 -0.1681 -0.1914
  421TIP3    H122678   0.373   1.699  13.686  1.2687  0.6117  0.9940
  421TIP3    H222679   0.222   1.703  13.693  1.1483  0.9451 -1.0930
  422TIP3   OH222680   6.645   5.303   5.183  0.4299  0.6913  0.4762
  422TIP3    H122681   6.731   5.265   5.166 -0.8151 -1.8562 -0.5890
  422TIP3    H222682   6.610   5.323   5.097 -0.8444 -0.2799  0.7386
  423TIP3   OH222683   2.184   6.234   3.245  0.0854 -0.6243  0.0695
  423TIP3    H122684   2.266   6.222   3.292 -0.2099 -0.1616  0.7210
  423TIP3    H222685   2.126   6.167   3.280 -1.2133  1.7402  2.9107
  424TIP3   OH222686   2.605   4.785  13.988 -0.3169 -0.2422 -0.0326
  424TIP3    H122687   2.649   4.788  14.073  0.4440  1.2818 -0.4464
  424TIP3    H222688   2.569   4.873  13.976 -0.9422 -0.6075 -1.0357
  425TIP3   OH222689   4.413   5.685  17.273 -0.5572 -0.0207  0.4008
  425TIP3    H122690   4.443   5.710  17.186  0.5224  0.3125  0.8502
  425TIP3    H222691   4.318   5.686  17.267 -0.5319  1.9508 -0.2420
  426TIP3   OH222692   6.434   2.473   5.766  0.1323 -0.2041 -0.5101
  426TIP3    H122693   6.358   2.418   5.749  0.7191 -0.9866 -0.6276
  426TIP3    H222694   6.410   2.524   5.843 -0.5923 -0.2759 -0.6807
  427TIP3   OH222695   3.425   2.617   1.637 -0.3373 -0.1799 -0.0476
  427TIP3    H122696   3.398   2.675   1.708 -1.1257  0.0229 -0.5036
  427TIP3    H222697   3.350   2.614   1.578 -0.3567 -1.7381  0.0086
  428TIP3   OH222698   0.276   2.881  13.720  0.6534  0.2532  0.1119
  428TIP3    H122699   0.226   2.874  13.801 -0.7615  2.5241 -0.4709
  428TIP3    H222700   0.301   2.973  13.715 -1.2826  0.7456 -3.0947
  429TIP3   OH222701   5.725   1.337  11.817  0.4412  0.2825  0.1624
  429TIP3    H122702   5.659   1.394  11.855 -0.2263 -1.0721  1.1104
  429TIP3    H222703   5.678   1.257  11.795  1.5125 -0.2200 -0.3568
  430TIP3   OH222704   5.400   3.780   5.725 -0.4115  0.1782  0.3024
  430TIP3    H122705   5.455   3.858   5.718  0.0459 -0.2715 -1.7073
  430TIP3    H222706   5.439   3.729   5.796  1.5936  0.0364 -0.8493
  431TIP3   OH222707   4.200   4.464   4.092  0.3176  0.2513  0.9580
  431TIP3    H122708   4.238   4.437   4.175  2.7406  2.8066  0.8231
  431TIP3    H222709   4.262   4.434   4.026 -0.6301 -0.1080  0.2029
  432TIP3   OH222710   0.522   3.405  15.152 -0.6221  0.8400 -0.3693
  432TIP3    H122711   0.587   3.335  15.147  0.3329  1.7607 -1.4760
  432TIP3    H222712   0.465   3.381  15.225  1.5367  0.4780  1.2702
  433TIP3   OH222713   2.659   4.822   4.722 -0.0132 -0.8792 -0.2859
  433TIP3    H122714   2.647   4.900   4.668 -0.2106 -0.0990  0.8391
  433TIP3    H222715   2.740   4.782   4.691  1.9180  1.5810  1.1886
  434TIP3   OH222716   4.535   1.336   3.099 -0.5337 -0.2224 -0.0115
  434TIP3    H122717   4.458   1.352   3.044 -0.7105 -1.8852 -0.3044
  434TIP3    H222718   4.605   1.319   3.036 -0.3893 -0.6376  0.2571
  435TIP3   OH222719   4.971   2.237   4.180 -0.5178 -0.3425 -0.1083
  435TIP3    H122720   4.909   2.213   4.111  1.6766 -1.0782 -1.9513
  435TIP3    H222721   4.964   2.332   4.187 -2.2956 -0.4532  0.2510
  436TIP3   OH222722   3.654   4.449   4.756 -0.0423  0.2062 -0.2089
  436TIP3    H122723   3.625   4.511   4.822 -1.9598 -1.8527  1.0280
  436TIP3    H222724   3.740   4.420   4.786 -0.3760  0.1835  0.7704
  437TIP3   OH222725   2.572   2.020  13.076 -0.1315  0.3061 -0.4224
  437TIP3    H122726   2.628   1.945  13.059 -1.9444 -1.0782 -0.4922
  437TIP3    H222727   2.485   1.984  13.087 -0.6384  2.0799  2.4667
  438TIP3   OH222728   0.265   0.538  15.870 -0.0084  0.3647 -0.0377
  438TIP3    H122729   0.358   0.562  15.873  0.1776  0.2346 -2.8405
  438TIP3    H222730   0.265   0.444  15.850 -0.7003  0.7291 -1.8767
  439TIP3   OH222731   5.382   4.390   4.448  0.4014  0.2684  0.0362
  439TIP3    H122732   5.381   4.366   4.356  0.1519  0.4957 -0.0218
  439TIP3    H222733   5.398   4.485   4.448  1.8610  0.0375  0.2767
  440TIP3   OH222734   2.679   5.487  17.204 -0.4504 -0.5261  0.9402
  440TIP3    H122735   2.697   5.579  17.225 -0.1784  0.2171 -2.0523
  440TIP3    H222736   2.744   5.437  17.253  0.6237  1.0424  1.1752
  441TIP3   OH222737   4.751   6.421   5.841  0.1956 -0.0703  0.5977
  441TIP3    H122738   4.660   6.442   5.824  0.1462  1.2511  2.2603
  441TIP3    H222739   4.801   6.489   5.796  0.4554 -1.2659 -1.0249
  442TIP3   OH222740   5.602   4.033  16.128  0.2621  0.1241  0.2732
  442TIP3    H122741   5.645   3.961  16.175 -1.5450 -0.6444  0.8358
  442TIP3    H222742   5.585   3.999  16.040  0.9461  0.4912 -0.0066
  443TIP3   OH222743   5.578   5.826  11.710 -0.6604 -0.4011  0.5637
  443TIP3    H122744   5.565   5.918  11.687 -0.6133 -1.0421 -2.5201
  443TIP3    H222745   5.671   5.810  11.698 -0.7240 -0.9415  0.7397
  444TIP3   OH222746   2.736   0.322   6.160  0.2427  0.2765  0.7512
  444TIP3    H122747   2.675   0.251   6.141 -1.7696  1.1904  3.1965
  444TIP3    H222748   2.819   0.278   6.181 -0.1869 -1.1461 -0.3764
  445TIP3   OH222749   2.104   1.443  11.679 -0.4634  0.2519 -0.1083
  445TIP3    H122750   2.050   1.374  11.641  1.3486 -1.6596  0.5277
  445TIP3    H222751   2.162   1.470  11.608 -0.6478  0.5323 -0.1490
  446TIP3   OH222752   3.151   3.447   1.789  0.3225  0.1447  0.6284
  446TIP3    H122753   3.183   3.430   1.877  1.4861 -2.0157 -0.1225
  446TIP3    H222754   3.139   3.360   1.750 -0.8470  1.0082 -1.1166
  447TIP3   OH222755   0.148   0.408   4.135  0.1860  0.0246  0.4685
  447TIP3    H122756   0.125   0.372   4.220  0.3394  1.2874  1.0703
  447TIP3    H222757   0.156   0.502   4.150  0.6735  0.2184 -0.8399
  448TIP3   OH222758   3.732   4.035   3.625  0.3847 -0.9135 -0.2609
  448TIP3    H122759   3.741   3.991   3.541 -1.0341 -2.8666  0.5427
  448TIP3    H222760   3.651   4.001   3.662  1.7954 -1.4186  2.6259
  449TIP3   OH222761   0.082   4.841  15.289  0.1033  0.4119  0.1371
  449TIP3    H122762   0.143   4.905  15.325 -0.5986  0.8575  0.5563
  449TIP3    H222763   0.031   4.811  15.365 -1.5042  1.4797 -0.4662
  450TIP3   OH222764   4.517   6.545   2.623 -0.2126 -0.4447  0.0887
  450TIP3    H122765   4.559   6.544   2.709 -0.1451  0.9207  0.1012
  450TIP3    H222766   4.425   6.566   2.642 -0.2365 -0.3276 -0.1508
  451TIP3   OH222767   0.333   5.757   1.394 -0.0935 -0.4762  0.6510
  451TIP3    H122768   0.382   5.681   1.425  0.3801 -0.4180  0.0450
  451TIP3    H222769   0.267   5.721   1.335 -0.1025 -0.4535  0.6468
  452TIP3   OH222770   3.742   4.165  15.772 -1.0864 -0.5730 -0.2689
  452TIP3    H122771   3.698   4.250  15.773  0.1617  0.0931 -0.7243
  452TIP3    H222772   3.677   4.105  15.736 -1.2570  0.6160 -2.0541
  453TIP3   OH222773   3.422   6.409  15.844 -0.0588 -0.0277 -0.1705
  453TIP3    H122774   3.335   6.372  15.860 -0.1010 -0.6601 -1.6475
  453TIP3    H222775   3.406   6.480  15.782  0.4841 -0.2908 -0.6233
  454TIP3   OH222776   6.109   2.794  13.519  0.0987  0.5170 -0.3226
  454TIP3    H122777   6.095   2.718  13.463 -0.0200  0.0894  0.2727
  454TIP3    H222778   6.201   2.788  13.545 -0.6536 -1.3392  2.3964
  455TIP3   OH222779   5.070   6.320  17.262 -0.9260  0.1381  0.0725
  455TIP3    H122780   5.076   6.264  17.339  1.4797 -1.0731 -0.9082
  455TIP3    H222781   4.991   6.291  17.217 -1.7069  0.0582  1.4422
  456TIP3   OH222782   3.148   1.209   1.826 -0.3695  0.4985  0.1925
  456TIP3    H122783   3.147   1.288   1.880 -0.5185  0.1377  0.7216
  456TIP3    H222784   3.118   1.139   1.884  0.6077 -0.1161 -0.0109
  457TIP3   OH222785   4.486   5.057  11.871  0.5532  0.1519 -0.1279
  457TIP3    H122786   4.537   5.136  11.884 -1.6519  1.8257 -1.0144
  457TIP3    H222787   4.479   5.046  11.776 -1.7274  0.7656 -0.1046
  458TIP3   OH222788   0.400   0.136  12.601 -0.6635  0.0170  0.5978
  458TIP3    H122789   0.356   0.216  12.572 -1.6875 -0.1820  1.5126
  458TIP3    H222790   0.329   0.080  12.632  0.1384 -0.8090  0.9926
  459TIP3   OH222791   4.020   4.166   1.659 -0.1303  0.2870  0.0439
  459TIP3    H122792   4.027   4.186   1.753  0.6179  0.1675  0.0221
  459TIP3    H222793   3.947   4.106   1.653  0.5337 -0.6160  0.7176
  460TIP3   OH222794   3.446   3.577   1.442 -0.1267  0.1607  0.0346
  460TIP3    H122795   3.499   3.614   1.513 -2.5206  1.1355  1.4185
  460TIP3    H222796   3.431   3.486   1.468  0.1948  0.1034  0.0275
  461TIP3   OH222797   5.908   5.819  15.646  0.1342 -0.1989  0.3969
  461TIP3    H122798   5.812   5.814  15.653 -0.1146  1.1897 -1.3587
  461TIP3    H222799   5.925   5.907  15.613  2.1126 -0.0750  1.5638
  462TIP3   OH222800   0.377   5.813  13.588 -0.1949 -0.5037 -0.2194
  462TIP3    H122801   0.351   5.849  13.673  0.1208  1.0750 -0.7536
  462TIP3    H222802   0.473   5.813  13.589 -0.1700  0.5208 -0.9461
  463TIP3   OH222803   5.817   1.580  14.084 -0.0310 -0.2411  0.0043
  463TIP3    H122804   5.818   1.665  14.040 -1.8000 -0.8759 -1.4000
  463TIP3    H222805   5.910   1.558  14.096  0.5617  0.4715 -2.5201
  464TIP3   OH222806   0.588   4.064  12.293 -0.1380  0.1240  0.0454
  464TIP3    H122807   0.503   4.097  12.320 -0.2461 -1.2911  1.5830
  464TIP3    H222808   0.649   4.099  12.359  0.0600 -0.9170  0.4328
  465TIP3   OH222809   4.623   2.633   0.415 -0.1110  0.3600  0.2806
  465TIP3    H122810   4.557   2.669   0.355 -0.1137  0.3355  0.2686
  465TIP3    H222811   4.602   2.540   0.420 -0.5939  0.4926  0.9243
  466TIP3   OH222812   2.683   5.030   4.115 -0.6256 -0.1354 -0.6632
  466TIP3    H122813   2.617   5.005   4.180  0.1114  1.4457  0.7536
  466TIP3    H222814   2.763   4.987   4.145 -0.0855  1.2820  0.0187
  467TIP3   OH222815   4.516   2.869   5.496  0.5407 -0.1983 -0.2817
  467TIP3    H122816   4.480   2.926   5.564  1.5468  1.4119 -1.0475
  467TIP3    H222817   4.441   2.847   5.441 -0.1548 -0.9438  0.9013
  468TIP3   OH222818   1.694   6.079  15.957 -0.0858  0.5094 -0.3348
  468TIP3    H122819   1.740   6.043  15.881 -1.4034 -0.2302 -0.8104
  468TIP3    H222820   1.601   6.071  15.935 -0.5158 -0.4200  1.6607
  469TIP3   OH222821   0.837   0.128  12.101 -0.0854 -0.4743  0.5499
  469TIP3    H122822   0.902   0.146  12.169  0.8136  0.5191 -0.5213
  469TIP3    H222823   0.889   0.118  12.020 -1.2546  0.4915 -0.3600
  470TIP3   OH222824   1.938   4.815   1.193  0.2228  0.3685 -0.3742
  470TIP3    H122825   1.942   4.901   1.234  0.4313  0.2328 -0.1105
  470TIP3    H222826   1.971   4.755   1.259 -0.5845 -0.0118 -0.2992
  471TIP3   OH222827   3.658   2.532   1.001  0.0631  0.1459  0.9226
  471TIP3    H122828   3.567   2.503   1.005  0.0233  0.2482  0.7365
  471TIP3    H222829   3.699   2.474   0.936 -0.0377  0.5626  0.4827
  472TIP3   OH222830   2.196   0.515  15.133  0.3029  0.0473  0.1370
  472TIP3    H122831   2.276   0.469  15.108  0.1602  0.1451 -0.5079
  472TIP3    H222832   2.227   0.593  15.179  0.6552  1.0464 -1.7014
  473TIP3   OH222833   0.546   6.456   2.211 -0.0407  0.2349 -0.3075
  473TIP3    H122834   0.633   6.470   2.173  0.8500 -1.5883  0.8821
  473TIP3    H222835   0.528   6.536   2.260  1.7344  0.0567  0.7336
  474TIP3   OH222836   2.728   4.897  16.016  1.1058  0.6373 -0.0135
  474TIP3    H122837   2.737   4.927  15.926  0.6070 -1.4242 -0.8079
  474TIP3    H222838   2.633   4.900  16.033  1.0448 -0.4303 -0.1109
  475TIP3   OH222839   0.953   0.649   3.829 -0.0572 -0.3863 -0.6440
  475TIP3    H122840   0.940   0.651   3.924  1.1380 -0.6021 -0.4636
  475TIP3    H222841   0.934   0.738   3.801 -1.2803 -0.5277 -0.3361
  476TIP3   OH222842   3.987   4.177  13.730  0.1035 -0.3596 -0.0889
  476TIP3    H122843   3.957   4.119  13.660 -1.1755  1.4662 -1.1539
  476TIP3    H222844   3.906   4.216  13.765  0.9015  0.6879  0.6651
  477TIP3   OH222845   0.796   6.405   5.542  0.0454 -0.2743 -0.1972
  477TIP3    H122846   0.884   6.370   5.548 -0.2974 -1.2897 -0.8323
  477TIP3    H222847   0.774   6.400   5.449 -0.1890  1.2470 -0.2551
  478TIP3   OH222848   4.025   6.186   6.663 -0.2960 -0.1270  0.1087
  478TIP3    H122849   3.966   6.125   6.618  1.0947 -1.8608  0.5459
  478TIP3    H222850   3.971   6.225   6.732 -1.1190 -1.1365  0.0541
  479TIP3   OH222851   4.494   0.678  13.929 -0.0356  0.1429 -0.8721
  479TIP3    H122852   4.564   0.739  13.955  0.2968 -1.1668  1.6808
  479TIP3    H222853   4.432   0.680  14.002 -0.5617 -1.7410 -1.2005
  480TIP3   OH222854   6.552   1.213  17.003  0.6138 -0.0550 -0.8093
  480TIP3    H122855   6.499   1.287  17.033  2.5347  1.1844 -0.2921
  480TIP3    H222856   6.573   1.232  16.912  0.1665 -0.5576 -1.0240
  481TIP3   OH222857   0.083   2.735   5.424 -0.0793  0.1670 -0.2289
  481TIP3    H122858   0.063   2.798   5.493 -0.4583 -0.0495 -0.1402
  481TIP3    H222859   0.175   2.713   5.437 -0.0161  0.5122 -0.1041
  482TIP3   OH222860   4.007   4.377  16.144  0.2158  0.2891  0.0548
  482TIP3    H122861   3.912   4.375  16.156  0.1467  0.6786 -0.3776
  482TIP3    H222862   4.024   4.464  16.108  0.9538  0.9693  1.9394
  483TIP3   OH222863   3.703   5.004   3.880  0.1964  0.1718  0.2203
  483TIP3    H122864   3.781   5.032   3.928  1.0831 -0.0506 -1.0589
  483TIP3    H222865   3.736   4.945   3.813 -1.1319 -0.2640 -0.0758
  484TIP3   OH222866   3.641   5.381   2.984 -0.0533  0.3573  0.1769
  484TIP3    H122867   3.671   5.376   2.893 -0.2702  0.3930  0.1030
  484TIP3    H222868   3.644   5.474   3.005  0.2644  0.3204  0.2971
  485TIP3   OH222869   2.498   4.348  15.200 -0.1414  0.2149  0.2400
  485TIP3    H122870   2.423   4.335  15.258 -0.5510  1.8432  0.1299
  485TIP3    H222871   2.521   4.440  15.211  1.7814 -0.2144  0.1676
  486TIP3   OH222872   5.417   0.705   2.900 -0.4729  0.1612 -0.2840
  486TIP3    H122873   5.436   0.617   2.935 -1.9142 -0.0420  0.0520
  486TIP3    H222874   5.452   0.703   2.811  1.8610  0.1554  0.5600
  487TIP3   OH222875   1.127   0.670  14.975  0.2135 -0.2712 -0.6018
  487TIP3    H122876   1.105   0.639  15.063  1.8210  1.0128  0.2940
  487TIP3    H222877   1.180   0.748  14.989 -0.4292  0.6325 -2.7445
  488TIP3   OH222878   3.340   4.109  13.808  0.4032 -0.1959 -0.2914
  488TIP3    H122879   3.404   4.099  13.878  0.2704  1.6341  0.1624
  488TIP3    H222880   3.268   4.051  13.832  0.3275  0.4608  1.1810
  489TIP3   OH222881   5.515   2.874   1.277  0.7070 -0.1933  0.0404
  489TIP3    H122882   5.572   2.851   1.350 -0.5278  1.0086  1.4510
  489TIP3    H222883   5.573   2.914   1.212  1.5199  0.7078  1.2904
  490TIP3   OH222884   0.154   5.179  16.289  0.0038  0.5611  0.2567
  490TIP3    H122885   0.170   5.261  16.336 -0.0661  0.1454  1.0095
  490TIP3    H222886   0.086   5.201  16.225 -0.5505  0.9051  0.9560
  491TIP3   OH222887   1.737   1.515   0.288 -0.6844  0.3833 -0.1055
  491TIP3    H122888   1.778   1.470   0.363  0.0627  0.2758 -0.5626
  491TIP3    H222889   1.762   1.462   0.212 -2.8629 -0.4981 -0.2858
  492TIP3   OH222890   0.822   5.141   3.520 -0.6949  0.1626 -0.2124
  492TIP3    H122891   0.797   5.223   3.563 -0.1698  0.7031 -0.9007
  492TIP3    H222892   0.887   5.167   3.455  1.1474 -1.0929  1.0369
  493TIP3   OH222893   4.151   3.545   5.919  0.0737 -0.1876 -0.1664
  493TIP3    H122894   4.113   3.469   5.875 -0.2432 -1.0712  1.5758
  493TIP3    H222895   4.107   3.550   6.003  0.4803  1.6264 -0.0010
  494TIP3   OH222896   6.655   4.585  13.461  0.3334 -0.3604  0.4319
  494TIP3    H122897   6.621   4.673  13.475  1.7975  0.3963 -0.5058
  494TIP3    H222898   6.589   4.542  13.407  0.3869  0.7412 -0.5359
  495TIP3   OH222899   0.748   1.708  15.676  0.5277 -0.3620 -0.3168
  495TIP3    H122900   0.768   1.649  15.604  1.4398 -0.7617  0.2510
  495TIP3    H222901   0.721   1.650  15.747 -1.3011  0.0782 -0.6044
  496TIP3   OH222902   4.898   4.689   0.904  0.2235  0.3364  0.0394
  496TIP3    H122903   4.832   4.734   0.853 -0.3156  0.7151  1.0363
  496TIP3    H222904   4.970   4.752   0.912 -1.1399  1.7168  2.7168
  497TIP3   OH222905   0.973   4.159   0.925  0.0166  0.3131  0.3475
  497TIP3    H122906   1.011   4.221   0.862  0.3115 -0.2977 -0.0828
  497TIP3    H222907   1.029   4.165   1.002 -1.9052  3.1339  1.7096
  498TIP3   OH222908   6.453   4.110  12.248  0.7911 -0.2364 -0.9320
  498TIP3    H122909   6.370   4.154  12.263  1.0737  0.3695 -1.1154
  498TIP3    H222910   6.490   4.098  12.336 -0.2589 -2.0801 -0.6819
  499TIP3   OH222911   5.038   4.841   4.999  0.4511  0.1099  0.1539
  499TIP3    H122912   4.986   4.781   4.944 -0.1550  0.4821  0.3133
  499TIP3    H222913   5.088   4.783   5.056 -0.8967 -0.2616  1.0146
  500TIP3   OH222914   1.587   0.454   3.816 -0.0658 -0.1594 -0.0702
  500TIP3    H122915   1.558   0.484   3.730  0.1957 -0.6182 -0.3260
  500TIP3    H222916   1.549   0.516   3.878 -1.3904 -0.6106 -0.4081
  501TIP3   OH222917   5.730   3.345   1.917 -0.0357  0.1977  0.1797
  501TIP3    H122918   5.785   3.386   1.851  0.4209 -0.1875  0.3115
  501TIP3    H222919   5.728   3.253   1.893 -1.5440  0.3756 -0.4576
  502TIP3   OH222920   3.852   3.908  16.898 -0.5622 -0.0862 -0.1884
  502TIP3    H122921   3.878   3.997  16.875  0.8097  0.3153  2.5646
  502TIP3    H222922   3.913   3.852  16.849 -1.3737  0.4031 -1.8587
  503TIP3   OH222923   5.392   6.386  10.975  0.1188 -0.5663  0.2064
  503TIP3    H122924   5.328   6.344  10.917 -0.0706  0.0593 -0.0497
  503TIP3    H222925   5.366   6.479  10.975 -0.5228 -0.7151  2.1356
  504TIP3   OH222926   2.165   2.871   0.315  0.3338  0.1038 -0.0984
  504TIP3    H122927   2.116   2.924   0.377  1.9382  1.1156  0.3636
  504TIP3    H222928   2.167   2.924   0.235  1.2206  0.3676  0.0952
  505TIP3   OH222929   5.461   1.981   0.915 -0.0658 -0.1279 -0.2542
  505TIP3    H122930   5.423   1.895   0.894 -0.6249  0.2580 -0.8805
  505TIP3    H222931   5.555   1.965   0.919 -0.2997 -1.3810  2.5756
  506TIP3   OH222932   1.223   2.292   1.175  0.0939  0.6425 -0.6088
  506TIP3    H122933   1.218   2.254   1.088  1.4016  1.3170 -0.9938
  506TIP3    H222934   1.294   2.244   1.218  1.2733  2.1000 -0.8562
  507TIP3   OH222935   5.504   5.675   5.721 -0.5005 -0.6124 -0.0638
  507TIP3    H122936   5.565   5.601   5.720  0.1945 -0.0468 -0.4819
  507TIP3    H222937   5.482   5.689   5.629 -1.5529 -1.0308  0.1098
  508TIP3   OH222938   3.018   2.342  12.000  0.2679  0.5648  0.1895
  508TIP3    H122939   3.065   2.318  12.080 -0.0703  0.2250  0.2928
  508TIP3    H222940   2.967   2.420  12.024 -0.7962 -0.2484  0.6861
  509TIP3   OH222941   4.539   2.111  11.396 -0.2867  0.1312  0.0857
  509TIP3    H122942   4.527   2.162  11.477 -0.9347 -1.8885  1.3339
  509TIP3    H222943   4.461   2.056  11.391  0.0409 -0.2369 -1.6252
  510TIP3   OH222944   1.945   4.569  15.553 -0.0572  0.4562 -0.1892
  510TIP3    H122945   1.954   4.528  15.466 -0.8706  1.2149 -0.6481
  510TIP3    H222946   1.878   4.516  15.597  0.7293 -0.2515  0.1947
  511TIP3   OH222947   0.845   0.035  12.778 -0.4223 -0.3774 -0.6353
  511TIP3    H122948   0.777   0.095  12.811 -2.2605 -1.5739 -2.0181
  511TIP3    H222949   0.905   0.091  12.729  0.4773  0.9268  1.8291
  512TIP3   OH222950   1.967   2.793  11.523 -0.6749  0.0383 -0.0988
  512TIP3    H122951   2.038   2.842  11.482 -0.4735  0.0048  0.2051
  512TIP3    H222952   1.909   2.771  11.451 -2.0337  2.7490  0.0405
  513TIP3   OH222953   5.615   2.827  16.712 -0.5089  0.5214  0.1532
  513TIP3    H122954   5.696   2.851  16.756 -0.6606 -0.9111  1.2690
  513TIP3    H222955   5.584   2.910  16.674  1.0535  1.2437  0.3524
  514TIP3   OH222956   1.857   0.030  12.901 -0.6063 -0.5183  0.3977
  514TIP3    H122957   1.952   0.038  12.904 -0.5590 -0.9194 -0.0051
  514TIP3    H222958   1.837  -0.041  12.961 -0.7269  0.1160  1.1269
  515TIP3   OH222959   1.920   4.163   3.544  0.3815 -0.0057 -1.0536
  515TIP3    H122960   1.879   4.077   3.535  0.8530 -0.5051  0.9452
  515TIP3    H222961   1.853   4.217   3.586  0.8153 -0.0541 -0.2741
  516TIP3   OH222962   6.610   4.482  15.710 -0.6294 -0.3063 -0.3798
  516TIP3    H122963   6.688   4.427  15.711  0.9744  1.8424 -0.0041
  516TIP3    H222964   6.643   4.572  15.705 -3.0845  0.7061 -0.2802
  517TIP3   OH222965   1.537   2.897   4.621  0.2605 -0.3515 -0.0037
  517TIP3    H122966   1.490   2.831   4.673  0.1179 -0.0230  0.2885
  517TIP3    H222967   1.488   2.901   4.539 -0.7482  0.5815  0.6049
  518TIP3   OH222968   2.829   1.332  15.326  0.0651 -0.2080  0.4865
  518TIP3    H122969   2.741   1.361  15.300  0.5854  0.8508 -0.1182
  518TIP3    H222970   2.860   1.280  15.252  0.1041 -0.2486  0.5315
  519TIP3   OH222971   4.238   5.794  13.972  0.5905 -0.3377 -0.2945
  519TIP3    H122972   4.237   5.851  14.049  0.6091  0.0586 -0.5833
  519TIP3    H222973   4.213   5.852  13.899  0.4376 -0.7378 -0.5648
  520TIP3   OH222974   1.579   1.342  16.010  0.1492 -0.1740  0.2981
  520TIP3    H122975   1.585   1.419  15.955 -0.0530 -0.3261  0.0607
  520TIP3    H222976   1.635   1.277  15.968 -0.5479 -0.5182 -0.1183
  521TIP3   OH222977   2.734   5.457  11.188  0.0214  0.2945  0.4620
  521TIP3    H122978   2.739   5.533  11.130  0.1885  0.6057  0.8860
  521TIP3    H222979   2.739   5.382  11.128  0.2264  0.6128  0.0721
  522TIP3   OH222980   5.252   6.631   0.392 -0.3588 -0.6697  0.2845
  522TIP3    H122981   5.182   6.693   0.409 -2.0313 -2.5410  0.5796
  522TIP3    H222982   5.209   6.558   0.347  1.7068 -1.2076 -0.9609
  523TIP3   OH222983   4.314   6.568  13.794 -0.1388  0.4756 -0.5775
  523TIP3    H122984   4.400   6.583  13.833  0.4349  0.7335 -1.8894
  523TIP3    H222985   4.253   6.619  13.848  0.4270 -0.1742  0.7141
  524TIP3   OH222986   5.193   3.836  11.353  0.4726 -0.0010 -0.4255
  524TIP3    H122987   5.141   3.759  11.332 -1.6192  1.2486 -0.0976
  524TIP3    H222988   5.222   3.821  11.444 -1.1755  0.2096  0.1726
  525TIP3   OH222989   2.727   2.723  15.851  0.2663 -0.6229  0.0901
  525TIP3    H122990   2.800   2.731  15.789 -0.6495  0.7814 -0.8643
  525TIP3    H222991   2.674   2.652  15.816  0.2926 -0.5231 -0.1538
  526TIP3   OH222992   0.572   2.472  13.454 -0.1289 -0.2286  0.1721
  526TIP3    H122993   0.625   2.542  13.417  0.1602 -0.9649 -0.8370
  526TIP3    H222994   0.609   2.391  13.419 -1.1632 -0.8305  0.3995
  527TIP3   OH222995   6.669   4.775   5.880  0.6092  0.7992  0.3603
  527TIP3    H122996   6.657   4.751   5.971  0.8596  0.3465  0.2778
  527TIP3    H222997   6.755   4.740   5.857 -0.3494 -1.0891 -0.6641
  528TIP3   OH222998   6.204   0.501  12.664 -0.8621 -0.0867 -0.2681
  528TIP3    H122999   6.248   0.576  12.704 -0.9041 -0.2821  0.1405
  528TIP3    H223000   6.215   0.430  12.727 -1.1176 -0.3343 -0.5023
  529TIP3   OH223001   3.626   1.862   2.690 -0.2776  0.4768  0.1759
  529TIP3    H123002   3.597   1.838   2.777 -0.6990  0.7781  0.1207
  529TIP3    H223003   3.627   1.779   2.641 -0.0137  0.3056  0.4725
  530TIP3   OH223004   0.720   0.153   1.155  0.1187 -0.5015  0.2495
  530TIP3    H123005   0.777   0.126   1.227 -1.4174  0.6485  1.9611
  530TIP3    H223006   0.656   0.082   1.147  0.6934 -0.9539 -0.4827
  531TIP3   OH223007   4.971   0.942   5.446 -0.1826  0.2243 -0.3852
  531TIP3    H123008   4.965   1.032   5.415 -1.8781  0.8180  1.4581
  531TIP3    H223009   5.032   0.945   5.519 -0.0610 -0.1716 -0.4661
  532TIP3   OH223010   1.251   3.426   0.011  0.0815  0.2035  0.3041
  532TIP3    H123011   1.241   3.332   0.027  1.5579  0.4558  3.4956
  532TIP3    H223012   1.346   3.440   0.011 -0.1197  1.7325  0.1379
  533TIP3   OH223013   0.415   0.430  11.124 -0.0776  0.1432  0.4073
  533TIP3    H123014   0.391   0.468  11.039 -0.2640 -1.2467 -0.1893
  533TIP3    H223015   0.453   0.345  11.102  0.6672  0.1315  1.6770
  534TIP3   OH223016   1.783   0.555  14.959  0.1452  0.4718 -0.1335
  534TIP3    H123017   1.825   0.470  14.976 -3.4234 -1.2173  1.2195
  534TIP3    H223018   1.740   0.544  14.874 -0.2434  0.9725 -0.0057
  535TIP3   OH223019   0.629   5.093   0.660 -0.3052  0.2788 -0.0591
  535TIP3    H123020   0.543   5.057   0.681  0.0298 -0.0296  0.8442
  535TIP3    H223021   0.628   5.181   0.696 -0.2029  0.2326  0.0581
  536TIP3   OH223022   0.409   3.966  14.753 -0.1327  0.8867  0.3771
  536TIP3    H123023   0.503   3.979  14.751  0.0322 -0.2980  0.2971
  536TIP3    H223024   0.374   4.051  14.783  1.0613  0.7859  2.1717
  537TIP3   OH223025   0.152   5.904  13.791  0.0634  0.3528 -0.8858
  537TIP3    H123026   0.157   5.991  13.753 -3.1937  1.6016  1.1868
  537TIP3    H223027   0.185   5.914  13.880 -1.3952 -0.2159 -0.2508
  538TIP3   OH223028   2.594   3.307   1.226 -0.0080  0.0507 -0.3808
  538TIP3    H123029   2.570   3.219   1.196  0.3011 -0.3200  0.4424
  538TIP3    H223030   2.689   3.311   1.212 -0.0217  0.2499 -0.4123
  539TIP3   OH223031   3.628   4.589   3.774 -0.3305 -0.0827  0.3813
  539TIP3    H123032   3.618   4.535   3.695 -1.5250  1.8033 -0.8463
  539TIP3    H223033   3.577   4.544   3.841 -1.4817 -0.4126 -0.6723
  540TIP3   OH223034   3.582   0.724  13.049  0.3967 -0.1068 -0.3593
  540TIP3    H123035   3.495   0.744  13.085  0.8074 -0.1190  0.6678
  540TIP3    H223036   3.601   0.798  12.992 -0.0973  0.1238 -0.2381
  541TIP3   OH223037   1.699   5.443   5.968 -0.2230  0.4127 -0.0149
  541TIP3    H123038   1.634   5.505   5.934 -0.2935 -0.5650 -1.8210
  541TIP3    H223039   1.776   5.496   5.986 -1.5660  1.6796  2.5834
  542TIP3   OH223040   0.136   1.225   5.447  0.3054 -0.4343  0.0963
  542TIP3    H123041   0.052   1.269   5.456  1.2743  1.5639 -0.0097
  542TIP3    H223042   0.117   1.148   5.393 -1.5977 -0.5749  0.8950
  543TIP3   OH223043   6.126   0.370  11.469 -0.8730 -0.4620  0.0458
  543TIP3    H123044   6.088   0.283  11.480 -0.6897 -1.2377 -3.9402
  543TIP3    H223045   6.064   0.416  11.412 -0.1837  1.4728  0.7909
  544TIP3   OH223046   1.550   2.410   2.003  0.0087 -0.4321 -0.5991
  544TIP3    H123047   1.476   2.454   1.960  0.0496 -1.1755 -1.4745
  544TIP3    H223048   1.522   2.319   2.010  0.3341 -0.4700  0.2465
  545TIP3   OH223049   1.342   3.617  11.565 -1.1207 -0.2642 -0.0194
  545TIP3    H123050   1.333   3.682  11.495 -1.5305 -1.1526 -0.8218
  545TIP3    H223051   1.301   3.538  11.529 -0.4349 -1.0306  0.8444
  546TIP3   OH223052   5.502   3.137   2.398 -0.5647 -0.5777  0.5584
  546TIP3    H123053   5.468   3.223   2.374  0.2718 -0.1073  0.9964
  546TIP3    H223054   5.537   3.149   2.486  0.1552 -1.1983  0.3705
  547TIP3   OH223055   5.926   1.113  17.128 -0.3607  0.5923 -0.1632
  547TIP3    H123056   5.865   1.044  17.103 -0.9792  1.7965 -2.2255
  547TIP3    H223057   6.002   1.099  17.073 -0.5799  1.6585 -0.7569
  548TIP3   OH223058   6.298   1.782  11.453  0.3166 -0.4395 -0.5466
  548TIP3    H123059   6.280   1.868  11.492 -1.4044 -0.7930 -0.4735
  548TIP3    H223060   6.376   1.796  11.399  0.7063  0.8926  0.3092
  549TIP3   OH223061   1.458   6.706  15.684 -0.9723  0.2876 -0.2513
  549TIP3    H123062   1.398   6.729  15.613 -0.8379 -0.5435 -0.6392
  549TIP3    H223063   1.434   6.766  15.755 -1.5018  0.7297 -0.7917
  550TIP3   OH223064   6.485   3.669  11.279 -0.2839  0.0684  0.3740
  550TIP3    H123065   6.460   3.729  11.208 -0.4986 -1.0178 -0.4984
  550TIP3    H223066   6.471   3.720  11.359  1.0717  1.7351 -0.3841
  551TIP3   OH223067   1.515   5.317   4.367  0.1588  0.2968  0.0240
  551TIP3    H123068   1.529   5.343   4.458  0.8979  0.3011 -0.0815
  551TIP3    H223069   1.421   5.325   4.353  0.1009  0.7317  0.6530
  552TIP3   OH223070   1.777   4.039  13.887 -0.0901  0.0376 -0.2514
  552TIP3    H123071   1.718   4.113  13.868 -0.1527  1.1197  3.4922
  552TIP3    H223072   1.729   3.962  13.857 -1.1778  1.2447 -1.8195
  553TIP3   OH223073   6.163   5.720   5.532 -0.1342 -0.5069 -0.0767
  553TIP3    H123074   6.119   5.668   5.600 -1.4320 -0.7855 -1.0881
  553TIP3    H223075   6.153   5.810   5.561  1.8819 -0.7417  1.5502
  554TIP3   OH223076   0.234   3.284  11.931 -0.0580 -0.4394 -0.1322
  554TIP3    H123077   0.303   3.346  11.908  0.4576 -0.7584  0.5175
  554TIP3    H223078   0.250   3.263  12.023 -1.2356 -0.2542  0.1363
  555TIP3   OH223079   0.171   4.034   5.184  0.3462 -0.7400 -0.1624
  555TIP3    H123080   0.140   3.989   5.105  0.0601 -0.5884 -0.1411
  555TIP3    H223081   0.264   4.015   5.187 -0.1811 -3.7089  1.3734
  556TIP3   OH223082   5.640   0.940  13.756 -0.6870  0.4486  0.1206
  556TIP3    H123083   5.568   0.942  13.693  1.4049 -2.1127 -2.6707
  556TIP3    H223084   5.658   0.847  13.770  0.3202  0.9573  2.9803
  557TIP3   OH223085   1.155   5.164  12.588  0.1642  0.1118  0.5725
  557TIP3    H123086   1.112   5.131  12.667 -0.5816 -0.0422  0.1121
  557TIP3    H223087   1.155   5.259  12.599 -0.4615  0.1239  0.5004
  558TIP3   OH223088   6.707   3.621   5.619 -0.4983  0.3919  0.0324
  558TIP3    H123089   6.796   3.610   5.585 -0.6526 -0.0532 -0.2485
  558TIP3    H223090   6.710   3.586   5.708 -1.0867 -2.5801 -1.0031
  559TIP3   OH223091   6.417   3.904   0.689 -0.1968 -0.1022  0.1922
  559TIP3    H123092   6.327   3.892   0.720 -0.4865 -0.9149 -0.9185
  559TIP3    H223093   6.447   3.816   0.667  0.9874  0.1238  0.8140
  560TIP3   OH223094   3.007   4.316   3.723  0.0860  0.4411 -0.3612
  560TIP3    H123095   3.032   4.234   3.681  0.1918  0.9146 -1.2551
  560TIP3    H223096   3.014   4.298   3.817  2.0882  0.0142 -0.5317
  561TIP3   OH223097   0.365   4.065  15.824  0.5432 -0.0826  0.0934
  561TIP3    H123098   0.349   4.055  15.730  1.9456  1.5909 -0.3876
  561TIP3    H223099   0.335   4.154  15.843  0.1539 -0.4507  1.2729
  562TIP3   OH223100   0.578   0.473  11.389  0.5532 -0.1529 -0.2336
  562TIP3    H123101   0.661   0.510  11.359 -0.2696  3.5143  1.4409
  562TIP3    H223102   0.534   0.444  11.309  2.3963  0.1088 -1.3983
  563TIP3   OH223103   2.378   2.311  15.790  0.0322 -0.4605 -0.4990
  563TIP3    H123104   2.325   2.380  15.749  1.2455  1.6242  1.2070
  563TIP3    H223105   2.444   2.289  15.725  2.3179  3.2174  0.2802
  564TIP3   OH223106   4.677   1.497   3.675  0.6667  0.1321 -0.3158
  564TIP3    H123107   4.608   1.559   3.701 -0.8958 -1.2345 -0.9824
  564TIP3    H223108   4.678   1.432   3.745  1.2596  0.1192 -0.3368
  565TIP3   OH223109   6.185   4.819  16.342  0.1011 -0.1453 -0.8006
  565TIP3    H123110   6.214   4.860  16.261 -0.2028 -0.7091 -1.2012
  565TIP3    H223111   6.090   4.810  16.332 -0.5785  3.1854  1.1668
  566TIP3   OH223112   1.648   5.773   3.937  0.2162  0.9083  0.0078
  566TIP3    H123113   1.646   5.867   3.953  0.2708  0.7565  0.9711
  566TIP3    H223114   1.730   5.758   3.890  0.5368  1.2707  0.4385
  567TIP3   OH223115   3.760   0.984   4.016  0.2284  0.3274 -0.3662
  567TIP3    H123116   3.760   0.889   4.003 -0.5464  0.2730  0.0211
  567TIP3    H223117   3.686   1.001   4.073  1.3841  0.9723  1.0014
  568TIP3   OH223118   6.427   2.221   2.160  0.2133  0.0825  0.1819
  568TIP3    H123119   6.364   2.243   2.229  1.0302 -0.1995  1.0413
  568TIP3    H223120   6.412   2.128   2.143  0.4447 -0.0059  0.4476
  569TIP3   OH223121   4.198   2.703   1.445 -0.6388 -0.1561 -0.1679
  569TIP3    H123122   4.268   2.648   1.481  0.8081  1.1539 -0.9005
  569TIP3    H223123   4.178   2.663   1.361  0.0231  0.1076 -0.4561
  570TIP3   OH223124   1.101   0.985  15.420  0.2995  0.3674 -0.3398
  570TIP3    H123125   1.054   0.925  15.362  0.5116 -0.0370 -0.1002
  570TIP3    H223126   1.166   0.930  15.464  0.8619  0.8811 -0.5175
  571TIP3   OH223127   4.712   3.332  15.845 -0.0158  0.1511 -0.0628
  571TIP3    H123128   4.706   3.427  15.849 -0.2232  0.1394 -0.0698
  571TIP3    H223129   4.671   3.309  15.761 -0.1914  0.0373  0.0543
  572TIP3   OH223130   1.295   3.810   0.851 -0.4472 -0.4856  0.3665
  572TIP3    H123131   1.259   3.756   0.921 -1.2640 -0.0600  0.2841
  572TIP3    H223132   1.277   3.900   0.878  1.7497 -0.1717  0.9682
  573TIP3   OH223133   5.854   1.808   3.222 -0.2866 -0.3806  0.1256
  573TIP3    H123134   5.770   1.788   3.181 -0.5875  1.5056 -0.2971
  573TIP3    H223135   5.850   1.767   3.308 -2.0790  0.4917  0.5014
  574TIP3   OH223136   3.251   3.138   2.452  0.2260  0.2245  0.1026
  574TIP3    H123137   3.192   3.118   2.525 -0.1977 -0.2465 -0.3558
  574TIP3    H223138   3.204   3.106   2.375  0.8101  0.4232 -0.3378
  575TIP3   OH223139   4.926   6.385  16.122 -0.9584 -0.1498  0.3211
  575TIP3    H123140   4.831   6.386  16.117 -0.8794  0.4415 -1.7490
  575TIP3    H223141   4.956   6.371  16.032  0.9218  2.4132  0.4093
  576TIP3   OH223142   0.394   4.001   6.460  0.2525  1.0342 -0.6149
  576TIP3    H123143   0.352   4.083   6.435 -1.8579 -0.3820 -2.0207
  576TIP3    H223144   0.350   3.934   6.407  1.4740 -1.0937  0.9100
  577TIP3   OH223145   2.128   3.276   1.720  0.6527 -0.1496  0.0160
  577TIP3    H123146   2.183   3.204   1.687  1.1303  0.4745 -0.5843
  577TIP3    H223147   2.053   3.232   1.759  0.1469 -0.9525 -1.7337
  578TIP3   OH223148   4.963   2.631  12.162  0.2281 -0.6643  0.6334
  578TIP3    H123149   5.010   2.671  12.090 -0.4021 -0.4153  0.3517
  578TIP3    H223150   4.877   2.673  12.161 -0.4414 -1.9844  0.3539
  579TIP3   OH223151   6.141   4.147   5.245 -0.8119  0.1428 -0.1540
  579TIP3    H123152   6.060   4.145   5.297 -2.3745 -0.6244 -2.4629
  579TIP3    H223153   6.111   4.144   5.154  1.8006  1.5204 -1.1536
  580TIP3   OH223154   0.283   5.837   3.332 -0.2246  0.6530  0.4618
  580TIP3    H123155   0.310   5.924   3.302 -0.5020  0.8578  0.7987
  580TIP3    H223156   0.188   5.842   3.337 -0.3737 -0.1242 -0.9052
  581TIP3   OH223157   5.597   4.749  11.314  0.1136 -0.0207  0.1867
  581TIP3    H123158   5.666   4.810  11.339 -0.7820  0.8996  0.5159
  581TIP3    H223159   5.601   4.679  11.379  0.5846  0.1489  0.3401
  582TIP3   OH223160   3.715   5.896  10.704 -0.1561  0.5025  0.4742
  582TIP3    H123161   3.721   5.991  10.689  1.4969  0.3860  0.1667
  582TIP3    H223162   3.624   5.881  10.729 -1.7269  1.5412 -3.7387
  583TIP3   OH223163   1.395   3.375  15.226  0.1129  0.5537  0.0857
  583TIP3    H123164   1.433   3.421  15.302  1.0868  0.0995 -0.1159
  583TIP3    H223165   1.431   3.287  15.231 -0.9078  0.1142 -0.1432
  584TIP3   OH223166   6.512   4.183   1.293  0.2877  0.0181  0.4782
  584TIP3    H123167   6.535   4.095   1.324  0.9656  0.5218  1.4652
  584TIP3    H223168   6.569   4.197   1.218 -0.2860 -0.6286 -0.0912
  585TIP3   OH223169   5.255   2.976   1.285 -0.3274 -0.0482 -0.1285
  585TIP3    H123170   5.345   2.948   1.268 -0.7672 -0.4669 -2.0072
  585TIP3    H223171   5.259   3.072   1.286  0.7297  0.0434  3.6870
  586TIP3   OH223172   5.924   5.107   2.752  0.2102 -0.6895 -0.3637
  586TIP3    H123173   5.883   5.186   2.715 -2.8810 -2.0121 -0.0908
  586TIP3    H223174   5.918   5.118   2.847  1.8112 -0.3352 -0.2764
  587TIP3   OH223175   1.619   1.224   5.729 -0.1096 -0.0128 -0.0461
  587TIP3    H123176   1.670   1.248   5.806 -0.2732  1.3952 -0.3615
  587TIP3    H223177   1.602   1.130   5.740  0.0319  0.1261  1.5237
  588TIP3   OH223178   2.500   5.945   3.079  0.1978  0.3980  0.1894
  588TIP3    H123179   2.429   5.891   3.046  1.0218 -0.6125  0.0080
  588TIP3    H223180   2.500   6.022   3.023 -1.4926  1.0019  0.9427
  589TIP3   OH223181   3.910   3.122  17.272  0.2325 -0.0200 -0.4196
  589TIP3    H123182   3.838   3.153  17.328  0.9702 -1.2419  1.2922
  589TIP3    H223183   3.869   3.059  17.213 -0.1397 -0.6985  0.5346
  590TIP3   OH223184   5.863   1.262   3.783 -0.3371  0.2165 -0.0835
  590TIP3    H123185   5.917   1.199   3.736 -1.4461 -1.1521  0.4092
  590TIP3    H223186   5.905   1.347   3.766  0.7740 -0.5454 -1.3629
  591TIP3   OH223187   1.168   5.315   0.202 -0.0134  0.4535 -0.3071
  591TIP3    H123188   1.257   5.283   0.210  0.9790  2.7867 -1.0948
  591TIP3    H223189   1.142   5.293   0.112  0.1016  0.5758 -0.3694
  592TIP3   OH223190   4.697   4.390  16.383  0.1344  0.6995  0.4607
  592TIP3    H123191   4.607   4.422  16.378  0.9662  3.0098 -2.0653
  592TIP3    H223192   4.751   4.465  16.357  2.6011 -1.3558 -0.8308
  593TIP3   OH223193   4.570   5.699  16.060  0.2327  0.1097  0.3346
  593TIP3    H123194   4.518   5.658  15.991  3.9220 -1.0083 -2.1036
  593TIP3    H223195   4.609   5.777  16.018  1.5675  0.1348  1.5241
  594TIP3   OH223196   1.509   1.352   0.085 -0.3800 -0.2406  0.1697
  594TIP3    H123197   1.454   1.338   0.162  0.8523 -1.0632  0.9409
  594TIP3    H223198   1.592   1.310   0.107 -0.0649 -0.7001 -1.7054
  595TIP3   OH223199   4.841   4.336  14.098  0.5317  0.3294 -0.4100
  595TIP3    H123200   4.910   4.279  14.065  1.5107  0.9603  0.4568
  595TIP3    H223201   4.882   4.382  14.172 -1.3815 -0.6856  1.3817
  596TIP3   OH223202   2.503   1.902   3.179  0.2288 -0.8593 -0.4772
  596TIP3    H123203   2.564   1.842   3.221  0.0227 -0.4474  0.4368
  596TIP3    H223204   2.508   1.880   3.086  1.8682 -0.7556 -0.4501
  597TIP3   OH223205   5.158   2.899  14.381  0.3415  0.0066  0.0282
  597TIP3    H123206   5.243   2.937  14.401  0.4607 -0.5166  0.5639
  597TIP3    H223207   5.095   2.963  14.413  0.5262  0.4056 -0.3891
  598TIP3   OH223208   3.285   1.634  14.573 -0.0494  0.1789  0.0181
  598TIP3    H123209   3.373   1.669  14.558  0.0719  0.0964  0.5427
  598TIP3    H223210   3.286   1.603  14.663 -0.6411  0.2408  0.0498
  599TIP3   OH223211   0.486   5.470  14.664  0.0780 -0.2452  0.3791
  599TIP3    H123212   0.462   5.467  14.757  1.4311 -2.4787  0.7033
  599TIP3    H223213   0.566   5.419  14.657  0.5921  0.7210 -1.8930
  600TIP3   OH223214   5.232   4.410  14.212 -0.6108  0.3555 -0.3151
  600TIP3    H123215   5.145   4.376  14.232 -0.7284 -0.1401 -1.6129
  600TIP3    H223216   5.290   4.335  14.220 -0.3861  0.5576 -0.0278
  601TIP3   OH223217   3.939   1.694   5.068 -0.3870  0.4168 -0.1492
  601TIP3    H123218   3.948   1.636   4.992 -0.0917 -0.9309  0.8832
  601TIP3    H223219   3.864   1.660   5.116 -0.8288  1.5159 -0.0262
  602TIP3   OH223220   3.199   1.600   2.681 -0.6610  0.5869 -0.3932
  602TIP3    H123221   3.202   1.687   2.721 -0.2698  1.1592 -1.6149
  602TIP3    H223222   3.271   1.600   2.618 -0.5948 -0.6637 -0.3430
  603TIP3   OH223223   1.263   0.125   2.691 -0.0156 -0.0674 -0.0041
  603TIP3    H123224   1.276   0.199   2.751 -1.8079  0.0372  0.3198
  603TIP3    H223225   1.329   0.061   2.716 -0.4233  0.1756  1.7831
  604TIP3   OH223226   2.698   2.775  12.662 -0.1788  0.7914 -0.6179
  604TIP3    H123227   2.689   2.853  12.717  0.0332  0.9581 -0.8167
  604TIP3    H223228   2.739   2.807  12.582  0.8183  0.3181 -0.3191
  605TIP3   OH223229   6.233   5.407  13.122 -0.2268  0.3026 -0.1320
  605TIP3    H123230   6.242   5.405  13.026  0.8705  0.5181 -0.0435
  605TIP3    H223231   6.213   5.499  13.141  0.6115  0.4833 -0.0802
  606TIP3   OH223232   0.852   0.918   3.554 -0.0636 -0.1650  0.1474
  606TIP3    H123233   0.798   0.916   3.633  0.5901 -1.2793  0.5906
  606TIP3    H223234   0.931   0.966   3.580 -0.9891  1.8762 -0.6303
  607TIP3   OH223235   2.411   1.176  11.472  0.1893 -0.3451 -0.1495
  607TIP3    H123236   2.416   1.181  11.568  1.8338  1.4212 -0.2678
  607TIP3    H223237   2.478   1.111  11.449 -1.9351 -2.7263 -0.0539
  608TIP3   OH223238   0.420   6.156   4.838 -0.2119  0.7529  0.3194
  608TIP3    H123239   0.513   6.144   4.823 -0.6531 -2.5852 -0.5567
  608TIP3    H223240   0.406   6.126   4.928 -0.3899  1.5428  0.5552
  609TIP3   OH223241   5.631   5.405   2.447  0.0130  0.4338 -0.1663
  609TIP3    H123242   5.552   5.380   2.399  0.2196  1.1826 -0.9259
  609TIP3    H223243   5.688   5.442   2.380  0.1728  1.8463  0.7084
  610TIP3   OH223244   2.253   5.539   4.200 -0.0317  0.6092 -0.1282
  610TIP3    H123245   2.162   5.541   4.173 -0.2410  1.1054  0.5948
  610TIP3    H223246   2.259   5.463   4.258 -0.3680  1.4854  1.0957
  611TIP3   OH223247   4.887   0.121   3.020 -0.0377  0.4165  0.0695
  611TIP3    H123248   4.944   0.159   2.952  0.4760 -1.3896 -0.5525
  611TIP3    H223249   4.943   0.060   3.067 -1.6144 -2.0773 -1.1149
  612TIP3   OH223250   0.525   1.110  16.901 -0.0183 -0.3952  0.0178
  612TIP3    H123251   0.436   1.089  16.929  0.5396 -0.7297  1.7002
  612TIP3    H223252   0.580   1.081  16.974  1.5162 -0.6543 -1.1900
  613TIP3   OH223253   1.390   4.352   3.733 -0.0637 -0.0622 -0.0704
  613TIP3    H123254   1.457   4.331   3.668  0.9596  1.4557  0.4538
  613TIP3    H223255   1.346   4.429   3.698 -1.2165 -0.7270 -0.1439
  614TIP3   OH223256   0.725   4.853   1.680  0.3196  0.8964  0.8488
  614TIP3    H123257   0.673   4.926   1.647  1.8459  1.3952 -0.5684
  614TIP3    H223258   0.698   4.778   1.627  1.3537  1.2671 -0.2464
  615TIP3   OH223259   6.547   2.175   2.953 -0.3337 -0.0888  0.0830
  615TIP3    H123260   6.591   2.199   2.872 -1.6462  2.1485 -0.0493
  615TIP3    H223261   6.481   2.243   2.966  1.7328  1.5157  4.5721
  616TIP3   OH223262   3.754   4.368   0.650  0.5155  0.2117  0.3061
  616TIP3    H123263   3.663   4.357   0.623 -0.5280  1.5599  2.8736
  616TIP3    H223264   3.777   4.456   0.623  1.9868 -0.8664 -2.4151
  617TIP3   OH223265   5.161   0.431  12.196 -0.1740  0.0201 -0.3336
  617TIP3    H123266   5.218   0.505  12.216 -0.6722  0.4699 -0.5258
  617TIP3    H223267   5.116   0.458  12.115  0.6508 -1.0745 -1.1863
  618TIP3   OH223268   5.202   1.572   1.261  0.1724 -0.5843  0.2211
  618TIP3    H123269   5.283   1.608   1.300 -0.5345  0.3742  0.8760
  618TIP3    H223270   5.226   1.484   1.233  1.6965 -0.0044 -0.4419
  619TIP3   OH223271   5.100   3.243  16.246 -0.3650 -0.1309 -0.0135
  619TIP3    H123272   5.172   3.300  16.274 -0.6989 -0.4256  1.5785
  619TIP3    H223273   5.119   3.223  16.155  2.2936 -1.2698  0.6948
  620TIP3   OH223274   6.619   4.148   0.855  0.5482 -0.0869  0.3559
  620TIP3    H123275   6.542   4.199   0.827  0.1004 -1.4466 -0.9845
  620TIP3    H223276   6.584   4.063   0.880  1.5543 -0.4878  0.4376
  621TIP3   OH223277   5.895   2.826   0.500 -1.0108  0.7662 -0.2599
  621TIP3    H123278   5.873   2.764   0.431  0.5533  0.5106 -0.5537
  621TIP3    H223279   5.960   2.781   0.553 -1.6176  1.2607  0.9380
  622TIP3   OH223280   2.460   3.180  15.348 -0.2803 -0.7550 -0.0419
  622TIP3    H123281   2.539   3.225  15.319  0.0401 -1.8585 -0.9242
  622TIP3    H223282   2.440   3.219  15.433  0.2354  0.7185 -0.5794
  623TIP3   OH223283   4.934   1.751  16.775 -0.2674 -0.6559 -0.1260
  623TIP3    H123284   4.995   1.810  16.820 -0.4140  1.0540 -2.0014
  623TIP3    H223285   4.970   1.663  16.790  1.2228  0.0919  0.9430
  624TIP3   OH223286   1.134   2.470  16.291  0.5243 -0.3809 -0.6374
  624TIP3    H123287   1.173   2.444  16.375  0.8672  0.5136 -0.5081
  624TIP3    H223288   1.049   2.508  16.315 -0.0971 -1.5744 -0.8484
  625TIP3   OH223289   6.115   3.154   6.227 -0.1885 -0.3599  0.2096
  625TIP3    H123290   6.051   3.156   6.298 -1.6142 -1.0440 -0.9911
  625TIP3    H223291   6.173   3.081   6.248 -0.9405 -0.9072  0.4051
  626TIP3   OH223292   1.789   6.055   0.263  0.3371 -0.2645  0.0698
  626TIP3    H123293   1.697   6.043   0.240  0.2779  1.0137 -0.4684
  626TIP3    H223294   1.790   6.056   0.359 -0.2314 -0.1281  0.0790
  627TIP3   OH223295   6.107   0.415   2.352  0.1569 -0.0562  0.1105
  627TIP3    H123296   6.044   0.368   2.298  2.0204  0.0952 -2.3641
  627TIP3    H223297   6.190   0.408   2.305  1.9493  0.1444  2.9773
  628TIP3   OH223298   6.754   6.382  14.012  0.2681 -0.2132 -0.6402
  628TIP3    H123299   6.756   6.408  14.104  0.6692 -1.0228 -0.4036
  628TIP3    H223300   6.661   6.383  13.988  0.2517  1.1738 -0.5933
  629TIP3   OH223301   1.717   0.984  15.123 -0.2202  0.0220  0.3249
  629TIP3    H123302   1.640   1.020  15.079 -1.2762 -2.4887 -0.0783
  629TIP3    H223303   1.718   0.892  15.097  1.7132 -0.5146  2.0451
  630TIP3   OH223304   2.929   0.283  16.095  0.0608 -0.7023 -0.7380
  630TIP3    H123305   2.945   0.210  16.155  0.9211 -1.6010 -2.0104
  630TIP3    H223306   2.852   0.256  16.045  0.3730 -0.7436 -1.2007
  631TIP3   OH223307   1.046   5.342  14.942 -0.2451  0.0010 -0.2167
  631TIP3    H123308   1.042   5.309  14.852  2.2587 -1.2764  0.0631
  631TIP3    H223309   1.111   5.413  14.939  0.0160 -0.1892  0.6110
  632TIP3   OH223310   6.764   1.962  13.222 -0.0530 -0.0131  0.0689
  632TIP3    H123311   6.826   1.892  13.202  0.3650 -0.5580  2.8432
  632TIP3    H223312   6.814   2.043  13.208  0.4210 -0.3550 -0.2484
  633TIP3   OH223313   0.124   5.958  11.254  0.0995 -0.5176 -0.0278
  633TIP3    H123314   0.049   5.905  11.279  1.0593 -1.6683  0.5360
  633TIP3    H223315   0.127   6.027  11.321 -1.3617  0.5146 -0.9694
  634TIP3   OH223316   6.515   6.596  13.159  0.0531  0.2371  0.0799
  634TIP3    H123317   6.501   6.524  13.220 -0.1711 -0.8261 -1.1776
  634TIP3    H223318   6.427   6.623  13.132  0.1312  1.0772  0.6376
  635TIP3   OH223319   1.468   4.816   5.086  0.2963  0.2049  0.5095
  635TIP3    H123320   1.463   4.898   5.037  1.2383  0.6128  1.0766
  635TIP3    H223321   1.556   4.816   5.124  0.2992 -1.0629  0.5324
  636TIP3   OH223322   3.049   5.089   1.810  0.2602 -0.2363  0.3498
  636TIP3    H123323   3.075   5.179   1.827 -0.3701  0.0353 -0.0651
  636TIP3    H223324   3.094   5.065   1.729  0.9977 -0.5451  0.8473
  637TIP3   OH223325   0.630   3.845   1.641  0.3838 -0.2344  0.0586
  637TIP3    H123326   0.683   3.837   1.562  0.7913 -1.8384  0.4783
  637TIP3    H223327   0.658   3.928   1.680  2.8474 -1.1795  0.4512
  638TIP3   OH223328   5.975   2.778  11.482  0.6341  0.4946  0.0542
  638TIP3    H123329   6.045   2.714  11.494 -0.6263 -1.5009 -2.2842
  638TIP3    H223330   5.894   2.727  11.494 -0.4638  2.4411  1.4245
  639TIP3   OH223331   0.377   5.991   2.360  0.5363 -0.1757  0.0828
  639TIP3    H123332   0.296   6.038   2.338  0.8282  1.1219  1.6098
  639TIP3    H223333   0.429   5.995   2.280 -0.1833  0.5621 -0.3688
  640TIP3   OH223334   3.495   3.335   2.173 -0.6525  0.4592 -0.7907
  640TIP3    H123335   3.422   3.274   2.177  0.7145 -1.2367 -0.7660
  640TIP3    H223336   3.516   3.342   2.080 -0.4239  0.4018 -0.7454
  641TIP3   OH223337   4.520   1.676   1.072  0.0609  0.0429  0.3454
  641TIP3    H123338   4.506   1.766   1.101 -0.0411  0.1040  0.1085
  641TIP3    H223339   4.576   1.637   1.139 -1.5229 -0.3186  1.5374
  642TIP3   OH223340   3.917   2.646  13.767 -0.1232 -0.1225  0.0062
  642TIP3    H123341   3.920   2.693  13.850 -0.6174  0.5150 -0.3287
  642TIP3    H223342   3.825   2.626  13.753 -0.0625 -0.0880 -0.4669
  643TIP3   OH223343   4.086   2.127  11.365  0.5960  0.8423 -0.1805
  643TIP3    H123344   4.130   2.209  11.388  0.8024  0.5854  0.3574
  643TIP3    H223345   4.156   2.063  11.358  0.4508  0.7472 -0.7753
  644TIP3   OH223346   3.100   5.886   0.921 -0.3153  0.9310 -0.3207
  644TIP3    H123347   3.099   5.812   0.982 -0.1689  0.3736 -0.9848
  644TIP3    H223348   3.012   5.924   0.928 -0.4627  0.5613 -0.1389
  645TIP3   OH223349   2.062   0.662  12.029  0.0907 -0.1359  0.0890
  645TIP3    H123350   2.084   0.753  12.049 -1.1213  0.0653  0.6162
  645TIP3    H223351   2.110   0.643  11.948 -1.5223  1.8077 -1.4635
  646TIP3   OH223352   1.526   4.820   3.832  0.1736  0.0021 -0.4800
  646TIP3    H123353   1.568   4.788   3.911  1.7489  2.5454 -0.1743
  646TIP3    H223354   1.505   4.911   3.851 -0.3953  0.3754 -2.6235
  647TIP3   OH223355   5.869   2.449   1.927 -0.1587 -0.5582  0.2901
  647TIP3    H123356   5.775   2.453   1.944 -0.2051  0.3439 -0.1197
  647TIP3    H223357   5.901   2.381   1.987 -0.7304  0.6204  2.0352
  648TIP3   OH223358   2.493   1.525  15.897  0.1566  0.1913  0.1988
  648TIP3    H123359   2.580   1.527  15.934  0.5214 -1.2077 -0.5102
  648TIP3    H223360   2.434   1.513  15.972  0.5447  1.3445  0.6938
  649TIP3   OH223361   1.646   6.674   6.731 -0.3142  0.2723  0.4266
  649TIP3    H123362   1.647   6.642   6.821  0.6012 -1.2160 -0.0793
  649TIP3    H223363   1.686   6.604   6.680 -0.3370  1.3040 -1.0764
  650TIP3   OH223364   5.619   4.819  12.962  0.1791 -0.1229  0.0259
  650TIP3    H123365   5.588   4.812  12.871  0.4761 -1.8000  0.0301
  650TIP3    H223366   5.697   4.764  12.966  0.8613  0.8660  1.0284
  651TIP3   OH223367   6.639   4.100  12.039 -0.2310  0.4564  0.5191
  651TIP3    H123368   6.559   4.095  12.092 -1.5015 -0.4786 -1.4003
  651TIP3    H223369   6.710   4.089  12.102 -1.6874 -0.9771  1.9979
  652TIP3   OH223370   4.466   6.258  14.528 -0.0117 -0.1331 -0.3825
  652TIP3    H123371   4.494   6.173  14.562 -0.2950 -0.6214 -1.3390
  652TIP3    H223372   4.371   6.253  14.525 -0.1623  0.8852  1.2147
  653TIP3   OH223373   2.074   1.003   1.604  0.1741 -0.2078  0.1305
  653TIP3    H123374   2.092   0.954   1.524  2.7510  1.2786 -0.3181
  653TIP3    H223375   2.017   1.075   1.575  0.8048  0.1164 -0.3430
  654TIP3   OH223376   1.025   1.024   1.894  0.4314  0.2762  0.0342
  654TIP3    H123377   1.109   1.000   1.857 -0.4347 -0.4680 -1.5590
  654TIP3    H223378   0.966   0.953   1.868 -0.7748  0.9817  0.7406
  655TIP3   OH223379   1.099   1.142   3.175  0.9067 -0.0379 -0.1226
  655TIP3    H123380   1.101   1.148   3.271 -0.3973  0.7637 -0.1229
  655TIP3    H223381   1.117   1.050   3.157 -0.4031 -0.5529  0.9897
  656TIP3   OH223382   2.167   4.960  16.504 -0.3756 -0.3339 -0.3916
  656TIP3    H123383   2.118   5.033  16.466 -0.7143  0.8534  2.0979
  656TIP3    H223384   2.107   4.886  16.500 -0.9267  0.1239 -0.8343
  657TIP3   OH223385   6.333   2.156  11.253  0.3811  0.1807 -0.1721
  657TIP3    H123386   6.419   2.198  11.240  0.0579  1.1708  0.7150
  657TIP3    H223387   6.313   2.117  11.168  1.6621  0.0207 -0.4275
  658TIP3   OH223388   1.231   1.907   6.301 -0.0840  0.2312 -0.1218
  658TIP3    H123389   1.195   1.980   6.351  0.8010  2.0080 -1.9225
  658TIP3    H223390   1.309   1.881   6.350  0.9262  2.1158 -0.6486
  659TIP3   OH223391   5.153   0.415  12.480 -0.0109  0.1874 -0.4660
  659TIP3    H123392   5.179   0.446  12.393  2.3593 -1.4520 -0.4394
  659TIP3    H223393   5.181   0.484  12.539  1.0889  0.0498 -0.7931
  660TIP3   OH223394   2.786   2.081  12.288 -0.0917  0.6475 -0.0842
  660TIP3    H123395   2.802   2.083  12.193  0.2863  0.6749 -0.0205
  660TIP3    H223396   2.822   2.163  12.320 -1.5716  1.3357 -0.1150
  661TIP3   OH223397   4.953   0.503   3.149 -0.3207 -0.0559  0.7027
  661TIP3    H123398   4.973   0.597   3.153 -0.1413 -0.1089  1.0631
  661TIP3    H223399   4.881   0.497   3.085 -0.3824  0.3337  0.7314
  662TIP3   OH223400   4.307   0.415   2.398  0.0880 -0.7191  0.3388
  662TIP3    H123401   4.340   0.491   2.349  1.5883 -2.0423 -0.8134
  662TIP3    H223402   4.382   0.385   2.449 -0.6574 -1.0954  1.2524
  663TIP3   OH223403   5.421   3.154   4.526  0.2182  0.4578  0.0067
  663TIP3    H123404   5.406   3.206   4.447  0.7601  1.8010  0.7402
  663TIP3    H223405   5.334   3.123   4.552 -0.3298  2.0425  0.1961
  664TIP3   OH223406   5.132   4.233  12.084 -0.1577  0.4300 -0.0183
  664TIP3    H123407   5.130   4.305  12.146 -2.0244 -0.4622  1.0290
  664TIP3    H223408   5.121   4.155  12.138  1.7419 -0.6787 -1.1229
  665TIP3   OH223409   6.250   5.724  14.358  0.2957  0.1873  0.0411
  665TIP3    H123410   6.201   5.772  14.291  3.2705  2.7107 -0.5315
  665TIP3    H223411   6.300   5.659  14.308 -0.3710 -0.5874  0.3433
  666TIP3   OH223412   1.766   5.821  13.890 -0.5399  0.5630 -0.2999
  666TIP3    H123413   1.834   5.884  13.865  0.2310  0.5826  1.7082
  666TIP3    H223414   1.774   5.750  13.827 -0.5019  1.8166 -1.7609
  667TIP3   OH223415   6.636   1.455   1.894 -0.2569 -0.1404 -0.5276
  667TIP3    H123416   6.670   1.434   1.807  1.1847  0.8467 -0.2382
  667TIP3    H223417   6.664   1.545   1.910 -1.2606  0.0021  0.6154
  668TIP3   OH223418   0.940   6.304  14.373 -0.3284 -0.1472  0.6045
  668TIP3    H123419   0.956   6.229  14.430  0.8246  0.0663  0.5770
  668TIP3    H223420   1.015   6.307  14.314 -1.5042 -0.3840 -0.9809
  669TIP3   OH223421   0.978   2.845  12.715 -0.1770 -0.5384 -0.1187
  669TIP3    H123422   1.003   2.752  12.719 -1.5491 -0.8879  1.4176
  669TIP3    H223423   0.885   2.844  12.690 -0.5527  0.3470  1.1718
  670TIP3   OH223424   6.422   4.155   3.202  0.1771  0.0780 -0.0763
  670TIP3    H123425   6.429   4.221   3.133  1.7287 -0.6307 -0.6512
  670TIP3    H223426   6.337   4.114   3.188  0.3703  0.0926 -1.4655
  671TIP3   OH223427   3.181   5.636  14.737  0.0718  0.2184  0.0616
  671TIP3    H123428   3.136   5.682  14.808 -1.0014 -0.0036 -0.4537
  671TIP3    H223429   3.211   5.554  14.776  1.5082  1.0634  0.8391
  672TIP3   OH223430   5.643   0.295  13.176  0.2241 -0.4195  0.1175
  672TIP3    H123431   5.676   0.367  13.230  1.9266 -1.5142  0.6043
  672TIP3    H223432   5.698   0.220  13.199 -0.7056 -1.5836 -1.2616
  673TIP3   OH223433   2.923   1.147  12.272  0.1473 -0.2380  0.3841
  673TIP3    H123434   2.860   1.171  12.339  0.4960 -0.6702  0.8778
  673TIP3    H223435   2.959   1.230  12.242  0.4071 -0.0629  1.1521
  674TIP3   OH223436   2.376   3.741  12.089  0.3621  1.2160  0.0347
  674TIP3    H123437   2.427   3.662  12.106 -1.7674 -1.0944 -2.9760
  674TIP3    H223438   2.440   3.807  12.064  2.0670 -0.8154 -1.2802
  675TIP3   OH223439   3.551   6.176  15.457  0.1754  0.1060 -0.5525
  675TIP3    H123440   3.521   6.267  15.455  0.6643  0.4869  3.0173
  675TIP3    H223441   3.640   6.179  15.424  0.0023  0.8077 -0.9779
  676TIP3   OH223442   4.371   0.898  16.190 -0.6577 -0.1032 -0.4142
  676TIP3    H123443   4.367   0.949  16.109  0.1736 -0.2959 -0.5804
  676TIP3    H223444   4.459   0.913  16.223  0.3664 -3.0166 -1.5329
  677TIP3   OH223445   4.800   1.481   4.809 -0.3737 -0.3856  0.2794
  677TIP3    H123446   4.808   1.536   4.886 -3.6512 -1.7613  1.7761
  677TIP3    H223447   4.861   1.408   4.824 -1.3646 -0.9242  1.9096
  678TIP3   OH223448   3.537   6.208   5.180 -0.6130 -0.5663  0.7502
  678TIP3    H123449   3.453   6.246   5.205  0.0925  1.5542  0.1306
  678TIP3    H223450   3.559   6.251   5.098 -0.4114 -3.5035 -0.8625
  679TIP3   OH223451   4.067   4.093   1.399  0.2205 -0.5486 -0.2916
  679TIP3    H123452   4.006   4.020   1.394 -0.3784 -0.1604  0.9231
  679TIP3    H223453   4.071   4.115   1.492  0.5448  0.8282 -0.6013
  680TIP3   OH223454   2.937   1.245   0.069 -0.1074 -0.3324  0.1477
  680TIP3    H123455   2.871   1.185   0.104 -1.3530  0.8812 -0.0319
  680TIP3    H223456   2.896   1.331   0.073  2.6733  1.0895  3.2457
  681TIP3   OH223457   1.530   3.924   5.906 -0.0618 -0.6369  0.2048
  681TIP3    H123458   1.592   3.962   5.968 -0.9083 -0.0829  0.7278
  681TIP3    H223459   1.519   3.992   5.839 -1.7845  0.2297  1.2823
  682TIP3   OH223460   3.052   6.525  16.471 -0.3745 -0.1229 -0.2417
  682TIP3    H123461   2.960   6.548  16.460  0.1812  2.0004 -0.8374
  682TIP3    H223462   3.080   6.498  16.384 -0.1354  0.3723 -0.3169
  683TIP3   OH223463   3.304   4.608   4.542 -0.4779 -0.0788  0.1553
  683TIP3    H123464   3.392   4.647   4.542 -0.3442 -0.3684 -0.5207
  683TIP3    H223465   3.259   4.651   4.615  0.2835 -0.0569  0.6275
  684TIP3   OH223466   5.535   3.208  15.940 -0.1303  0.2077 -0.1889
  684TIP3    H123467   5.526   3.207  15.844 -0.6191  0.8106 -0.1543
  684TIP3    H223468   5.628   3.221  15.955  0.0853 -0.7349 -0.5750
  685TIP3   OH223469   2.882   5.577  12.474  0.1239  0.1837  0.2000
  685TIP3    H123470   2.977   5.581  12.468  0.0629  1.5887 -0.1363
  685TIP3    H223471   2.865   5.537  12.559  1.0024 -0.2462  0.1865
  686TIP3   OH223472   3.941   4.660   5.082  0.1410  0.4235  0.3651
  686TIP3    H123473   3.927   4.580   5.031  0.2500  1.2855 -1.0452
  686TIP3    H223474   4.007   4.635   5.147  0.9254 -0.3581 -0.7032
  687TIP3   OH223475   4.896   4.600  14.703  0.0205 -0.1773 -0.5096
  687TIP3    H123476   4.819   4.548  14.725  0.4945 -0.7906 -0.2650
  687TIP3    H223477   4.905   4.661  14.776 -0.8240  0.5887 -1.0344
  688TIP3   OH223478   0.235   6.141   5.692  0.0980  0.7046  0.1346
  688TIP3    H123479   0.331   6.141   5.691  0.1221  2.3140  0.2218
  688TIP3    H223480   0.210   6.231   5.674 -1.4316  0.2061 -0.4453
  689TIP3   OH223481   5.462   5.072  10.386 -0.0376 -0.2329  0.2954
  689TIP3    H123482   5.375   5.093  10.352 -0.0901 -2.9112 -1.5398
  689TIP3    H223483   5.508   5.156  10.387 -2.2451  1.0733  0.2217
  690TIP3   OH223484   2.954   0.527   5.014  0.0868 -0.3029  0.4635
  690TIP3    H123485   2.874   0.577   5.029 -0.5137 -0.8495 -0.7180
  690TIP3    H223486   2.932   0.468   4.941  0.7853 -2.2253  1.7094
  691TIP3   OH223487   2.875   1.453  14.244 -0.3183  0.4349 -0.3346
  691TIP3    H123488   2.914   1.513  14.180  0.6457  1.2546  0.9703
  691TIP3    H223489   2.905   1.485  14.329 -0.2367 -1.5605  0.4544
  692TIP3   OH223490   2.545   6.259  15.179  0.2789 -0.1059  0.3619
  692TIP3    H123491   2.541   6.167  15.155  0.5938 -0.6704  2.3844
  692TIP3    H223492   2.593   6.300  15.107 -0.3389 -1.3892 -0.8260
  693TIP3   OH223493   5.714   3.399   5.248  0.1493  0.0479  0.1488
  693TIP3    H123494   5.669   3.320   5.219 -1.1652  0.6703  0.3840
  693TIP3    H223495   5.802   3.371   5.270  0.3220 -0.9853 -1.6451
  694TIP3   OH223496   2.853   5.617   1.170  0.2393 -0.2888  0.1479
  694TIP3    H123497   2.897   5.626   1.085 -0.8387  1.3215 -0.2609
  694TIP3    H223498   2.840   5.706   1.201 -1.1808 -0.7880  1.0894
  695TIP3   OH223499   3.037   4.354   4.317 -0.4339  0.1843  0.2649
  695TIP3    H123500   3.091   4.323   4.245 -0.3163  2.1644 -0.5586
  695TIP3    H223501   3.081   4.322   4.396  1.5201  1.0666 -0.4108
  696TIP3   OH223502   2.378   1.803   6.642  0.3257  0.2436 -0.0785
  696TIP3    H123503   2.291   1.824   6.675  0.1258  1.9016 -1.4904
  696TIP3    H223504   2.426   1.770   6.718 -1.3847 -0.3075  0.8130
  697TIP3   OH223505   2.500   6.749   1.963 -0.0054  0.3838 -0.1070
  697TIP3    H123506   2.431   6.693   1.928 -0.0330  0.6038 -0.4070
  697TIP3    H223507   2.462   6.787   2.042 -0.5508  1.1761 -0.7338
  698TIP3   OH223508   2.531   4.729   4.939  0.0733 -0.0096  0.0349
  698TIP3    H123509   2.446   4.769   4.919  0.3252  0.4182 -0.2015
  698TIP3    H223510   2.590   4.764   4.871  0.4153 -0.3738  0.1426
  699TIP3   OH223511   0.551   0.951  11.023  0.3678  0.5516  0.1427
  699TIP3    H123512   0.633   0.921  11.063  0.9658  1.0218 -0.7110
  699TIP3    H223513   0.574   1.032  10.978  0.0149 -0.5414 -2.1501
  700TIP3   OH223514   0.884   3.387   1.474  0.3481  0.4388  0.4391
  700TIP3    H123515   0.812   3.420   1.421 -0.1453  2.0680  2.0374
  700TIP3    H223516   0.853   3.302   1.506  0.0569  0.1327 -0.6013
  701TIP3   OH223517   6.204   4.239  17.129  0.4289 -0.0508 -0.6776
  701TIP3    H123518   6.214   4.216  17.222 -2.3015 -0.3527 -0.3492
  701TIP3    H223519   6.292   4.260  17.099  1.2452  1.2500  2.2911
  702TIP3   OH223520   0.779   0.293   4.640  0.3830  0.6824  0.1835
  702TIP3    H123521   0.710   0.331   4.586 -0.6912  0.5266  1.4044
  702TIP3    H223522   0.854   0.350   4.625 -1.1453  3.3571  1.9042
  703TIP3   OH223523   1.281   4.748  10.802  0.0377  0.1239  0.4613
  703TIP3    H123524   1.193   4.711  10.814 -0.1665  1.2009  2.7444
  703TIP3    H223525   1.335   4.674  10.774 -1.1205 -1.0721  1.2876
  704TIP3   OH223526   6.115   0.220   2.566  0.0652 -0.1092 -0.1589
  704TIP3    H123527   6.115   0.264   2.481 -2.5643 -1.7636 -1.1699
  704TIP3    H223528   6.024   0.228   2.596  1.1045  1.2489  3.0482
  705TIP3   OH223529   5.964   6.393   0.459 -0.0202  0.3610  0.0403
  705TIP3    H123530   5.884   6.367   0.415  0.5973  0.5762 -1.2609
  705TIP3    H223531   5.977   6.327   0.527 -0.1987 -0.8726 -1.0857
  706TIP3   OH223532   3.884   5.968  11.410  0.2147  0.5188  0.3376
  706TIP3    H123533   3.962   5.988  11.359 -0.6313  0.1661 -1.1461
  706TIP3    H223534   3.827   6.044  11.400 -0.1489  0.2576  0.3707
  707TIP3   OH223535   4.002   5.641  13.895  0.4976  0.7014  0.2336
  707TIP3    H123536   4.032   5.707  13.957 -0.0822 -0.0090  1.3075
  707TIP3    H223537   4.077   5.626  13.837  1.7057  0.0317  1.9160
  708TIP3   OH223538   1.308   5.290  15.851 -0.1569 -0.1737 -0.3474
  708TIP3    H123539   1.223   5.320  15.818  0.0797 -1.7210 -2.6311
  708TIP3    H223540   1.287   5.220  15.913 -0.5556  0.7643  0.6035
  709TIP3   OH223541   3.987   6.552  17.202  0.3035  0.1200 -0.2724
  709TIP3    H123542   3.959   6.538  17.293  0.1688  1.0191 -0.1626
  709TIP3    H223543   3.990   6.464  17.164 -3.4091 -0.0642 -0.5305
  710TIP3   OH223544   3.760   5.567  13.856  1.0920 -0.3942 -0.4525
  710TIP3    H123545   3.719   5.636  13.805  1.0191 -0.1829 -0.1084
  710TIP3    H223546   3.852   5.594  13.863  1.1085 -0.4387 -0.4952
  711TIP3   OH223547   4.089   3.430   1.435 -0.1548 -0.3951 -0.2682
  711TIP3    H123548   4.153   3.484   1.389 -1.8560 -0.0231 -2.3809
  711TIP3    H223549   4.112   3.340   1.413 -1.6652 -0.1969 -3.0893
  712TIP3   OH223550   4.296   3.348  12.070 -0.0890 -0.3720  0.4703
  712TIP3    H123551   4.351   3.363  11.993  0.1553 -0.7101  0.5729
  712TIP3    H223552   4.334   3.404  12.137  0.4567 -0.9891  0.6867
  713TIP3   OH223553   2.580   4.052   5.098 -0.5181 -0.2430 -0.1289
  713TIP3    H123554   2.501   4.002   5.081 -0.0622 -0.7801 -0.7005
  713TIP3    H223555   2.620   4.065   5.012  0.8728 -1.4092  0.3067
  714TIP3   OH223556   1.782   2.501   2.527  0.3581  0.1614 -0.1783
  714TIP3    H123557   1.877   2.492   2.537  0.1782 -1.4117  0.4306
  714TIP3    H223558   1.760   2.442   2.455  0.1105  2.3768 -2.0165
  715TIP3   OH223559   2.983   1.138  13.244 -0.3974 -0.3265 -0.4658
  715TIP3    H123560   2.897   1.118  13.208 -0.5352  0.8364 -0.8015
  715TIP3    H223561   3.032   1.176  13.171  0.1155 -0.1757 -0.0529
  716TIP3   OH223562   1.712   5.017  16.553  0.8928 -0.8241  0.1622
  716TIP3    H123563   1.791   5.063  16.524  1.9144 -2.6193 -0.0145
  716TIP3    H223564   1.649   5.087  16.570  2.1833  0.5985 -0.6648
  717TIP3   OH223565   5.390   4.563  14.427 -0.2056  0.4913 -0.3974
  717TIP3    H123566   5.390   4.493  14.493  0.4478  0.8508 -0.0023
  717TIP3    H223567   5.340   4.527  14.354  1.3571 -0.9622 -0.8066
  718TIP3   OH223568   1.510   2.776  13.391  0.1365 -0.2711 -0.0515
  718TIP3    H123569   1.560   2.825  13.327 -2.7932  2.8550 -0.2596
  718TIP3    H223570   1.557   2.788  13.473 -0.0913  2.5714 -0.2259
  719TIP3   OH223571   3.522   2.141   3.290  0.0118 -0.3378 -0.2197
  719TIP3    H123572   3.567   2.223   3.270 -0.0137 -0.3553 -0.3468
  719TIP3    H223573   3.587   2.088   3.335 -0.2525  0.1232  0.7455
  720TIP3   OH223574   5.324   3.484   1.398  0.1707  0.3842  0.5310
  720TIP3    H123575   5.280   3.549   1.453  0.1751 -0.7708  1.9418
  720TIP3    H223576   5.302   3.400   1.437  0.5844 -0.4534 -0.9640
  721TIP3   OH223577   6.328   5.582  12.177 -0.4674  0.1677  0.1091
  721TIP3    H123578   6.282   5.665  12.161  0.9870  0.7995 -1.0085
  721TIP3    H223579   6.363   5.556  12.092 -0.0537 -1.0848  0.6335
  722TIP3   OH223580   5.980   3.073  16.160  0.1338 -0.4684 -0.1093
  722TIP3    H123581   6.032   3.153  16.162  0.7845 -0.8768  1.8861
  722TIP3    H223582   6.041   3.005  16.130 -0.2225 -0.3645 -1.1056
  723TIP3   OH223583   4.556   0.276  13.603 -0.1046  0.1855  0.6332
  723TIP3    H123584   4.544   0.234  13.688  3.2381 -0.3867  0.9605
  723TIP3    H223585   4.518   0.214  13.540 -0.4422 -0.5670  1.5529
  724TIP3   OH223586   0.605   0.979  16.440 -0.5669 -0.7420  0.0184
  724TIP3    H123587   0.572   1.015  16.357 -1.4285  0.6190  0.9134
  724TIP3    H223588   0.527   0.948  16.485 -0.1096 -1.4052  0.3726
  725TIP3   OH223589   2.368   3.385   5.126 -0.1011  0.1734  0.4501
  725TIP3    H123590   2.391   3.338   5.047 -1.9557 -2.0890  1.1384
  725TIP3    H223591   2.433   3.454   5.133  1.2860 -0.7820 -1.9567
  726TIP3   OH223592   5.255   6.053  11.274 -0.4216  0.0278 -0.4792
  726TIP3    H123593   5.276   6.145  11.290  2.2244 -0.4013 -0.9623
  726TIP3    H223594   5.213   6.023  11.355 -1.6387  1.7007 -0.4489
  727TIP3   OH223595   6.730   2.950   1.280 -0.3585 -0.3633  0.2511
  727TIP3    H123596   6.745   2.861   1.312  0.3668 -0.0727  0.7346
  727TIP3    H223597   6.676   2.991   1.347 -2.6202 -1.0942 -1.0099
  728TIP3   OH223598   5.394   6.394   2.639 -0.5251 -0.1936  0.0543
  728TIP3    H123599   5.340   6.318   2.615 -0.6110  0.1698 -0.9435
  728TIP3    H223600   5.332   6.464   2.655 -0.4010  0.8750 -3.2964
  729TIP3   OH223601   0.209   3.589  11.251  0.0837  0.7950  0.0571
  729TIP3    H123602   0.219   3.556  11.162 -0.3291  1.5683 -0.2904
  729TIP3    H223603   0.117   3.572  11.273  0.7140 -1.4507  1.2124
  730TIP3   OH223604   4.138   0.996  11.936  0.0198  0.3408  0.1957
  730TIP3    H123605   4.109   0.905  11.944 -0.6919  0.6727  1.6854
  730TIP3    H223606   4.067   1.039  11.887  0.7623 -0.0630 -1.2845
  731TIP3   OH223607   2.238   3.912   2.178  0.6183  0.1975 -0.2991
  731TIP3    H123608   2.316   3.881   2.131  0.6842 -0.0054 -0.0546
  731TIP3    H223609   2.165   3.869   2.134  0.4476  2.0076 -1.9202
  732TIP3   OH223610   2.384   2.072  12.534 -0.2284 -0.1473  0.0009
  732TIP3    H123611   2.468   2.059  12.578 -0.8033  0.2602  1.2691
  732TIP3    H223612   2.365   1.988  12.492  1.8064  0.3795 -2.1334
  733TIP3   OH223613   4.501   5.948   3.065  0.1815  0.1329  0.7753
  733TIP3    H123614   4.528   5.977   2.977  0.1140  0.2351  0.7868
  733TIP3    H223615   4.504   5.853   3.061  0.5099  0.1432  0.7677
  734TIP3   OH223616   1.019   1.958  10.870 -0.2219  0.0520 -0.1665
  734TIP3    H123617   1.002   1.946  10.964  0.3299  0.5798  0.0135
  734TIP3    H223618   1.110   1.931  10.859 -0.4815 -0.6582 -0.6905
  735TIP3   OH223619   2.258   3.317   0.634  0.4443 -0.6588  0.1141
  735TIP3    H123620   2.280   3.403   0.670  1.5458 -0.4622 -0.9861
  735TIP3    H223621   2.330   3.261   0.660 -1.0769 -1.7493  2.3193
  736TIP3   OH223622   0.747   2.357  14.297 -0.1948 -0.0204  0.3151
  736TIP3    H123623   0.805   2.367  14.221 -1.2509 -2.0274 -0.8416
  736TIP3    H223624   0.777   2.278  14.341  0.5332  1.2308  2.2072
  737TIP3   OH223625   2.742   2.849   1.349  0.3269 -0.1625 -0.2688
  737TIP3    H123626   2.800   2.802   1.288 -0.3086 -0.1678 -0.8861
  737TIP3    H223627   2.779   2.832   1.435 -0.0055 -2.0103 -0.4395
  738TIP3   OH223628   1.074   0.078   4.785 -0.4598 -0.3057 -0.2507
  738TIP3    H123629   0.994   0.112   4.825 -0.8718 -0.5943 -0.8191
  738TIP3    H223630   1.103   0.009   4.844 -1.5776 -1.3671 -0.8903
  739TIP3   OH223631   2.501   5.217   0.655 -0.5592  0.0671 -0.1004
  739TIP3    H123632   2.579   5.243   0.702 -0.4602 -0.7159  0.1910
  739TIP3    H223633   2.447   5.296   0.651 -1.2607 -0.1350  2.6876
  740TIP3   OH223634   6.636   2.808   4.804  0.2627  0.5672 -0.4385
  740TIP3    H123635   6.572   2.753   4.759  1.0490  0.1362 -1.0730
  740TIP3    H223636   6.584   2.866   4.860 -0.7451  0.8777 -1.6402
  741TIP3   OH223637   4.933   3.592  11.802 -0.0557  0.0323  0.0204
  741TIP3    H123638   4.909   3.555  11.717  0.2802 -0.2038  0.0267
  741TIP3    H223639   4.938   3.686  11.787 -1.5607  0.1654  0.1557
  742TIP3   OH223640   4.126   6.573  12.437 -0.2486 -0.1323 -0.4088
  742TIP3    H123641   4.034   6.588  12.414 -0.1361 -0.5000 -1.1676
  742TIP3    H223642   4.126   6.489  12.483 -0.0959 -1.0806 -2.0511
  743TIP3   OH223643   1.618   5.484  16.662 -0.1785 -0.8031  0.1694
  743TIP3    H123644   1.566   5.565  16.672 -1.0974 -1.4609  0.9262
  743TIP3    H223645   1.703   5.514  16.630 -1.1197  0.2959 -1.5284
  744TIP3   OH223646   2.279   1.993   2.664 -0.2202  0.5279  0.3256
  744TIP3    H123647   2.298   2.059   2.598 -1.0079 -0.3374 -0.7944
  744TIP3    H223648   2.358   1.991   2.719  0.0685  1.9131 -0.0074
  745TIP3   OH223649   5.766   5.652   0.984 -0.6077  0.1226 -0.4984
  745TIP3    H123650   5.763   5.561   1.013  1.2845  0.1910  0.0830
  745TIP3    H223651   5.709   5.698   1.045  0.2916 -0.3485  0.7534
  746TIP3   OH223652   2.600   1.009  16.752  0.4143  0.0247  0.1517
  746TIP3    H123653   2.529   1.068  16.726  1.1143  1.2109  0.8400
  746TIP3    H223654   2.581   0.986  16.843  0.7799  0.1685  0.2678
  747TIP3   OH223655   4.984   6.512  12.576 -0.8134 -0.6136 -0.0934
  747TIP3    H123656   4.899   6.552  12.594 -0.9698 -1.3766  0.9557
  747TIP3    H223657   5.025   6.500  12.662  0.3129 -0.3653 -0.5775
  748TIP3   OH223658   3.237   2.237  10.710 -0.0615 -0.2034  0.2812
  748TIP3    H123659   3.222   2.158  10.659  3.0955 -1.2004  0.6884
  748TIP3    H223660   3.165   2.239  10.774 -1.6140 -1.2830 -1.3582
  749TIP3   OH223661   1.338   1.095   1.502  0.2248 -0.5443 -0.2070
  749TIP3    H123662   1.431   1.107   1.484 -0.1885  0.7768 -1.6339
  749TIP3    H223663   1.329   1.000   1.514  1.6493 -0.7725 -0.6663
  750TIP3   OH223664   2.421   3.533   0.748  0.2598 -0.5973 -0.2175
  750TIP3    H123665   2.471   3.528   0.830 -1.8605 -0.0389  1.2037
  750TIP3    H223666   2.383   3.621   0.748 -2.6078 -1.7225  0.0304
  751TIP3   OH223667   4.624   0.758  11.657  0.0597  0.0239  0.3548
  751TIP3    H123668   4.700   0.710  11.624  0.5123  1.6419 -1.0851
  751TIP3    H223669   4.551   0.697  11.643  0.8305 -0.8682  0.0740
  752TIP3   OH223670   3.973   4.163  11.310 -0.3401  0.0231 -0.2147
  752TIP3    H123671   3.921   4.230  11.353  1.0377 -0.1372  1.8197
  752TIP3    H223672   3.919   4.084  11.314 -1.1406  0.5288 -0.8207
  753TIP3   OH223673   6.023   5.423  12.212  0.0998  0.1437  0.4061
  753TIP3    H123674   5.988   5.446  12.298  1.5086 -0.4106  1.1549
  753TIP3    H223675   6.059   5.505  12.178  2.0225 -0.1458  1.5814
  754TIP3   OH223676   2.563   2.408   1.014  0.0725  0.1297  0.1517
  754TIP3    H123677   2.526   2.493   1.038 -0.4297 -0.2579  0.7781
  754TIP3    H223678   2.627   2.428   0.946 -1.2246  0.8433 -0.9179
  755TIP3   OH223679   3.545   5.799  16.682 -0.0634 -0.0140 -0.0993
  755TIP3    H123680   3.551   5.807  16.777 -1.0873 -2.2132  0.2090
  755TIP3    H223681   3.518   5.886  16.652 -0.5393  0.4941  1.6888
  756TIP3   OH223682   2.733   0.684   6.031  0.0152 -0.1424 -0.2003
  756TIP3    H123683   2.721   0.764   5.980 -0.3192 -0.8341 -1.2333
  756TIP3    H223684   2.763   0.714   6.117  0.0441  1.0738 -0.6269
  757TIP3   OH223685   5.071   1.412  13.612 -0.1817  0.0358 -0.4247
  757TIP3    H123686   5.150   1.465  13.625 -0.7763  0.9085 -0.2324
  757TIP3    H223687   5.002   1.477  13.595 -0.8641 -0.7066 -0.5279
  758TIP3   OH223688   2.478   5.912  17.211  0.2346 -0.0252  0.5195
  758TIP3    H123689   2.476   5.877  17.121 -0.9738 -2.2001  1.3137
  758TIP3    H223690   2.547   5.863  17.255  1.3775  1.5991  0.6403
  759TIP3   OH223691   2.152   3.857  17.179 -0.2173 -1.1384  0.4524
  759TIP3    H123692   2.164   3.790  17.112 -0.4274 -0.0764 -0.6612
  759TIP3    H223693   2.229   3.849  17.235 -1.0445 -3.4677  1.4063
  760TIP3   OH223694   3.366   5.172  14.759  0.4577  0.6488  1.0434
  760TIP3    H123695   3.363   5.105  14.828  0.1126  0.0877  0.4903
  760TIP3    H223696   3.425   5.136  14.693  0.6250  1.0948  0.9459
  761TIP3   OH223697   3.888   0.857  16.839  0.2168 -0.0468 -0.0686
  761TIP3    H123698   3.826   0.787  16.857  0.3472 -0.1197  0.1003
  761TIP3    H223699   3.837   0.937  16.846  0.0903 -0.1186 -0.1608
  762TIP3   OH223700   6.181   4.461   2.313  0.2066  0.1937  0.1016
  762TIP3    H123701   6.245   4.531   2.328  0.2857  0.5295 -1.5720
  762TIP3    H223702   6.097   4.506   2.304  0.1959  0.0427 -0.5975
  763TIP3   OH223703   5.374   4.044  17.266 -0.5938  0.1143  0.2162
  763TIP3    H123704   5.335   4.102  17.200 -1.3022  0.4862  0.9461
  763TIP3    H223705   5.302   3.985  17.291  0.2571 -1.4801 -0.9156
  764TIP3   OH223706   4.017   4.445   0.031 -0.6841  0.0920  0.2310
  764TIP3    H123707   4.024   4.400  -0.053 -0.3220  1.6653 -0.6144
  764TIP3    H223708   3.980   4.531   0.010 -0.9047  0.3952  1.7232
  765TIP3   OH223709   4.204   6.288  14.504 -0.2091 -0.4060  0.1873
  765TIP3    H123710   4.136   6.224  14.528 -0.2945 -0.0612  0.9006
  765TIP3    H223711   4.160   6.349  14.446 -0.2753 -0.6731 -0.0479
  766TIP3   OH223712   0.750   2.312   2.737 -0.2612 -0.0841 -0.1008
  766TIP3    H123713   0.727   2.260   2.814  0.2369 -0.3579 -0.1309
  766TIP3    H223714   0.735   2.253   2.663 -0.2627  0.0166 -0.1819
  767TIP3   OH223715   3.935   3.873  13.702  0.0716 -0.5675  0.1388
  767TIP3    H123716   3.941   3.839  13.791  1.0787  0.3718  0.4616
  767TIP3    H223717   3.844   3.901  13.693 -0.1373 -1.0366  0.7237
  768TIP3   OH223718   5.069   3.180  14.851 -0.4931  0.1656 -0.0000
  768TIP3    H123719   5.068   3.085  14.843  0.3268  0.1644 -0.2122
  768TIP3    H223720   5.033   3.212  14.769  3.4696  0.0780 -2.0061
  769TIP3   OH223721   2.621   2.304  16.937  0.2437  0.1663  0.4088
  769TIP3    H123722   2.542   2.356  16.954  0.6604  0.7973  0.4716
  769TIP3    H223723   2.690   2.370  16.924  1.1137 -0.3563  2.0086
  770TIP3   OH223724   0.625   2.555  11.991 -0.6670  0.1772  0.6952
  770TIP3    H123725   0.668   2.543  11.906 -0.5662  1.7008  0.5037
  770TIP3    H223726   0.532   2.558  11.970 -0.5441  3.2175  0.2185
  771TIP3   OH223727   5.802   4.766  15.868 -0.8326  0.4049  0.0811
  771TIP3    H123728   5.724   4.777  15.814  0.1081  1.3377 -1.1445
  771TIP3    H223729   5.770   4.722  15.947 -2.0925 -1.9698 -1.6148
  772TIP3   OH223730   4.682   0.433  10.831 -0.5342 -0.4218 -0.4586
  772TIP3    H123731   4.586   0.436  10.834 -0.6161 -0.9503 -1.7310
  772TIP3    H223732   4.702   0.418  10.738  0.6553 -3.4149  0.1552
  773TIP3   OH223733   0.283   4.859  13.391 -0.1786 -0.4325 -0.1407
  773TIP3    H123734   0.359   4.830  13.442  0.3302 -1.3307 -1.3603
  773TIP3    H223735   0.284   4.804  13.313 -0.8932  0.9474 -1.1633
  774TIP3   OH223736   6.009   0.426  15.579 -0.5769  0.0656  0.4207
  774TIP3    H123737   6.088   0.476  15.602 -0.1364  0.4201 -1.6440
  774TIP3    H223738   6.033   0.335  15.594  1.4125 -0.1393 -2.9293
  775TIP3   OH223739   0.155   3.584  16.149 -0.2036  0.7078  0.3275
  775TIP3    H123740   0.155   3.671  16.188 -0.1909  0.2286  1.4471
  775TIP3    H223741   0.172   3.525  16.223  0.8041 -0.1741 -0.5768
  776TIP3   OH223742   0.502   0.618   5.747 -0.0660  0.0227  0.2007
  776TIP3    H123743   0.545   0.634   5.831  1.6329 -0.4491 -0.5434
  776TIP3    H223744   0.562   0.560   5.699 -1.4155 -0.4460 -0.9974
  777TIP3   OH223745   3.675   4.157  16.332 -0.0093 -0.0503  0.3034
  777TIP3    H123746   3.693   4.182  16.423 -1.2248 -0.3064  0.6288
  777TIP3    H223747   3.607   4.090  16.339 -0.9021  0.7066 -0.8531
  778TIP3   OH223748   4.893   5.966  15.188  0.2641  0.3971 -1.3702
  778TIP3    H123749   4.928   6.037  15.241  0.7436 -1.0506  0.3315
  778TIP3    H223750   4.967   5.906  15.176 -1.3126 -2.6465  2.1337
  779TIP3   OH223751   3.747   3.636   6.142 -0.1350  0.0544 -0.3019
  779TIP3    H123752   3.702   3.598   6.218  1.0354  0.0707  0.4212
  779TIP3    H223753   3.785   3.718   6.175  0.6817 -0.1066 -0.8105
  780TIP3   OH223754   2.381   4.771   1.775 -0.1775 -0.0862  0.4567
  780TIP3    H123755   2.472   4.767   1.804  0.1730 -1.6232 -0.7081
  780TIP3    H223756   2.332   4.793   1.854  1.2115  0.9675  1.0625
  781TIP3   OH223757   3.064   5.361  16.874 -0.5847  0.2875  0.7791
  781TIP3    H123758   3.133   5.299  16.850 -0.2064  0.1716  2.1123
  781TIP3    H223759   3.027   5.326  16.955 -1.1848  1.1661  0.8980
  782TIP3   OH223760   2.265   2.332   2.966  0.3218 -0.7535 -0.4500
  782TIP3    H123761   2.176   2.368   2.974  0.2122 -1.1586  0.2955
  782TIP3    H223762   2.271   2.269   3.039  0.8632 -1.4729 -1.1013
  783TIP3   OH223763   1.155   6.216  12.310  0.2641  0.2605 -1.0393
  783TIP3    H123764   1.175   6.136  12.360 -0.4594 -1.1397 -2.8832
  783TIP3    H223765   1.220   6.280  12.341  2.5416 -1.7808 -1.2729
  784TIP3   OH223766   0.370   1.587   5.817 -0.3525  0.5259  0.0907
  784TIP3    H123767   0.332   1.666   5.780 -1.8626 -0.4323 -0.5372
  784TIP3    H223768   0.334   1.516   5.763  3.2683 -0.4573 -1.3130
  785TIP3   OH223769   0.995   0.629   0.463 -0.1660 -0.5563 -0.5227
  785TIP3    H123770   0.957   0.604   0.548 -1.0101  1.0657 -0.3755
  785TIP3    H223771   0.921   0.667   0.415  0.5002 -0.6735 -1.6624
  786TIP3   OH223772   3.310   5.867   3.180  0.1374 -0.5744  0.2097
  786TIP3    H123773   3.340   5.842   3.092 -1.4003 -2.2903  0.1063
  786TIP3    H223774   3.216   5.850   3.179  0.0660 -0.5107  2.1522
  787TIP3   OH223775   1.045   3.941  14.199 -0.6304  0.4916  0.4635
  787TIP3    H123776   1.077   3.908  14.282  1.3526  0.0408 -0.4122
  787TIP3    H223777   0.979   3.877  14.171  1.4701 -1.5508 -0.0951
  788TIP3   OH223778   6.571   2.846  16.952  0.0174 -0.3905 -0.2282
  788TIP3    H123779   6.573   2.828  17.046 -1.3646 -0.8096 -0.2477
  788TIP3    H223780   6.582   2.941  16.945 -1.8983 -0.0494  0.5389
  789TIP3   OH223781   5.702   4.181   0.110  0.0162  0.0312  0.2514
  789TIP3    H123782   5.785   4.161   0.154  0.3140  1.0448  0.1779
  789TIP3    H223783   5.670   4.260   0.154 -0.2322  0.4249 -0.6109
  790TIP3   OH223784   5.295   3.843  15.874 -0.6726  0.0473  0.0579
  790TIP3    H123785   5.327   3.868  15.961  0.7323  0.1093 -0.4553
  790TIP3    H223786   5.249   3.760  15.889  0.5455 -0.5404  0.6959
  791TIP3   OH223787   2.320   2.224  11.334 -0.0262  0.5565 -0.3979
  791TIP3    H123788   2.359   2.147  11.294  1.6301  0.3052  1.5222
  791TIP3    H223789   2.357   2.298  11.285  1.5936  0.2439  0.2982
  792TIP3   OH223790   3.497   6.306   0.931 -0.0887  0.7714  0.2029
  792TIP3    H123791   3.566   6.246   0.960  0.8519  2.0677  0.7047
  792TIP3    H223792   3.419   6.251   0.925  1.1328 -0.9016 -1.1315
  793TIP3   OH223793   1.701   1.380   3.539 -0.4384  0.2058 -0.2591
  793TIP3    H123794   1.762   1.384   3.612  0.1034  0.2840 -0.7096
  793TIP3    H223795   1.756   1.365   3.462 -0.7199  2.5371 -0.9944
  794TIP3   OH223796   2.545   5.616  10.776 -0.0673  0.3603  0.5859
  794TIP3    H123797   2.583   5.703  10.764  0.8576 -0.0722  0.3451
  794TIP3    H223798   2.453   5.634  10.796 -0.0913  1.3749 -0.3002
  795TIP3   OH223799   0.787   1.161  14.754 -0.1125  0.0365  0.2570
  795TIP3    H123800   0.739   1.094  14.705  1.1941 -0.8902  0.1773
  795TIP3    H223801   0.868   1.172  14.706  0.8662 -0.3300  1.7553
  796TIP3   OH223802   0.306   4.984  13.001  0.6168  0.0397  0.2941
  796TIP3    H123803   0.364   4.983  12.926 -0.7279 -0.8307 -0.7895
  796TIP3    H223804   0.273   4.894  13.007 -0.2856  0.3973  1.1177
  797TIP3   OH223805   1.704   5.981   4.746  0.1547  0.3219 -0.0719
  797TIP3    H123806   1.692   6.051   4.810 -1.8889  0.0410 -0.0736
  797TIP3    H223807   1.637   5.996   4.680  2.7930  1.1372 -2.7611
  798TIP3   OH223808   0.652   3.401  11.332  0.3718 -0.1922  0.1527
  798TIP3    H123809   0.647   3.384  11.238  0.4273 -0.9480  0.2805
  798TIP3    H223810   0.746   3.409  11.349  0.5432 -2.2347  0.4903
  799TIP3   OH223811   4.871   0.565  11.251  0.4083  0.0879 -0.1246
  799TIP3    H123812   4.938   0.618  11.294  1.4398  0.8610 -2.5397
  799TIP3    H223813   4.797   0.625  11.240 -0.0840 -0.2793  1.0117
  800TIP3   OH223814   1.891   3.725   4.829  0.1508  0.2271 -0.1077
  800TIP3    H123815   1.859   3.640   4.798 -0.7112  1.0380 -1.5955
  800TIP3    H223816   1.970   3.742   4.777 -0.4995  0.9603 -0.8938
  801TIP3   OH223817   0.492   4.204  16.236 -0.1856  0.4814  0.0262
  801TIP3    H123818   0.579   4.197  16.198 -0.1475 -0.2098  0.2328
  801TIP3    H223819   0.493   4.287  16.283  0.2626  0.6152 -0.2124
  802TIP3   OH223820   5.082   4.128   5.502  1.2016  0.3487 -0.3076
  802TIP3    H123821   5.149   4.197   5.498  2.2660 -0.6276  0.1269
  802TIP3    H223822   5.087   4.095   5.591  1.1857 -0.7375 -0.6925
  803TIP3   OH223823   6.027   5.980   1.754  0.1406  0.1722 -0.0875
  803TIP3    H123824   5.998   5.901   1.709  0.0593 -0.3685  0.8700
  803TIP3    H223825   6.039   6.045   1.685 -1.9696  0.0004 -0.6854
  804TIP3   OH223826   0.705   2.497   5.450  0.1351 -0.0942 -0.1491
  804TIP3    H123827   0.736   2.437   5.383  1.0399 -0.1499  0.3099
  804TIP3    H223828   0.764   2.572   5.444 -0.5288  0.4351 -0.2229
  805TIP3   OH223829   5.194   4.558   1.187 -0.0636 -0.3032 -0.6866
  805TIP3    H123830   5.144   4.520   1.115 -1.5223 -0.8712  0.5608
  805TIP3    H223831   5.155   4.645   1.200 -2.4065 -1.5613  1.7187
  806TIP3   OH223832   2.552   4.617  15.215  0.2980 -0.2044  0.1060
  806TIP3    H123833   2.514   4.655  15.136  0.8207 -1.0308 -0.5612
  806TIP3    H223834   2.509   4.663  15.287 -1.8580 -1.0044 -0.6129
  807TIP3   OH223835   6.299   6.368   1.882  0.2435  0.6586 -0.2975
  807TIP3    H123836   6.291   6.368   1.787 -2.2928  0.0199 -0.1557
  807TIP3    H223837   6.292   6.276   1.907 -1.4853  1.0003  0.5997
  808TIP3   OH223838   3.461   2.874   1.160 -0.7012  0.0012 -0.4425
  808TIP3    H123839   3.521   2.948   1.173  0.1239 -0.3566 -1.8941
  808TIP3    H223840   3.375   2.914   1.147 -0.4362  0.6459 -0.2437
  809TIP3   OH223841   5.829   5.548   2.263  0.1515 -0.2586 -0.0265
  809TIP3    H123842   5.844   5.605   2.188 -0.8308  0.7759  0.5432
  809TIP3    H223843   5.778   5.601   2.324 -0.8808 -1.7887  0.4844
  810TIP3   OH223844   2.692   2.437   5.238  0.5207 -0.4810 -0.3030
  810TIP3    H123845   2.708   2.347   5.212  0.5444 -0.2642 -1.0586
  810TIP3    H223846   2.607   2.459   5.200  0.6268 -0.1136 -0.3427
  811TIP3   OH223847   0.976   0.752   4.431 -0.2292 -0.0882 -0.1584
  811TIP3    H123848   1.067   0.779   4.417 -0.1657 -0.9518 -1.6035
  811TIP3    H223849   0.925   0.826   4.398 -0.0774  0.4757  0.8191
  812TIP3   OH223850   6.522   0.219  11.729  0.1099  0.0194  0.5842
  812TIP3    H123851   6.471   0.141  11.706  1.1532 -0.0320 -1.8001
  812TIP3    H223852   6.555   0.252  11.645  1.2894  1.9327  1.7314
  813TIP3   OH223853   4.024   5.734  14.623 -0.3755 -0.1217  0.3383
  813TIP3    H123854   3.987   5.734  14.712  0.1124 -1.1023  0.5564
  813TIP3    H223855   4.025   5.642  14.598  0.3565  0.0598 -0.3253
  814TIP3   OH223856   0.077   5.844  13.148  0.0063 -0.3466 -0.0411
  814TIP3    H123857   0.049   5.775  13.088  0.2280 -0.7300  0.2936
  814TIP3    H223858   0.148   5.805  13.198  0.7081  0.4069 -0.4347
  815TIP3   OH223859   2.106   2.467  11.836 -0.3284 -1.1603 -0.1107
  815TIP3    H123860   2.055   2.494  11.760  1.3082 -0.0960 -0.8734
  815TIP3    H223861   2.120   2.373  11.824 -0.3516 -1.0572 -0.9528
  816TIP3   OH223862   3.536   2.502  12.972  0.3054 -0.4588  0.3816
  816TIP3    H123863   3.540   2.492  12.877  1.7045  1.1901  0.1984
  816TIP3    H223864   3.547   2.414  13.006  0.9634 -0.9535 -1.0006
  817TIP3   OH223865   5.299   0.219  17.017  0.2464 -0.1296 -0.3854
  817TIP3    H123866   5.333   0.200  16.930  0.5116  0.0772 -0.3260
  817TIP3    H223867   5.243   0.144  17.037  2.6740 -1.8037  0.5931
  818TIP3   OH223868   1.771   0.713   4.331  0.1685  0.4653 -0.0517
  818TIP3    H123869   1.678   0.720   4.311 -0.0049  0.9538  0.8337
  818TIP3    H223870   1.815   0.730   4.248 -0.5363 -0.7258 -0.6874
  819TIP3   OH223871   0.299   4.754   0.691  0.5878  0.1650  0.5066
  819TIP3    H123872   0.385   4.755   0.734  0.8251 -0.0308  0.0429
  819TIP3    H223873   0.237   4.763   0.762  1.0007  0.4604  0.8371
  820TIP3   OH223874   0.915   3.693   5.452  0.4333  0.0432 -0.1238
  820TIP3    H123875   0.841   3.706   5.511  0.7479  0.5643  0.1653
  820TIP3    H223876   0.975   3.764   5.473  0.3937  0.4575 -1.3279
  821TIP3   OH223877   5.903   6.194  13.170 -1.1455  0.1087  0.0461
  821TIP3    H123878   5.845   6.130  13.211 -0.1439 -0.5376  0.5056
  821TIP3    H223879   5.859   6.219  13.089 -2.0175 -0.4219  0.3489
  822TIP3   OH223880   0.143   1.159  11.751  0.3314  0.1560  0.3446
  822TIP3    H123881   0.198   1.236  11.734 -0.2173  0.8550  1.5793
  822TIP3    H223882   0.105   1.138  11.666  0.8334  0.9852 -0.1010
  823TIP3   OH223883   1.000   2.917   3.243  0.1271  0.1313 -0.0669
  823TIP3    H123884   1.094   2.923   3.258  0.4805 -0.3380 -1.9211
  823TIP3    H223885   0.980   2.824   3.252 -0.4501  0.3793  1.6745
  824TIP3   OH223886   2.424   2.194   1.294  0.3341 -0.5969 -0.0978
  824TIP3    H123887   2.410   2.277   1.339 -0.3871 -0.4571 -0.5612
  824TIP3    H223888   2.389   2.208   1.206 -1.4320 -1.9389  0.3502
  825TIP3   OH223889   1.431   1.717  17.202  0.3208 -0.1014  0.7697
  825TIP3    H123890   1.499   1.785  17.194  0.2075 -0.1254 -0.7554
  825TIP3    H223891   1.371   1.735  17.130 -0.0054 -1.5021  0.6650
  826TIP3   OH223892   2.192   5.051  15.169 -0.2242 -0.3354  0.3515
  826TIP3    H123893   2.098   5.069  15.176 -0.4181 -0.4373 -1.5253
  826TIP3    H223894   2.232   5.137  15.157 -0.3827 -0.4949 -1.4828
  827TIP3   OH223895   1.624   6.337   2.152  0.5932 -0.1849  0.1397
  827TIP3    H123896   1.585   6.425   2.151 -0.2597 -0.5008  1.9398
  827TIP3    H223897   1.675   6.334   2.233 -0.4172 -1.7483  0.7586
  828TIP3   OH223898   3.347   6.052  16.054  0.4907  0.0857 -0.0786
  828TIP3    H123899   3.371   6.096  16.136  0.4202 -1.0986  0.6022
  828TIP3    H223900   3.328   5.962  16.080 -0.3649 -0.1024 -1.2804
  829TIP3   OH223901   0.940   3.605   2.066  0.2256 -0.7580 -0.4508
  829TIP3    H123902   0.960   3.647   2.150  1.6515 -1.5698 -0.3411
  829TIP3    H223903   0.947   3.511   2.084  0.2802 -0.9489 -1.4154
  830TIP3   OH223904   5.229   1.869  11.864  0.2219  0.5809  0.7227
  830TIP3    H123905   5.176   1.874  11.784  0.2760  1.0429  0.7127
  830TIP3    H223906   5.174   1.820  11.925 -0.0705  0.7466  0.5968
  831TIP3   OH223907   0.957   0.297  14.152 -0.0859  0.1358 -0.3671
  831TIP3    H123908   1.005   0.366  14.197  1.1443  0.2040 -1.6887
  831TIP3    H223909   0.971   0.315  14.059 -1.2424 -0.8702 -0.7624
  832TIP3   OH223910   3.505   4.346   2.632 -0.3601 -0.2159 -0.0576
  832TIP3    H123911   3.575   4.291   2.669 -0.3386  0.1043  0.3807
  832TIP3    H223912   3.469   4.392   2.708  0.7267  1.6464 -0.6273
  833TIP3   OH223913   6.571   6.749   1.483  0.5621  0.1518  0.2996
  833TIP3    H123914   6.623   6.762   1.563 -0.1344 -0.5299  0.8721
  833TIP3    H223915   6.636   6.725   1.417  0.9913 -0.7232  1.0171
  834TIP3   OH223916   0.476   0.815   3.197  0.2882  0.5242  0.2793
  834TIP3    H123917   0.529   0.735   3.198 -0.2596  0.0974 -1.1218
  834TIP3    H223918   0.539   0.886   3.194  0.7979  0.1966  2.1843
  835TIP3   OH223919   3.096   1.490   1.599 -0.1671  1.1299 -0.0305
  835TIP3    H123920   3.032   1.451   1.539 -1.0195  0.9300  0.9666
  835TIP3    H223921   3.170   1.430   1.598 -1.5982 -0.8491  1.7654
  836TIP3   OH223922   1.227   4.445  16.364 -0.2410  0.4950  0.8166
  836TIP3    H123923   1.233   4.448  16.459 -0.2457 -1.0657  0.8928
  836TIP3    H223924   1.173   4.521  16.341  0.0043  1.0571  2.0215
  837TIP3   OH223925   4.551   5.193  14.773  0.0746  0.2326  0.2029
  837TIP3    H123926   4.604   5.153  14.842 -1.4383  0.9346  1.8434
  837TIP3    H223927   4.579   5.148  14.693  1.2654 -1.2356  1.3740
  838TIP3   OH223928   4.479   3.397  11.493 -0.0213 -0.2119 -0.1682
  838TIP3    H123929   4.552   3.450  11.459  0.4526  0.0688  1.2176
  838TIP3    H223930   4.468   3.328  11.428  2.3514 -1.0176  0.1829
  839TIP3   OH223931   3.246   5.307  14.512  0.7110 -0.5217  0.2471
  839TIP3    H123932   3.229   5.318  14.605  2.5777  0.8960  0.4814
  839TIP3    H223933   3.202   5.381  14.470 -1.3513 -1.9368 -0.2209
  840TIP3   OH223934   4.981   0.295  10.647  0.1735 -0.2202 -0.1918
  840TIP3    H123935   4.948   0.243  10.719 -0.3226  2.3072  1.5320
  840TIP3    H223936   5.074   0.310  10.668  0.5695 -1.1875 -1.1837
  841TIP3   OH223937   5.236   1.395   4.216  0.6549 -0.7313 -0.0377
  841TIP3    H123938   5.295   1.373   4.288  0.3127  0.6691  0.7216
  841TIP3    H223939   5.278   1.359   4.138  1.9410 -0.7550  0.6362
  842TIP3   OH223940   2.532   5.671   2.560 -0.2398 -0.2328 -0.0192
  842TIP3    H123941   2.551   5.577   2.569 -0.1826 -0.4181 -1.7293
  842TIP3    H223942   2.608   5.714   2.599 -0.5703 -0.8828  1.3730
  843TIP3   OH223943   2.172   4.026  14.731 -0.2342 -0.2507  0.9012
  843TIP3    H123944   2.187   4.071  14.648  0.4623  2.8364  2.5167
  843TIP3    H223945   2.078   4.014  14.736 -0.3708  0.4027  0.0793
  844TIP3   OH223946   0.998   0.949  12.816 -0.3092  0.1513  0.3289
  844TIP3    H123947   0.992   1.044  12.808 -1.9308  0.0552  0.1063
  844TIP3    H223948   0.925   0.916  12.764  1.1967 -1.3027 -0.9717
  845TIP3   OH223949   5.716   5.077   1.321 -0.0513  0.0809  0.5881
  845TIP3    H123950   5.667   4.996   1.335 -0.9483  0.4670 -0.1558
  845TIP3    H223951   5.741   5.106   1.409  0.2783 -0.9805  0.8663
  846TIP3   OH223952   2.215   4.148  16.397  0.0815 -0.3571 -1.0625
  846TIP3    H123953   2.151   4.085  16.432  2.5390 -1.3153  2.3314
  846TIP3    H223954   2.292   4.094  16.375  1.5177  1.1714 -0.0628
  847TIP3   OH223955   4.360   1.058  14.177 -0.0641  0.7371 -0.1915
  847TIP3    H123956   4.381   0.967  14.199 -0.9061  0.8169  1.0435
  847TIP3    H223957   4.397   1.070  14.089  0.7476 -0.5510 -0.0634
  848TIP3   OH223958   1.449   2.823  10.975 -0.4700 -0.3841  0.0312
  848TIP3    H123959   1.411   2.735  10.975 -1.7251  0.0706 -2.4594
  848TIP3    H223960   1.490   2.832  10.890 -2.8430  2.3547 -1.0011
  849TIP3   OH223961   5.388   0.765  15.232  0.0041 -0.6148  0.4327
  849TIP3    H123962   5.459   0.793  15.289 -1.6073  0.5752  1.9943
  849TIP3    H223963   5.324   0.836  15.237 -0.2710 -0.5160 -2.8443
  850TIP3   OH223964   3.382   0.214   0.673  0.5658  0.4079 -0.3840
  850TIP3    H123965   3.422   0.143   0.722 -0.2191  0.4045  0.2803
  850TIP3    H223966   3.409   0.200   0.583  1.3377 -0.0756 -0.0873
  851TIP3   OH223967   4.913   2.716   3.469 -0.2002 -0.3006 -1.3083
  851TIP3    H123968   4.862   2.650   3.422  0.5323  0.1985 -2.8902
  851TIP3    H223969   4.851   2.789   3.482 -1.3003 -1.5994  1.3295
  852TIP3   OH223970   3.891   6.315  16.966  0.3376  0.2772  0.6076
  852TIP3    H123971   3.853   6.344  16.883 -0.7081  0.6458  1.1958
  852TIP3    H223972   3.983   6.299  16.946  0.2322  0.9344 -0.4777
  853TIP3   OH223973   0.429   2.965  14.358  0.0851 -0.0308  0.1747
  853TIP3    H123974   0.457   3.020  14.284  1.1694 -0.5289  0.1883
  853TIP3    H223975   0.495   2.896  14.362 -0.8047 -0.8784  0.6703
  854TIP3   OH223976   5.772   0.404  14.565  0.1648 -0.2227 -0.2493
  854TIP3    H123977   5.823   0.450  14.633 -0.1037  0.9800 -0.8339
  854TIP3    H223978   5.838   0.372  14.504  0.4169 -1.3964  0.6046
  855TIP3   OH223979   0.993   4.387  15.599 -0.4986 -0.6351 -0.6612
  855TIP3    H123980   1.035   4.463  15.639  0.0400 -0.5591 -1.3552
  855TIP3    H223981   0.904   4.387  15.635 -0.1496 -0.3496  0.2209
  856TIP3   OH223982   1.487   2.183   3.156 -0.3526 -0.1494 -0.2658
  856TIP3    H123983   1.572   2.175   3.113 -1.3354 -0.0465 -2.3825
  856TIP3    H223984   1.448   2.261   3.117 -0.3661  1.5283  2.7510
  857TIP3   OH223985   6.028   0.811   4.121 -0.2582  0.3604 -0.0278
  857TIP3    H123986   6.045   0.719   4.144 -1.5968  0.6409  2.3490
  857TIP3    H223987   5.935   0.813   4.098 -0.4313  1.2359  0.6946
  858TIP3   OH223988   5.711   5.506   4.481 -0.1192  0.0420 -0.2693
  858TIP3    H123989   5.747   5.537   4.564  2.1521 -0.3355 -1.0417
  858TIP3    H223990   5.715   5.411   4.488 -1.7455 -0.0323 -0.0922
  859TIP3   OH223991   2.322   6.395   5.178  0.4006 -0.0024  0.0203
  859TIP3    H123992   2.274   6.401   5.260 -1.6184  1.3147 -1.1661
  859TIP3    H223993   2.278   6.326   5.129  1.3096 -0.4778 -0.1640
  860TIP3   OH223994   2.657   3.636   5.454 -0.0309  0.2399 -0.5873
  860TIP3    H123995   2.626   3.574   5.520 -0.3694  0.1972 -0.7814
  860TIP3    H223996   2.745   3.607   5.433  0.0784  0.2522 -0.1583
  861TIP3   OH223997   2.783   1.790  17.126 -1.0130  0.2783 -1.0069
  861TIP3    H123998   2.776   1.802  17.221 -2.0479 -0.1222 -1.0234
  861TIP3    H223999   2.873   1.759  17.113 -0.8678  0.3107 -0.1598
  862TIP3   OH224000   5.561   3.154   2.694 -0.0782  0.2382  0.0445
  862TIP3    H124001   5.566   3.235   2.745  0.1060  0.2506  0.0078
  862TIP3    H224002   5.584   3.085   2.756 -0.1442  0.2233  0.0524
  863TIP3   OH224003   1.069   2.630  11.303  0.0425 -0.6264 -0.5578
  863TIP3    H124004   1.009   2.702  11.284 -0.5963  0.8782  5.2433
  863TIP3    H224005   1.149   2.673  11.334 -0.0753 -2.2461  2.3313
  864TIP3   OH224006   1.921   5.154  10.605 -0.0307 -0.4646 -0.0978
  864TIP3    H124007   1.943   5.156  10.512 -0.7356  0.6513 -0.2634
  864TIP3    H224008   2.003   5.130  10.649  0.6821  0.4148 -0.9095
  865TIP3   OH224009   5.521   0.112   4.022  0.3859 -0.3123  0.4432
  865TIP3    H124010   5.515   0.049   4.094 -0.9182 -0.9332 -0.1634
  865TIP3    H224011   5.443   0.095   3.970  0.7187  0.9058 -0.4908
  866TIP3   OH224012   1.296   4.024  15.476  0.3272 -0.3048 -0.7440
  866TIP3    H124013   1.305   4.009  15.382 -1.9140  0.5499 -1.1779
  866TIP3    H224014   1.204   4.003  15.494  0.7775 -0.6562  1.3022
  867TIP3   OH224015   6.489   4.783  16.953  0.1281  0.2179  0.4151
  867TIP3    H124016   6.434   4.785  17.031  0.1369 -1.4039  0.4974
  867TIP3    H224017   6.570   4.740  16.981 -0.1077 -0.9677 -0.5949
  868TIP3   OH224018   0.615   1.287  12.765 -0.4237  0.0770 -0.3053
  868TIP3    H124019   0.523   1.312  12.760 -0.9226 -1.8057 -2.6386
  868TIP3    H224020   0.663   1.367  12.742 -1.6045  0.5137 -1.3560
  869TIP3   OH224021   5.980   0.153  14.009 -0.3673  0.1854 -0.8095
  869TIP3    H124022   5.901   0.101  14.024 -0.7676  1.1776  0.8810
  869TIP3    H224023   6.038   0.130  14.081  0.3752  0.4002 -1.3243
  870TIP3   OH224024   0.967   2.754   1.254 -0.2313  0.3103 -0.4932
  870TIP3    H124025   1.046   2.702   1.269 -0.6126 -0.2583 -0.3962
  870TIP3    H224026   0.932   2.719   1.171 -0.5233  0.3722 -0.3960
  871TIP3   OH224027   4.374   0.924   2.730  0.4883 -0.1428 -0.2682
  871TIP3    H124028   4.287   0.955   2.753  1.0530  0.2220  1.5013
  871TIP3    H224029   4.410   0.992   2.674 -0.0792  0.0625 -0.3834
  872TIP3   OH224030   2.440   6.757   2.636 -0.2070  0.1408 -0.2615
  872TIP3    H124031   2.378   6.823   2.606  1.0491  0.7766 -1.5577
  872TIP3    H224032   2.504   6.750   2.566  1.3546 -0.2985  1.1397
  873TIP3   OH224033   4.147   4.561  15.532 -0.0164  0.6792  0.0766
  873TIP3    H124034   4.205   4.489  15.555  0.3673  1.0299  0.2315
  873TIP3    H224035   4.060   4.529  15.553  0.0624 -0.0404 -0.6284
  874TIP3   OH224036   6.052   3.376  16.367  0.1135  0.1550 -0.8401
  874TIP3    H124037   6.127   3.344  16.318  0.1036 -0.6451 -0.3451
  874TIP3    H224038   6.090   3.434  16.434  0.3430 -0.5827 -0.3159
  875TIP3   OH224039   5.021   6.189   1.110 -0.2232  0.1775 -0.5709
  875TIP3    H124040   4.992   6.099   1.091  1.8654 -0.6838 -0.0602
  875TIP3    H224041   4.993   6.240   1.034  0.9465 -1.5096 -2.2524
  876TIP3   OH224042   0.218   1.804   3.381 -0.2054 -0.3330 -0.6629
  876TIP3    H124043   0.191   1.720   3.343 -0.7432 -0.9319  0.9468
  876TIP3    H224044   0.207   1.792   3.475  2.5396  0.5369 -0.1400
  877TIP3   OH224045   2.068   4.420  14.505  0.2919 -0.0859  0.3573
  877TIP3    H124046   2.133   4.476  14.463  1.0934 -0.8269  0.5690
  877TIP3    H224047   2.116   4.340  14.527 -0.8515 -0.9131 -0.0587
  878TIP3   OH224048   6.656   6.298  12.197 -0.5419 -0.6422 -0.0879
  878TIP3    H124049   6.682   6.346  12.275  0.8107 -0.0282 -0.8735
  878TIP3    H224050   6.683   6.208  12.214 -0.3273 -0.5288  0.1778
  879TIP3   OH224051   1.117   0.127   4.500  0.0911  0.4865 -0.1187
  879TIP3    H124052   1.208   0.152   4.515  0.1856 -1.0478  2.5302
  879TIP3    H224053   1.081   0.114   4.587 -2.3544 -0.1132 -1.1295
  880TIP3   OH224054   4.181   4.024  13.375  0.6097 -0.4521  0.1415
  880TIP3    H124055   4.274   4.022  13.351  0.5637 -0.3060 -0.0440
  880TIP3    H224056   4.168   4.110  13.414  0.3426 -0.1200 -0.6623
  881TIP3   OH224057   4.349   0.121   5.624 -0.1580 -0.0127  0.1687
  881TIP3    H124058   4.320   0.197   5.674  2.0116  1.0112 -0.0265
  881TIP3    H224059   4.443   0.135   5.610  0.1603 -2.3548 -0.5522
  882TIP3   OH224060   6.433   6.079   4.733 -0.5023 -0.0115 -0.6108
  882TIP3    H124061   6.479   6.024   4.797 -0.1977  1.5376  0.5341
  882TIP3    H224062   6.450   6.169   4.761  0.2027  0.7704 -3.2474
  883TIP3   OH224063   4.076   4.100  12.015  0.1431  0.0469 -0.5096
  883TIP3    H124064   4.151   4.098  11.956 -0.8931 -0.0327 -1.8592
  883TIP3    H224065   4.108   4.145  12.093  1.6040 -0.0436 -1.0344
  884TIP3   OH224066   6.476   2.252  10.614  0.1438  0.3819 -0.2003
  884TIP3    H124067   6.467   2.197  10.692 -0.3947  0.9592  0.1544
  884TIP3    H224068   6.391   2.246  10.571  0.4175  0.1206 -0.7102
  885TIP3   OH224069   0.196   1.811   4.056  0.2621  0.6906  0.2076
  885TIP3    H124070   0.268   1.860   4.014 -0.5077  0.4642 -1.4890
  885TIP3    H224071   0.239   1.752   4.117  1.4256  1.3747  0.0874
  886TIP3   OH224072   1.843   2.987  14.794  0.0865 -0.4143  0.0033
  886TIP3    H124073   1.903   3.060  14.805 -0.8766  0.7111 -1.6883
  886TIP3    H224074   1.882   2.934  14.724 -1.2852  0.8821 -1.8493
  887TIP3   OH224075   2.811   3.393   3.414 -0.2527  0.3693 -0.2867
  887TIP3    H124076   2.847   3.403   3.502 -1.8371  0.6333  0.3790
  887TIP3    H224077   2.727   3.349   3.427 -0.6462  0.6520 -1.6418
  888TIP3   OH224078   3.885   5.399  12.801  0.3643  0.0822 -0.2482
  888TIP3    H124079   3.879   5.449  12.882 -0.7530 -0.5322  0.0726
  888TIP3    H224080   3.892   5.464  12.732 -1.2138  0.7068  0.1434
  889TIP3   OH224081   5.356   4.952   1.355 -0.0838 -0.9183  0.1861
  889TIP3    H124082   5.270   4.975   1.389  0.1450  0.8629 -0.3334
  889TIP3    H224083   5.340   4.923   1.265 -0.1343 -0.6249  0.1023
  890TIP3   OH224084   0.234   1.030  17.227 -0.1090 -0.0790 -0.4217
  890TIP3    H124085   0.264   1.017  17.317 -2.7103  1.2616  0.7623
  890TIP3    H224086   0.258   1.120  17.206 -0.4844 -0.0296 -0.6483
  891TIP3   OH224087   1.330   0.866  16.319 -0.1243  0.4736  0.8215
  891TIP3    H124088   1.402   0.806  16.339 -0.3682  0.2552  1.0483
  891TIP3    H224089   1.281   0.873  16.400  0.4820  1.7961  1.1149
  892TIP3   OH224090   2.415   4.779   3.703  0.6388  0.1233  0.3264
  892TIP3    H124091   2.466   4.711   3.660  1.6715  1.0351  0.0606
  892TIP3    H224092   2.354   4.731   3.760  1.8575 -1.0112  0.7342
  893TIP3   OH224093   5.867   5.347  16.460 -0.0692  0.2289  0.1305
  893TIP3    H124094   5.833   5.436  16.463 -0.9597 -0.1360  1.2938
  893TIP3    H224095   5.959   5.355  16.485 -0.1557  0.8113  0.2667
  894TIP3   OH224096   0.187   4.724  12.926  0.0280  0.2691 -0.2178
  894TIP3    H124097   0.164   4.631  12.917  1.2157 -0.0743  0.2072
  894TIP3    H224098   0.102   4.768  12.936 -0.8243 -0.3724 -3.3133
  895TIP3   OH224099   3.890   0.326  14.391 -0.0511 -0.3719 -0.1660
  895TIP3    H124100   3.854   0.307  14.477  1.4767 -1.3755  0.2910
  895TIP3    H224101   3.859   0.414  14.371 -1.8630 -0.7790  0.6153
  896TIP3   OH224102   0.501   0.114   3.913 -0.6100  0.0345 -0.0656
  896TIP3    H124103   0.592   0.143   3.912 -0.8162  1.2809  2.9931
  896TIP3    H224104   0.462   0.155   3.836  1.3932 -0.6897 -1.5536
  897TIP3   OH224105   5.615   2.731  17.170 -0.2627 -0.2981 -0.5981
  897TIP3    H124106   5.683   2.793  17.144  0.1807  0.4847  2.0973
  897TIP3    H224107   5.557   2.725  17.094  1.0603  1.4752 -1.8267
  898TIP3   OH224108   2.346   6.759  14.172 -0.0825 -0.0641  0.1070
  898TIP3    H124109   2.382   6.749  14.261  0.3798  0.0352 -0.0677
  898TIP3    H224110   2.402   6.824  14.130 -1.5306  1.4544  0.4022
  899TIP3   OH224111   5.916   1.288  11.066 -0.1133 -0.8721  0.2865
  899TIP3    H124112   5.829   1.325  11.078  0.5465  0.6495  0.5823
  899TIP3    H224113   5.933   1.297  10.972  0.5828  0.9487  0.5374
  900TIP3   OH224114   2.042   3.805  15.175 -0.3026 -0.1918  0.2137
  900TIP3    H124115   1.962   3.814  15.124 -1.1845 -2.2633  1.0910
  900TIP3    H224116   2.090   3.734  15.132 -0.1211 -0.6193  1.0976
  901TIP3   OH224117   2.914   1.842   5.499  0.0537  0.1436  0.1704
  901TIP3    H124118   2.993   1.875   5.542  0.8818  2.1331 -2.6064
  901TIP3    H224119   2.946   1.798   5.420 -1.5744  1.3923 -1.2580
  902TIP3   OH224120   0.659   4.569  15.215  0.2521  0.1889 -0.6153
  902TIP3    H124121   0.742   4.554  15.170  1.7697  0.4525  1.9156
  902TIP3    H224122   0.633   4.657  15.189  2.2403  1.2149  0.6478
  903TIP3   OH224123   1.711   3.495  13.808 -0.0820  0.0085  0.2401
  903TIP3    H124124   1.694   3.461  13.895  0.0238 -0.9171 -0.0877
  903TIP3    H224125   1.730   3.588  13.821 -2.1900  0.3746  0.9501
  904TIP3   OH224126   4.766   4.154   2.770 -0.0334 -0.0701  0.0122
  904TIP3    H124127   4.812   4.088   2.822  1.1639 -0.4055 -1.3974
  904TIP3    H224128   4.808   4.150   2.684 -1.2102  1.2252 -0.6627
  905TIP3   OH224129   6.224   1.156  16.885  0.2301  0.0288 -0.3117
  905TIP3    H124130   6.220   1.213  16.807 -0.9682  0.7449  0.2420
  905TIP3    H224131   6.149   1.097  16.874  0.3501 -0.1888  0.0614
  906TIP3   OH224132   2.483   5.027  13.732  0.3037 -0.3191 -0.9502
  906TIP3    H124133   2.541   4.998  13.661  0.9922  1.3290 -1.1044
  906TIP3    H224134   2.419   4.956  13.741  0.7482 -0.9780 -2.5938
  907TIP3   OH224135   6.273   4.764  10.754 -0.0870  0.5271 -0.3231
  907TIP3    H124136   6.190   4.723  10.730 -0.6878  0.3933  1.8013
  907TIP3    H224137   6.261   4.857  10.734 -0.5822  0.4469 -0.4069
  908TIP3   OH224138   0.643   3.229  17.281 -0.0939  0.5924  0.1060
  908TIP3    H124139   0.619   3.198  17.369  1.8365  1.4743  1.0135
  908TIP3    H224140   0.581   3.299  17.263 -1.8791 -1.0051 -0.1967
  909TIP3   OH224141   2.383   4.305   1.357 -0.6984 -0.2279  0.6182
  909TIP3    H124142   2.383   4.400   1.343  0.2546 -0.1794  0.8978
  909TIP3    H224143   2.359   4.295   1.449  2.7338 -0.0317  1.6782
  910TIP3   OH224144   4.219   0.005  13.203 -0.0772 -0.2670  0.6037
  910TIP3    H124145   4.135   0.016  13.158 -0.6142 -0.2459  1.5761
  910TIP3    H224146   4.195  -0.015  13.293  0.9709 -0.7719  0.7866
  911TIP3   OH224147   3.501   5.631   3.830  0.9054 -0.1289  0.4578
  911TIP3    H124148   3.485   5.538   3.846 -1.3497  0.2232  0.6168
  911TIP3    H224149   3.443   5.676   3.891  0.4814  1.3577 -0.9532
  912TIP3   OH224150   4.683   5.393   5.426 -0.2678  0.1479  0.1779
  912TIP3    H124151   4.595   5.402   5.390  0.8471 -0.0592 -2.8110
  912TIP3    H224152   4.704   5.300   5.418  1.0178  0.5260 -1.2432
  913TIP3   OH224153   0.789   4.790   1.388 -0.2106 -0.6426 -0.7756
  913TIP3    H124154   0.813   4.829   1.473  1.3806 -2.1978 -0.4499
  913TIP3    H224155   0.856   4.822   1.328 -1.3330  0.4459 -1.4809
  914TIP3   OH224156   5.510   3.158  12.375 -1.3489 -0.3020  0.3268
  914TIP3    H124157   5.525   3.249  12.348  1.1394 -0.0784  2.0802
  914TIP3    H224158   5.550   3.153  12.462 -1.4186 -3.0896  0.2643
  915TIP3   OH224159   3.202   5.705   1.403 -0.1021 -0.0847  0.2241
  915TIP3    H124160   3.157   5.728   1.485 -2.6258  1.5379 -1.4842
  915TIP3    H224161   3.282   5.758   1.404 -0.6833  0.8070  1.1093
  916TIP3   OH224162   1.926   1.138   5.385 -0.1073 -0.1218  0.2388
  916TIP3    H124163   1.974   1.199   5.329 -0.7873 -0.3441 -0.6120
  916TIP3    H224164   1.985   1.063   5.393  0.1003  0.0140  0.0260
  917TIP3   OH224165   4.869   1.343  12.615  0.0659  0.5354 -0.0346
  917TIP3    H124166   4.958   1.351  12.649  0.1714  1.7129 -0.5144
  917TIP3    H224167   4.846   1.433  12.589 -1.5021  0.3836  0.6867
  918TIP3   OH224168   3.666   2.789   6.097 -0.0603 -0.4278  0.4351
  918TIP3    H124169   3.719   2.731   6.152 -0.8527  0.0751  1.7655
  918TIP3    H224170   3.630   2.854   6.157  0.9079  1.5638 -1.0247
  919TIP3   OH224171   6.485   5.583   3.032 -0.5353  0.0744  0.3971
  919TIP3    H124172   6.513   5.650   2.970 -1.9746  0.9541  0.6557
  919TIP3    H224173   6.535   5.505   3.007 -1.0591  0.3811 -1.8835
  920TIP3   OH224174   3.265   3.092  15.813  0.5901 -0.7832  0.1686
  920TIP3    H124175   3.276   3.169  15.869  2.7484 -1.1331  0.2854
  920TIP3    H224176   3.255   3.128  15.725 -1.5108 -0.2902  0.5495
  921TIP3   OH224177   2.922   2.932   4.327 -0.3619  0.4173  0.1767
  921TIP3    H124178   2.997   2.973   4.284  0.3056 -0.1541  0.7609
  921TIP3    H224179   2.960   2.886   4.401 -1.3224  0.2543  0.5830
  922TIP3   OH224180   2.369   0.833   4.453  0.4344  0.2337  0.0885
  922TIP3    H124181   2.374   0.924   4.425  1.1218 -0.2760 -1.6210
  922TIP3    H224182   2.458   0.812   4.481  0.6342 -0.2558 -0.8383
  923TIP3   OH224183   1.301   6.080  12.112 -0.7204 -0.5033  0.4260
  923TIP3    H124184   1.321   6.140  12.041 -0.1813 -1.6555 -0.4207
  923TIP3    H224185   1.241   6.129  12.169  0.0753  0.9836  0.0178
  924TIP3   OH224186   6.479   0.426  12.757 -0.2075  0.2419  0.0497
  924TIP3    H124187   6.565   0.409  12.795 -0.0702  2.1355  0.7088
  924TIP3    H224188   6.485   0.515  12.723 -1.7736  0.2408 -0.3091
  925TIP3   OH224189   2.940   4.274   5.023  0.1202 -0.4636 -0.9256
  925TIP3    H124190   3.002   4.260   5.095 -0.4624 -0.4340 -0.4085
  925TIP3    H224191   2.946   4.194   4.971  2.4674  0.5487 -2.3599
  926TIP3   OH224192   4.618   3.320   2.560 -0.1293  0.2258  0.7483
  926TIP3    H124193   4.675   3.382   2.513 -0.6395 -1.7876 -2.8361
  926TIP3    H224194   4.611   3.357   2.648  1.7326  3.8031 -0.4002
  927TIP3   OH224195   2.303   1.724   3.320  0.2865  0.2825 -0.2479
  927TIP3    H124196   2.332   1.633   3.319 -1.8817 -0.4806  0.3749
  927TIP3    H224197   2.364   1.769   3.262  3.3075 -0.9024  1.7573
  928TIP3   OH224198   3.970   0.841   1.685  0.3665 -0.7097  0.4086
  928TIP3    H124199   3.910   0.769   1.705 -0.0665 -1.0589 -1.8841
  928TIP3    H224200   3.913   0.917   1.672  0.6466 -0.4351  0.7664
  929TIP3   OH224201   5.441   1.644  16.227 -0.6584 -0.8111 -0.2191
  929TIP3    H124202   5.474   1.592  16.154  1.5183 -0.4223  0.4091
  929TIP3    H224203   5.409   1.580  16.290 -0.3018 -1.2758 -0.5000
  930TIP3   OH224204   2.362   6.550   6.011  0.2885  0.3090 -0.2119
  930TIP3    H124205   2.388   6.487   6.079 -1.5775 -1.2293 -0.8413
  930TIP3    H224206   2.331   6.626   6.061 -1.3047 -0.8935  0.7410
  931TIP3   OH224207   4.852   3.865  14.382 -0.3452  0.1389  0.4002
  931TIP3    H124208   4.842   3.957  14.360  0.3469  0.5563  1.7657
  931TIP3    H224209   4.776   3.823  14.340 -1.5996  1.5614  1.1296
  932TIP3   OH224210   4.548   4.945  14.146  0.5648  0.9988  0.3523
  932TIP3    H124211   4.549   4.918  14.054 -0.6398  1.3321  0.2275
  932TIP3    H224212   4.575   5.037  14.145  0.3825  1.0515  0.3157
  933TIP3   OH224213   3.896   4.534  15.911 -0.1022 -0.9128  0.2886
  933TIP3    H124214   3.878   4.613  15.962 -0.6249 -0.3441 -0.7547
  933TIP3    H224215   3.812   4.490  15.903 -0.6286  0.3661 -2.2901
  934TIP3   OH224216   5.783   5.038  10.667  0.3900  0.3334 -0.0238
  934TIP3    H124217   5.858   4.995  10.627  0.0966 -1.1989  0.9819
  934TIP3    H224218   5.708   4.985  10.642 -0.3437  1.6316 -0.7019
  935TIP3   OH224219   1.011   1.537  11.142 -0.1317  0.0193  0.3558
  935TIP3    H124220   0.934   1.523  11.197 -1.0783  0.5558 -0.8026
  935TIP3    H224221   1.082   1.555  11.204 -1.0474  0.0818  1.4100
  936TIP3   OH224222   5.366   6.068  16.506  0.5532 -0.1104  0.2735
  936TIP3    H124223   5.325   6.064  16.420  0.2834 -2.1898  0.4475
  936TIP3    H224224   5.396   5.978  16.523 -0.5317 -0.0710  2.8911
  937TIP3   OH224225   2.073   6.270   5.270 -0.0293  0.2149  0.0467
  937TIP3    H124226   2.039   6.191   5.313 -0.7388  0.2491 -0.4392
  937TIP3    H224227   2.115   6.319   5.341 -0.9008  0.1190  0.6520
  938TIP3   OH224228   2.470   2.340  17.166  0.1127  0.4541  0.6281
  938TIP3    H124229   2.434   2.271  17.222  0.1065 -1.7859 -1.9202
  938TIP3    H224230   2.561   2.349  17.194  0.7518 -2.2148 -0.2631
  939TIP3   OH224231   3.188   2.250  16.284  0.0111  0.3801  0.7534
  939TIP3    H124232   3.258   2.300  16.242  0.2663  0.9016  1.7759
  939TIP3    H224233   3.213   2.158  16.271  0.8439  0.5614  1.0403
  940TIP3   OH224234   5.231   4.780  14.602  0.4963 -0.2391  0.1002
  940TIP3    H124235   5.291   4.774  14.528  0.4692 -0.6420  0.1092
  940TIP3    H224236   5.172   4.852  14.580 -0.5187 -1.3672 -1.0052
  941TIP3   OH224237   4.791   0.624  15.711  0.0762 -0.1510  0.1918
  941TIP3    H124238   4.702   0.648  15.736 -0.6287 -1.5437 -0.8499
  941TIP3    H224239   4.790   0.528  15.709  1.4356 -0.1717 -0.4211
  942TIP3   OH224240   2.244   0.590  11.542 -0.1074 -0.4840 -0.3053
  942TIP3    H124241   2.313   0.584  11.477  0.7575  1.9435  0.2483
  942TIP3    H224242   2.191   0.665  11.514 -1.6170 -1.3487  0.1133
  943TIP3   OH224243   0.980   2.429   1.315  0.0208  0.3414 -0.4890
  943TIP3    H124244   0.944   2.419   1.227  0.9216 -2.1790 -0.6611
  943TIP3    H224245   1.053   2.367   1.318  2.1282  2.7021  0.9990
  944TIP3   OH224246   5.405   0.301  12.503 -0.1475  0.1955  0.4124
  944TIP3    H124247   5.336   0.286  12.438 -0.7739  0.0273  1.0994
  944TIP3    H224248   5.366   0.362  12.566 -0.2255 -1.0540  1.6340
  945TIP3   OH224249   3.579   2.942  15.978 -0.1585 -0.0560 -0.5774
  945TIP3    H124250   3.622   3.025  15.998  0.3085 -0.3452 -0.3744
  945TIP3    H224251   3.621   2.911  15.898  1.1708 -1.1370  0.5012
  946TIP3   OH224252   2.322   1.987   1.438  0.2127  0.6587  0.4931
  946TIP3    H124253   2.366   2.042   1.373  1.2047  0.1321  0.7024
  946TIP3    H224254   2.389   1.926   1.468 -0.7210 -0.3237  0.6661
  947TIP3   OH224255   6.563   3.605  13.462 -0.3349 -0.5072  0.2089
  947TIP3    H124256   6.643   3.657  13.465 -0.6499  0.2477 -2.2853
  947TIP3    H224257   6.589   3.522  13.421 -1.0479  0.3423 -2.0849
  948TIP3   OH224258   1.912   6.690  14.371  0.2987  0.2279  0.0654
  948TIP3    H124259   1.881   6.698  14.281  0.0123  1.2629  0.2380
  948TIP3    H224260   1.862   6.617  14.407  0.3816 -0.1635 -0.5931
  949TIP3   OH224261   5.669   6.292  15.162 -0.4612  0.6529 -0.0525
  949TIP3    H124262   5.599   6.230  15.142  0.1609 -0.3498  0.7890
  949TIP3    H224263   5.749   6.239  15.163  0.0305  1.3788  1.1398
  950TIP3   OH224264   2.530   2.559  15.779 -0.1225  0.3719  0.4290
  950TIP3    H124265   2.534   2.577  15.685  1.5268 -0.6843  0.2521
  950TIP3    H224266   2.504   2.467  15.785 -1.2746  0.7260  1.0576
  951TIP3   OH224267   5.817   0.880   2.437 -0.4285 -0.0309 -0.1152
  951TIP3    H124268   5.775   0.911   2.517  0.4394 -0.6810  0.6006
  951TIP3    H224269   5.911   0.891   2.452 -0.2392 -0.3888 -0.9518
  952TIP3   OH224270   0.942   0.471  14.883 -0.0458  0.4274 -0.4050
  952TIP3    H124271   1.005   0.536  14.915  1.7861 -1.4035 -0.0753
  952TIP3    H224272   0.996   0.397  14.855 -1.9907 -0.5995 -1.6953
  953TIP3   OH224273   1.135   1.362  15.304  0.0170  0.2241  0.2267
  953TIP3    H124274   1.089   1.433  15.259 -1.0172  0.9084  2.2689
  953TIP3    H224275   1.146   1.393  15.394 -0.2569 -2.1017  1.1309
  954TIP3   OH224276   3.859   4.875   0.566 -0.6074 -0.1229  0.4701
  954TIP3    H124277   3.930   4.825   0.524 -0.4216  1.0628 -0.7195
  954TIP3    H224278   3.803   4.808   0.605  0.1372 -1.2071 -0.2355
  955TIP3   OH224279   4.702   4.666  14.400 -0.5535 -0.2410 -0.0404
  955TIP3    H124280   4.617   4.696  14.432  0.2792  0.5769  1.5114
  955TIP3    H224281   4.691   4.663  14.305 -1.6770  1.9550 -0.0556
  956TIP3   OH224282   5.034   5.806   0.585 -0.3379 -0.1486 -0.0757
  956TIP3    H124283   4.983   5.743   0.636 -0.4147  0.3809  0.5021
  956TIP3    H224284   5.113   5.758   0.560 -1.2974 -1.1264 -1.3591
  957TIP3   OH224285   5.438   5.018  15.251  0.4486  0.2893 -0.2157
  957TIP3    H124286   5.444   4.928  15.219 -0.8078 -0.2236  0.8996
  957TIP3    H224287   5.360   5.019  15.306  1.2705  1.6927  1.0064
  958TIP3   OH224288   4.675   6.154   0.985 -0.2126 -0.0511  0.0255
  958TIP3    H124289   4.698   6.218   0.918  0.5811 -1.7099 -1.3550
  958TIP3    H224290   4.628   6.085   0.938  2.2330 -2.3408  0.6683
  959TIP3   OH224291   1.236   4.879   0.929  0.3214 -0.4511  0.4636
  959TIP3    H124292   1.175   4.946   0.897  0.2508 -1.0065 -0.5830
  959TIP3    H224293   1.214   4.870   1.022 -0.3236  0.2778  0.3943
  960TIP3   OH224294   5.694   3.278   1.106 -0.0643 -0.0260  0.0526
  960TIP3    H124295   5.653   3.354   1.146  0.9544 -0.2071  1.5349
  960TIP3    H224296   5.764   3.313   1.052  0.3263  0.1102  0.6393
  961TIP3   OH224297   0.442   2.180   5.765  0.3682 -0.1563  0.0901
  961TIP3    H124298   0.515   2.196   5.826  0.6058 -1.5424  0.2071
  961TIP3    H224299   0.459   2.240   5.692 -0.1204  1.8163  1.4987
  962TIP3   OH224300   1.977   6.059   5.398  0.0914  0.0865  0.2962
  962TIP3    H124301   1.889   6.073   5.433  0.0650 -0.9233  0.6496
  962TIP3    H224302   2.023   6.011   5.467  0.3299 -1.0955 -0.6537
  963TIP3   OH224303   2.789   4.174   1.368 -0.0556  0.2023 -0.0896
  963TIP3    H124304   2.832   4.249   1.328 -0.4838  1.3006  1.4244
  963TIP3    H224305   2.821   4.173   1.458 -2.1423  0.2472  0.6946
  964TIP3   OH224306   6.679   5.644   2.484 -0.1627 -0.3974  0.4639
  964TIP3    H124307   6.748   5.698   2.523 -0.7589  0.3913  0.4725
  964TIP3    H224308   6.597   5.686   2.512 -0.7201 -2.3933  2.0238
  965TIP3   OH224309   4.574   2.065   4.052 -0.1672 -0.5148 -0.3205
  965TIP3    H124310   4.520   2.041   3.977 -0.5702  1.3347 -0.6697
  965TIP3    H224311   4.512   2.099   4.117  0.5102  2.5446 -1.0861
  966TIP3   OH224312   0.019   4.257  12.824  0.0637 -0.4972 -0.0225
  966TIP3    H124313  -0.064   4.222  12.857  0.8260 -0.6680  1.8323
  966TIP3    H224314   0.016   4.240  12.730 -0.7629 -3.1354  0.3936
  967TIP3   OH224315   0.180   4.893  14.648 -0.2663 -0.4170  0.4914
  967TIP3    H124316   0.093   4.873  14.614  0.1701  0.3851 -1.1926
  967TIP3    H224317   0.204   4.816  14.700 -1.8748 -0.7292  0.8237
  968TIP3   OH224318   0.348   5.763  15.421 -0.2871 -0.2718 -0.2989
  968TIP3    H124319   0.342   5.726  15.333 -0.2705  2.9003 -1.7476
  968TIP3    H224320   0.377   5.853  15.408  0.0742  0.2150  3.0106
  969TIP3   OH224321   2.662   2.461   0.739 -0.0928 -0.1328  0.3890
  969TIP3    H124322   2.681   2.430   0.650 -1.3625 -1.8085  0.6345
  969TIP3    H224323   2.715   2.540   0.750  0.5336 -0.2281 -1.6381
  970TIP3   OH224324   5.850   3.701  12.967  0.2418  0.5948  0.4067
  970TIP3    H124325   5.921   3.653  12.924 -0.6776  0.0300 -0.5085
  970TIP3    H224326   5.805   3.636  13.020 -0.8834  0.4619 -0.6794
  971TIP3   OH224327   6.729   0.624   4.370  0.0648 -0.2200 -0.2486
  971TIP3    H124328   6.771   0.661   4.292 -0.1502  1.0764  0.2260
  971TIP3    H224329   6.795   0.566   4.408  0.8346  0.5337 -0.4049
  972TIP3   OH224330   1.080   3.573  11.132 -0.4348 -0.1970 -0.0150
  972TIP3    H124331   1.105   3.502  11.191 -0.6765  0.0393  0.3740
  972TIP3    H224332   1.000   3.543  11.090 -1.1355  0.2941  0.9525
  973TIP3   OH224333   1.406   1.872  14.904 -0.1470  0.0984 -0.2873
  973TIP3    H124334   1.323   1.830  14.930 -0.3385 -0.5007 -1.7529
  973TIP3    H224335   1.393   1.895  14.812  1.3819 -0.1954 -0.6044
  974TIP3   OH224336   3.438   4.349  12.883  0.2054 -0.1062  0.4379
  974TIP3    H124337   3.442   4.379  12.792 -0.7785 -0.0675  0.4025
  974TIP3    H224338   3.356   4.300  12.889 -0.8009  1.6359  1.8262
  975TIP3   OH224339   1.307   4.150  13.671  0.1244  0.0795 -0.2248
  975TIP3    H124340   1.220   4.142  13.709 -0.6331 -0.5364 -1.9797
  975TIP3    H224341   1.367   4.149  13.746 -1.3687  0.8192  1.0331
  976TIP3   OH224342   4.186   4.523   3.358 -0.0505  0.1474 -0.1823
  976TIP3    H124343   4.153   4.584   3.423 -1.1530  0.1025 -0.6754
  976TIP3    H224344   4.108   4.479   3.324  0.6865 -1.4586  0.0744
  977TIP3   OH224345   0.363   6.729   5.645 -0.1000  0.1335 -0.9303
  977TIP3    H124346   0.439   6.674   5.626 -0.7496 -0.7750 -0.9414
  977TIP3    H224347   0.335   6.760   5.559 -0.1942 -0.1459 -1.0023
  978TIP3   OH224348   0.043   4.972  13.504 -0.6283 -0.8280 -0.1077
  978TIP3    H124349   0.128   4.937  13.475  0.5768  1.4793  0.3321
  978TIP3    H224350   0.046   4.965  13.600 -0.6936 -0.2607 -0.0618
  979TIP3   OH224351   0.131   3.802  10.890 -0.1712  0.5973  0.3838
  979TIP3    H124352   0.102   3.893  10.883  2.2067  1.3699  0.0195
  979TIP3    H224353   0.051   3.755  10.916 -3.2362  1.6379 -5.4372
  980TIP3   OH224354   5.828   4.191  15.506  0.3681  0.6144 -0.2912
  980TIP3    H124355   5.757   4.243  15.544  0.6137  0.1413  0.8543
  980TIP3    H224356   5.784   4.129  15.448  0.0359  1.7623 -1.3077
  981TIP3   OH224357   3.326   4.269   0.800 -0.6373  0.1887 -0.3564
  981TIP3    H124358   3.394   4.222   0.849  0.3630  0.7673 -1.1518
  981TIP3    H224359   3.251   4.210   0.802 -0.0456 -0.5766  0.3437
  982TIP3   OH224360   5.721   0.097  16.686 -0.0741 -0.4192 -0.1008
  982TIP3    H124361   5.775   0.140  16.751  0.9744 -1.6347 -0.1219
  982TIP3    H224362   5.635   0.090  16.726  0.5357 -1.0812  1.1266
  983TIP3   OH224363   2.585   6.112   2.229 -0.1827  0.3613 -0.2462
  983TIP3    H124364   2.534   6.033   2.245 -2.7356  1.7572 -0.7824
  983TIP3    H224365   2.674   6.089   2.253 -1.2556 -1.8868  2.1473
  984TIP3   OH224366   3.399   2.610   1.952 -0.2028 -0.5971  0.2167
  984TIP3    H124367   3.355   2.553   2.015 -1.3513  1.4850  1.4002
  984TIP3    H224368   3.482   2.566   1.934  0.2518 -1.2192  3.3159
  985TIP3   OH224369   5.841   5.082  13.985  0.0044  0.0614  0.3389
  985TIP3    H124370   5.835   5.066  14.079  2.2540 -1.2318  0.3194
  985TIP3    H224371   5.751   5.069  13.953 -0.7575  0.3438  2.2489
  986TIP3   OH224372   6.518   3.058  14.415 -0.3476  0.8364  0.9695
  986TIP3    H124373   6.526   3.079  14.322  3.1990  0.8749  1.1575
  986TIP3    H224374   6.424   3.045  14.428 -0.8549 -1.9487 -3.2271
  987TIP3   OH224375   1.779   1.263  15.830 -0.3493  0.2995  0.5565
  987TIP3    H124376   1.809   1.185  15.878 -0.0923  0.1723  0.1945
  987TIP3    H224377   1.854   1.289  15.777 -0.4283  0.8098  0.6885
  988TIP3   OH224378   5.648   1.255  16.919 -0.6321  0.2416 -0.0723
  988TIP3    H124379   5.706   1.187  16.884  0.7159  1.1144  0.3659
  988TIP3    H224380   5.684   1.337  16.885 -2.8949  0.7216 -1.5135
  989TIP3   OH224381   4.633   3.729  12.225 -0.0213 -0.4162 -0.3819
  989TIP3    H124382   4.668   3.807  12.183  0.5877 -0.1999  0.4841
  989TIP3    H224383   4.707   3.693  12.275 -1.2337  0.6996  2.4433
  990TIP3   OH224384   5.776   0.850  15.550 -0.8207  0.2392  0.0445
  990TIP3    H124385   5.757   0.850  15.644  0.9112 -1.7086  0.4676
  990TIP3    H224386   5.866   0.883  15.545 -1.3247  1.5425 -1.0946
  991TIP3   OH224387   6.435   2.507   4.978 -0.1459  0.4703  0.2757
  991TIP3    H124388   6.527   2.481   4.984 -0.2764  0.4064  4.0736
  991TIP3    H224389   6.437   2.596   4.942  1.2573  0.0793 -0.6989
  992TIP3   OH224390   4.454   2.656  12.610  0.7152  0.1633  0.5920
  992TIP3    H124391   4.427   2.748  12.606  0.1947  0.1225  2.1793
  992TIP3    H224392   4.529   2.650  12.551  0.1428  1.3726 -0.3018
  993TIP3   OH224393   5.555   0.582  12.419 -0.6164  0.4809  0.5551
  993TIP3    H124394   5.475   0.582  12.366  0.5189  1.4179 -1.2518
  993TIP3    H224395   5.605   0.507  12.387  0.7731  1.9515 -0.9042
  994TIP3   OH224396   2.876   5.930   5.986 -0.2240  0.4392  0.4193
  994TIP3    H124397   2.928   5.947   6.064 -0.2733  1.0222  0.3253
  994TIP3    H224398   2.788   5.960   6.008 -0.5525 -0.6221  0.6089
  995TIP3   OH224399   6.077   6.079   4.777 -0.2200  0.0123  0.4366
  995TIP3    H124400   6.099   6.110   4.689  1.9895 -2.4056  0.0009
  995TIP3    H224401   6.059   6.159   4.826 -0.1011  1.5495 -1.8382
  996TIP3   OH224402   1.041   5.384  15.848 -0.1899  0.1965 -0.1372
  996TIP3    H124403   1.031   5.464  15.796  1.4232 -0.3885 -1.4682
  996TIP3    H224404   0.984   5.321  15.805 -0.6826  0.3540  0.2836
  997TIP3   OH224405   3.374   2.257  16.990 -0.6007 -0.2502 -0.5772
  997TIP3    H124406   3.323   2.187  16.949 -1.2134 -0.1279 -0.0356
  997TIP3    H224407   3.384   2.323  16.921  1.7388 -1.7070 -1.7669
  998TIP3   OH224408   2.309   5.245  13.779  0.1159  0.0763 -0.3582
  998TIP3    H124409   2.304   5.250  13.874 -0.2330 -0.0084 -0.3702
  998TIP3    H224410   2.323   5.152  13.761 -0.2989  0.0222 -0.4085
  999TIP3   OH224411   3.576   4.767  11.596  0.5340  0.1082 -0.5027
  999TIP3    H124412   3.631   4.737  11.669  0.4938  0.2201 -0.4254
  999TIP3    H224413   3.620   4.845  11.564  0.0582  0.5994  0.0046
 1000TIP3   OH224414   5.995   4.618   1.274  0.1075  0.3224 -0.1573
 1000TIP3    H124415   6.086   4.590   1.287  0.3907  1.0952 -0.4029
 1000TIP3    H224416   5.977   4.673   1.351 -0.5626 -0.7862  0.5083
 1001TIP3   OH224417   5.453   6.012  14.058  0.3889  0.5110  0.0827
 1001TIP3    H124418   5.479   5.939  14.114  0.4105  2.0739  2.1945
 1001TIP3    H224419   5.461   5.977  13.969  1.4857 -1.6842  0.9662
 1002TIP3   OH224420   2.779   3.080  13.226  0.3513  0.3851  0.1771
 1002TIP3    H124421   2.824   3.053  13.306 -0.4949  1.1935  0.9564
 1002TIP3    H224422   2.846   3.076  13.158  1.5942  1.4772  1.2819
 1003TIP3   OH224423   3.612   6.127   4.666 -0.6859  1.2547 -0.1289
 1003TIP3    H124424   3.631   6.133   4.572  0.8409  0.4697  0.1103
 1003TIP3    H224425   3.609   6.033   4.684 -0.0474  1.3911  0.7750
 1004TIP3   OH224426   4.673   4.226  13.594 -0.0706 -0.0028 -0.0995
 1004TIP3    H124427   4.642   4.148  13.640 -1.0674 -0.7068 -1.8742
 1004TIP3    H224428   4.718   4.193  13.517 -0.1640  1.1705 -0.6813
 1005TIP3   OH224429   2.172   2.464  15.698 -0.8337  0.2453  0.1028
 1005TIP3    H124430   2.156   2.448  15.605  0.9216 -0.6383 -0.0803
 1005TIP3    H224431   2.115   2.402  15.744 -1.0784  0.0951 -0.3993
 1006TIP3   OH224432   4.806   0.257   3.838  0.4904  0.1910 -0.4308
 1006TIP3    H124433   4.773   0.207   3.763  1.1458 -0.4157 -0.3280
 1006TIP3    H224434   4.744   0.239   3.908  1.7441 -2.0838  0.1732
 1007TIP3   OH224435   2.090   5.314   0.852 -0.1121  0.4495 -0.3555
 1007TIP3    H124436   2.124   5.399   0.823 -0.5609  0.8453  0.2813
 1007TIP3    H224437   2.090   5.319   0.947 -2.3589  0.6210 -0.3256
 1008TIP3   OH224438   6.605   5.998   5.510  0.2129 -0.4697 -0.2365
 1008TIP3    H124439   6.551   5.923   5.536 -0.5181 -0.4399 -1.5492
 1008TIP3    H224440   6.689   5.984   5.552 -0.1728 -1.6115  0.1814
 1009TIP3   OH224441   2.375   2.032   1.786 -0.4554 -0.6242 -0.3094
 1009TIP3    H124442   2.379   1.936   1.784 -0.6299 -0.6580  0.5273
 1009TIP3    H224443   2.435   2.056   1.857  0.6100 -0.0361 -1.3790
 1010TIP3   OH224444   1.221   4.299  10.643  0.1870 -0.0753 -0.9079
 1010TIP3    H124445   1.304   4.261  10.673 -0.1058  0.4564  0.6540
 1010TIP3    H224446   1.242   4.390  10.624  0.0357 -0.0308 -0.8605
 1011TIP3   OH224447   3.457   3.387   3.387 -0.1231  0.6008 -1.1697
 1011TIP3    H124448   3.406   3.306   3.384  2.8522 -1.4244 -1.1308
 1011TIP3    H224449   3.512   3.384   3.309  2.0520  1.0908  0.2521
 1012TIP3   OH224450   4.494   5.735   3.285 -0.1365  0.4420  0.3623
 1012TIP3    H124451   4.501   5.678   3.362  2.6964  1.8126  1.2375
 1012TIP3    H224452   4.574   5.718   3.235 -1.1037  0.8549 -1.4213
 1013TIP3   OH224453   4.919   2.529   5.530  0.6477 -0.1895  0.2569
 1013TIP3    H124454   4.873   2.608   5.502  0.9997  0.8534  2.3664
 1013TIP3    H224455   4.967   2.500   5.452  1.5768  2.4799 -0.2772
 1014TIP3   OH224456   0.424   0.619  12.612 -0.0352  0.4470 -0.1545
 1014TIP3    H124457   0.403   0.651  12.525  0.2460  1.1440  0.0238
 1014TIP3    H224458   0.482   0.545  12.597 -0.1131  0.4667 -0.5614
 1015TIP3   OH224459   4.078   2.285   0.488 -0.2201 -0.5485  0.6935
 1015TIP3    H124460   4.154   2.258   0.540 -1.0014 -1.5266  1.3744
 1015TIP3    H224461   4.089   2.239   0.405 -0.0442 -0.6665  0.7791
 1016TIP3   OH224462   0.051   2.510   4.268 -0.0133 -0.2875  0.4162
 1016TIP3    H124463   0.111   2.575   4.305 -2.6156  1.4122  1.9990
 1016TIP3    H224464   0.074   2.506   4.176  1.1706  1.8520  0.5537
 1017TIP3   OH224465   0.071   3.726   5.364 -0.3357  0.3339 -0.0469
 1017TIP3    H124466  -0.021   3.723   5.388 -0.5301  2.7027 -0.1815
 1017TIP3    H224467   0.108   3.796   5.419  1.6847 -1.3220  0.8441
 1018TIP3   OH224468   5.133   6.545  11.203  0.2338  0.1520 -0.2327
 1018TIP3    H124469   5.207   6.486  11.220  0.5218 -0.0782 -2.0368
 1018TIP3    H224470   5.166   6.604  11.134 -0.7332  1.0934  0.0951
 1019TIP3   OH224471   4.782   0.097  12.003  0.2993 -0.3100 -0.2848
 1019TIP3    H124472   4.770   0.060  11.915 -0.5424 -0.3701 -0.1545
 1019TIP3    H224473   4.867   0.141  11.999  1.6227 -2.7053 -0.2739
 1020TIP3   OH224474   5.069   6.036  17.020  0.2443 -0.4380  0.2962
 1020TIP3    H124475   5.108   6.108  16.969 -1.8600  1.0930  0.7108
 1020TIP3    H224476   5.050   5.968  16.955 -0.1708  0.4927 -0.5847
 1021TIP3   OH224477   2.050   6.427  13.991 -0.1745  0.0635  0.4839
 1021TIP3    H124478   2.081   6.404  13.904 -0.3885  0.4452  0.3074
 1021TIP3    H224479   2.126   6.468  14.033 -0.3239  0.6423  0.1877
 1022TIP3   OH224480   1.077   5.179  13.981  0.3199  0.3505  0.1682
 1022TIP3    H124481   1.120   5.094  13.988  0.3299  0.3542  0.1535
 1022TIP3    H224482   0.998   5.171  14.033  0.9667  0.7375  1.2322
 1023TIP3   OH224483   1.738   5.311   4.223  0.0035 -0.0789  0.2311
 1023TIP3    H124484   1.761   5.404   4.215 -0.0719 -0.1489 -0.9734
 1023TIP3    H224485   1.646   5.312   4.250 -0.4237  0.2353 -1.1183
 1024TIP3   OH224486   3.199   0.215   1.955  0.0758  0.4557  0.0534
 1024TIP3    H124487   3.161   0.281   2.012 -0.5068  0.0662  0.1340
 1024TIP3    H224488   3.283   0.251   1.927 -0.8831  1.8997 -1.1249
 1025TIP3   OH224489   3.125   5.688  11.223  0.5325  0.1792  0.4188
 1025TIP3    H124490   3.068   5.619  11.188  1.3671 -1.1233  1.5436
 1025TIP3    H224491   3.208   5.677  11.177  0.6351  0.5100  0.5223
 1026TIP3   OH224492   1.342   6.434  13.350 -0.0345 -0.1083 -0.4036
 1026TIP3    H124493   1.294   6.381  13.287 -1.7083  0.5155  0.2835
 1026TIP3    H224494   1.284   6.439  13.426  1.2161  0.5314  0.5546
 1027TIP3   OH224495   6.439   1.933  16.045 -0.5429  0.1214 -0.6095
 1027TIP3    H124496   6.429   1.838  16.038 -2.2490  0.2319 -0.1573
 1027TIP3    H224497   6.420   1.953  16.136 -0.0736  0.8984 -0.6719
 1028TIP3   OH224498   4.508   6.487   4.823  0.3705 -0.3560 -0.0063
 1028TIP3    H124499   4.422   6.483   4.780  0.8298  1.6899 -1.2497
 1028TIP3    H224500   4.509   6.573   4.866  1.4046 -0.8031  0.9031
 1029TIP3   OH224501   2.514   2.158   1.997  0.1015  0.2475  0.6148
 1029TIP3    H124502   2.456   2.229   2.023  0.5030  0.5036  0.8312
 1029TIP3    H224503   2.532   2.111   2.078  1.0263  0.7998  0.7524
 1030TIP3   OH224504   3.326   6.224   2.439 -0.3513  0.1338 -0.4809
 1030TIP3    H124505   3.373   6.166   2.379  1.4498  0.5182  0.4790
 1030TIP3    H224506   3.287   6.165   2.504  0.2548 -0.1097 -0.3264
 1031TIP3   OH224507   4.478   6.604  16.443 -0.3771  0.4974  0.2356
 1031TIP3    H124508   4.512   6.622  16.355  0.3484 -0.3894  0.3259
 1031TIP3    H224509   4.500   6.682  16.493  0.9193  0.2234  0.1108
 1032TIP3   OH224510   4.685   2.299   4.304 -0.0379  0.1938 -0.9404
 1032TIP3    H124511   4.707   2.247   4.381 -0.2928  0.6637 -0.5377
 1032TIP3    H224512   4.759   2.358   4.292  0.4147 -0.4870 -1.6133
 1033TIP3   OH224513   1.273   3.100   0.569 -0.1163 -0.1641  0.1969
 1033TIP3    H124514   1.208   3.031   0.565 -0.6628  0.0900  2.8245
 1033TIP3    H224515   1.243   3.165   0.505 -2.4585 -0.1043  1.2384
 1034TIP3   OH224516   6.579   0.848   0.404  0.4289  0.0094  0.4207
 1034TIP3    H124517   6.549   0.879   0.490  1.4777  0.7160  0.5512
 1034TIP3    H224518   6.662   0.893   0.390 -0.0538  0.4392 -1.2872
 1035TIP3   OH224519   3.399   0.719   3.152 -0.1784  0.2928 -0.0734
 1035TIP3    H124520   3.435   0.639   3.191 -2.0335 -0.5497  0.0082
 1035TIP3    H224521   3.447   0.790   3.195 -0.2432 -0.7025  1.7375
 1036TIP3   OH224522   3.367   5.156   5.074  0.0116  0.4149  0.2603
 1036TIP3    H124523   3.435   5.088   5.077 -0.2456  0.1353 -0.1838
 1036TIP3    H224524   3.415   5.238   5.088  0.2161  0.0789  1.6796
 1037TIP3   OH224525   2.508   2.595   4.497  0.0128  0.0078  0.1157
 1037TIP3    H124526   2.465   2.673   4.462  0.6813  0.2792 -0.1264
 1037TIP3    H224527   2.531   2.543   4.420  1.3331  0.5231  0.1223
 1038TIP3   OH224528   3.309   3.130  12.650 -0.1408  0.3873 -0.0092
 1038TIP3    H124529   3.379   3.074  12.684 -0.4535  0.9071  1.5905
 1038TIP3    H224530   3.321   3.129  12.555  1.4286 -0.3141  0.1678
 1039TIP3   OH224531   6.678   2.814   1.814 -0.0876  0.2575  0.2880
 1039TIP3    H124532   6.679   2.719   1.825  0.0816  0.4087  1.6586
 1039TIP3    H224533   6.740   2.847   1.878 -0.6654  1.3482  0.3079
 1040TIP3   OH224534   3.014   5.705   1.631  0.7631  0.1790 -0.0486
 1040TIP3    H124535   2.966   5.778   1.671 -0.4122 -0.6010  0.0045
 1040TIP3    H224536   2.958   5.628   1.646  2.9943 -1.1761  1.8826
 1041TIP3   OH224537   5.492   0.262   1.306  0.1922  0.0718  0.2072
 1041TIP3    H124538   5.547   0.213   1.368  0.0226 -0.5383 -0.1112
 1041TIP3    H224539   5.404   0.228   1.321 -0.3108  1.8259  1.4796
 1042TIP3   OH224540   5.255   5.570  13.431 -0.2564 -1.0102 -0.4454
 1042TIP3    H124541   5.180   5.557  13.374 -0.2524 -1.0741 -0.4369
 1042TIP3    H224542   5.306   5.639  13.390  0.7599 -2.3642 -1.5620
 1043TIP3   OH224543   1.275   5.488  14.883 -0.1283 -0.1507  0.2071
 1043TIP3    H124544   1.256   5.565  14.937  2.6186  0.7857  0.0139
 1043TIP3    H224545   1.317   5.523  14.805  3.2002 -1.7895  1.0349
 1044TIP3   OH224546   4.742   6.254   1.453 -0.5013  0.6584  0.0595
 1044TIP3    H124547   4.675   6.243   1.386 -0.5237 -0.0617  0.1886
 1044TIP3    H224548   4.825   6.243   1.406 -0.5082  0.4964  0.0830
 1045TIP3   OH224549   3.237   5.196   4.469  0.2516 -0.4846  0.0172
 1045TIP3    H124550   3.194   5.114   4.495  3.2304 -2.0197  0.4844
 1045TIP3    H224551   3.237   5.193   4.374  0.2203 -0.9651  0.0277
 1046TIP3   OH224552   2.980   3.067  12.584 -0.2795  0.0301  0.8997
 1046TIP3    H124553   2.955   3.159  12.592  2.2647  0.9628 -0.7190
 1046TIP3    H224554   3.045   3.054  12.654  0.5440 -0.0582  0.1301
 1047TIP3   OH224555   2.499   0.538  17.155 -0.5229 -0.1785 -0.4544
 1047TIP3    H124556   2.589   0.545  17.122 -0.8177 -0.6385 -1.3904
 1047TIP3    H224557   2.507   0.554  17.249  0.4847  0.1857 -0.5838
 1048TIP3   OH224558   2.045   6.512  13.169  0.0982 -0.0950  0.1563
 1048TIP3    H124559   2.023   6.433  13.120  0.3470 -1.1086  1.5778
 1048TIP3    H224560   2.105   6.560  13.112 -1.4362 -0.0218 -1.4639
 1049TIP3   OH224561   5.270   0.115   0.874 -0.0128  0.4166  0.1124
 1049TIP3    H124562   5.279   0.041   0.814 -0.2103 -0.6181  1.3154
 1049TIP3    H224563   5.177   0.139   0.869  0.1704  0.9818 -0.7198
 1050TIP3   OH224564   3.981   1.694   6.227 -0.1720 -0.2420 -0.4978
 1050TIP3    H124565   4.012   1.604   6.228  1.1160  0.1713 -0.1094
 1050TIP3    H224566   3.923   1.701   6.303  2.6346  0.1519  1.7812
 1051TIP3   OH224567   2.063   5.007  14.372 -0.0430  0.3495  0.2232
 1051TIP3    H124568   2.157   4.999  14.390 -0.0474  0.0521  0.1187
 1051TIP3    H224569   2.053   4.973  14.283 -0.0433  1.6675 -0.3093
 1052TIP3   OH224570   1.847   0.157   5.399  0.4693 -0.0093  0.2168
 1052TIP3    H124571   1.776   0.132   5.339 -1.7625  2.6413  1.5124
 1052TIP3    H224572   1.927   0.133   5.353 -1.2039 -1.7927 -2.0020
 1053TIP3   OH224573   6.281   3.717   4.268  0.2556 -0.7210 -0.2807
 1053TIP3    H124574   6.286   3.684   4.357  2.2030 -1.1324 -0.4855
 1053TIP3    H224575   6.232   3.650   4.220  0.8750 -1.4516  0.0930
 1054TIP3   OH224576   3.062   2.376   0.702  0.0037  0.5755 -0.1635
 1054TIP3    H124577   3.122   2.443   0.667  1.6334 -1.0475 -0.6549
 1054TIP3    H224578   3.005   2.424   0.762  1.1322  2.3879 -0.4438
 1055TIP3   OH224579   2.488   1.409  12.434  0.3669 -0.0421  0.5331
 1055TIP3    H124580   2.578   1.416  12.466  1.1570  0.5475 -1.5940
 1055TIP3    H224581   2.496   1.358  12.353 -0.9260  1.3614 -0.5439
 1056TIP3   OH224582   6.351   0.606  12.217  0.7136  0.3775 -0.1893
 1056TIP3    H124583   6.320   0.606  12.127  1.2132 -0.0352 -0.3604
 1056TIP3    H224584   6.286   0.554  12.264  0.9915 -0.2496 -0.4953
 1057TIP3   OH224585   0.173   5.768   5.331 -0.0549  0.0638  0.2889
 1057TIP3    H124586   0.082   5.793   5.316  0.8180  2.7975 -1.1589
 1057TIP3    H224587   0.168   5.680   5.370 -3.2602  0.1141  0.2450
 1058TIP3   OH224588   0.212   2.858  17.225 -0.2462 -0.0819 -0.1230
 1058TIP3    H124589   0.251   2.874  17.311 -0.6714 -0.3204  0.1145
 1058TIP3    H224590   0.157   2.935  17.210 -1.2289 -0.6510  0.4224
 1059TIP3   OH224591   0.404   3.830   1.024  0.6958  0.1625 -0.6623
 1059TIP3    H124592   0.352   3.910   1.025  0.9387  0.3479 -1.5159
 1059TIP3    H224593   0.352   3.768   0.972 -1.2847 -1.5478  2.9620
 1060TIP3   OH224594   1.460   5.553   4.573 -0.0168  0.7493 -0.2298
 1060TIP3    H124595   1.495   5.619   4.633  1.2398  2.7013 -2.8706
 1060TIP3    H224596   1.385   5.595   4.532  1.1041  0.8727 -2.3310
 1061TIP3   OH224597   2.276   1.772  13.355  0.0322 -0.4753  0.4818
 1061TIP3    H124598   2.300   1.765  13.448  1.5235 -0.3598  0.1294
 1061TIP3    H224599   2.243   1.685  13.332 -1.4943 -0.1743  1.3983
 1062TIP3   OH224600   6.255   2.841   3.398  0.3639  0.3135  0.1796
 1062TIP3    H124601   6.333   2.842   3.342  0.6272 -2.0556  0.4194
 1062TIP3    H224602   6.256   2.755   3.439 -1.6614  0.7480  1.2535
 1063TIP3   OH224603   1.535   0.539   0.189 -0.6801  0.2119  0.1800
 1063TIP3    H124604   1.471   0.606   0.167 -1.6595 -0.6551  0.3126
 1063TIP3    H224605   1.483   0.461   0.210  0.4185 -0.6028  0.0098
 1064TIP3   OH224606   6.216   3.766  13.905  0.3518 -0.1481 -0.1206
 1064TIP3    H124607   6.204   3.760  13.811  0.6008  1.1661 -0.2603
 1064TIP3    H224608   6.308   3.744  13.919  0.3751 -0.1125 -0.2161
 1065TIP3   OH224609   2.639   5.007   6.274  0.1607 -0.4152  0.6540
 1065TIP3    H124610   2.647   5.091   6.229 -2.2944 -0.8009 -0.6540
 1065TIP3    H224611   2.712   5.006   6.335  0.1557  2.7566  0.8673
 1066TIP3   OH224612   4.581   5.987  12.697 -0.4791 -0.3458  0.2763
 1066TIP3    H124613   4.635   5.965  12.772  0.1861 -0.1816 -0.1443
 1066TIP3    H224614   4.493   5.995  12.732 -0.2362 -0.6411  0.9680
 1067TIP3   OH224615   2.090   0.844   0.626  0.7649  0.3674  0.0084
 1067TIP3    H124616   2.125   0.791   0.696 -0.5479 -0.1693  0.2921
 1067TIP3    H224617   2.124   0.804   0.546 -0.9383 -1.5354  0.1628
 1068TIP3   OH224618   1.858   0.948   0.214  0.1458 -0.3164 -0.1656
 1068TIP3    H124619   1.898   0.863   0.233 -0.8571 -1.2932 -2.0190
 1068TIP3    H224620   1.918   0.989   0.152 -0.1163 -0.3578 -0.4491
 1069TIP3   OH224621   2.509   1.252  17.124  0.0743  0.0287 -0.1924
 1069TIP3    H124622   2.483   1.171  17.168 -0.4214 -0.5475 -1.4875
 1069TIP3    H224623   2.429   1.283  17.082  0.1521  1.4617  0.6492
 1070TIP3   OH224624   4.953   1.023  15.671 -0.2343  0.0074 -0.1923
 1070TIP3    H124625   4.882   1.087  15.661 -0.2441  0.0095 -0.1158
 1070TIP3    H224626   4.929   0.951  15.614  0.0643  0.3197 -0.7248
 1071TIP3   OH224627   5.224   6.557  15.251 -0.1856 -0.3307 -0.0262
 1071TIP3    H124628   5.291   6.598  15.306 -0.9829  1.0008 -0.0090
 1071TIP3    H224629   5.211   6.619  15.179 -0.3160 -1.2974 -0.8587
 1072TIP3   OH224630   3.260   5.479  13.782 -0.4952 -0.4857 -0.1479
 1072TIP3    H124631   3.351   5.463  13.806 -0.8161  0.1489  1.6448
 1072TIP3    H224632   3.263   5.498  13.688  1.4196  0.9002  0.1378
 1073TIP3   OH224633   4.160   4.426  16.739  0.0751  0.8609  0.2929
 1073TIP3    H124634   4.129   4.471  16.661  0.3853  1.5086  0.5307
 1073TIP3    H224635   4.208   4.350  16.706  1.2250  1.7654 -0.2174
 1074TIP3   OH224636   5.036   0.048  17.056  0.4644 -0.5030 -0.4657
 1074TIP3    H124637   4.941   0.035  17.059 -0.0701  1.4013 -4.0332
 1074TIP3    H224638   5.071  -0.039  17.038 -0.4461 -1.3930  1.7038
 1075TIP3   OH224639   3.762   1.781   5.845 -0.1243  0.0197  0.2714
 1075TIP3    H124640   3.723   1.776   5.758  0.2048 -0.4852  0.1457
 1075TIP3    H224641   3.694   1.820   5.900 -0.9181 -1.0988  0.1136
 1076TIP3   OH224642   2.790   0.111   3.843 -0.2511 -0.3310 -0.0331
 1076TIP3    H124643   2.703   0.147   3.824 -0.6984 -1.4614 -0.1635
 1076TIP3    H224644   2.840   0.187   3.874 -0.6085  0.8121 -2.0321
 1077TIP3   OH224645   0.329   6.313  10.463  0.1046 -0.0353  0.1557
 1077TIP3    H124646   0.421   6.300  10.443  0.1079  0.4379 -0.1511
 1077TIP3    H224647   0.305   6.238  10.518  1.3960  1.2449  2.6390
 1078TIP3   OH224648   5.424   5.696  14.810 -0.1191  0.1476  0.3611
 1078TIP3    H124649   5.451   5.742  14.890 -1.8665 -0.3670  1.3089
 1078TIP3    H224650   5.328   5.696  14.813 -0.2178 -2.0282 -0.4554
 1079TIP3   OH224651   3.855   3.032  13.649  0.0714 -0.4285  0.1981
 1079TIP3    H124652   3.945   3.040  13.680  0.5115  0.6287 -1.2640
 1079TIP3    H224653   3.826   3.121  13.634 -0.4889 -0.8334 -1.3141
 1080TIP3   OH224654   3.917   4.183   5.759 -0.1211 -0.0759  0.1773
 1080TIP3    H124655   3.957   4.269   5.749 -0.4487 -0.0752 -1.3346
 1080TIP3    H224656   3.938   4.157   5.849  0.5528  1.2798  0.4336
 1081TIP3   OH224657   4.171   2.486   0.184  0.0475  0.9467  0.1124
 1081TIP3    H124658   4.136   2.397   0.180 -0.2401  1.0994 -1.6856
 1081TIP3    H224659   4.234   2.483   0.256 -0.9320 -0.3349  0.9709
 1082TIP3   OH224660   2.414   3.058   0.992  0.0385  0.6191 -0.1780
 1082TIP3    H124661   2.322   3.057   1.018 -0.1486  0.0507 -0.8182
 1082TIP3    H224662   2.461   3.024   1.068 -0.4316 -0.4229 -0.3386
 1083TIP3   OH224663   5.102   5.881  10.862  0.3594 -0.0786 -0.0191
 1083TIP3    H124664   5.018   5.868  10.818 -0.0016 -0.1181  0.6835
 1083TIP3    H224665   5.079   5.911  10.950  1.0935  2.1281 -0.5053
 1084TIP3   OH224666   5.691   3.465  16.403 -0.1590  0.4443 -0.3204
 1084TIP3    H124667   5.687   3.516  16.322 -4.2302  1.4747  0.2904
 1084TIP3    H224668   5.642   3.386  16.384  0.7166 -0.3356  0.5571
 1085TIP3   OH224669   4.707   0.475   1.869  0.2350 -0.5905  0.3440
 1085TIP3    H124670   4.734   0.411   1.934  1.1934 -1.2728 -0.6960
 1085TIP3    H224671   4.764   0.550   1.883  0.5624 -0.8072  0.1886
 1086TIP3   OH224672   3.770   1.391   2.007  0.0070 -0.0494  0.3992
 1086TIP3    H124673   3.725   1.367   1.927 -1.6327  1.3562  0.8469
 1086TIP3    H224674   3.756   1.317   2.066  1.1181 -1.0342 -0.5210
 1087TIP3   OH224675   1.975   2.260   1.247 -0.5739  0.2134 -0.0779
 1087TIP3    H124676   1.899   2.303   1.287 -1.7835  1.9028 -3.7686
 1087TIP3    H224677   2.005   2.322   1.180  1.5147 -2.1637 -1.5084
 1088TIP3   OH224678   3.774   5.822  15.426  0.2478  0.2867  0.2516
 1088TIP3    H124679   3.848   5.805  15.483  0.0956  0.2842  0.4494
 1088TIP3    H224680   3.712   5.752  15.444  0.1929  0.2923  0.0921
 1089TIP3   OH224681   5.482   4.679  14.804  0.4158  0.0712 -0.2703
 1089TIP3    H124682   5.567   4.636  14.806  0.6818  0.5748 -0.8254
 1089TIP3    H224683   5.481   4.733  14.883 -0.3584 -1.7483  1.0519
 1090TIP3   OH224684   3.303   3.604  11.636 -0.1884 -0.3438  0.5302
 1090TIP3    H124685   3.329   3.512  11.625  1.4301 -0.0392  1.4130
 1090TIP3    H224686   3.383   3.653  11.619 -0.7901  0.8388  1.0183
 1091TIP3   OH224687   3.715   2.025   0.527  0.2830  0.0472  0.4003
 1091TIP3    H124688   3.690   1.979   0.607 -0.2925 -2.0691 -0.9339
 1091TIP3    H224689   3.750   1.957   0.470 -2.2781  0.8334 -2.3803
 1092TIP3   OH224690   4.602   3.676   4.052 -0.0872  0.4226 -0.0002
 1092TIP3    H124691   4.618   3.618   3.978 -0.3752 -0.6480  0.7525
 1092TIP3    H224692   4.681   3.730   4.058 -1.1577  2.5169 -2.7859
 1093TIP3   OH224693   1.177   1.921   2.661  0.1504  0.7085 -0.5066
 1093TIP3    H124694   1.154   1.924   2.568  0.0862  1.0678 -0.4831
 1093TIP3    H224695   1.163   1.830   2.687  2.3073  0.0736 -1.3757
 1094TIP3   OH224696   0.887   3.849   4.135 -0.2960 -0.1430 -0.0150
 1094TIP3    H124697   0.919   3.939   4.138 -1.9348  0.4931 -0.3443
 1094TIP3    H224698   0.843   3.836   4.219 -2.4661  0.3824 -0.9747
 1095TIP3   OH224699   2.184   1.398   1.902  0.1344  0.4911  0.8019
 1095TIP3    H124700   2.270   1.400   1.860 -0.2269 -0.9541 -0.0726
 1095TIP3    H224701   2.123   1.418   1.832 -0.3688 -0.4779  0.9462
 1096TIP3   OH224702   1.492   3.439  17.254 -0.1543 -0.3938  0.0614
 1096TIP3    H124703   1.523   3.529  17.254  1.9034 -1.0573  0.3521
 1096TIP3    H224704   1.572   3.386  17.250 -1.3507 -2.2074 -1.7286
 1097TIP3   OH224705   5.796   0.087   5.557  0.0163  0.5203  0.0004
 1097TIP3    H124706   5.812   0.062   5.648 -0.9170  0.7588  0.2381
 1097TIP3    H224707   5.845   0.168   5.546 -0.4129  0.8467  0.4865
 1098TIP3   OH224708   5.480   0.209   5.321  0.2915 -0.7034 -0.3061
 1098TIP3    H124709   5.390   0.193   5.350 -0.3402 -2.1452 -2.7910
 1098TIP3    H224710   5.530   0.134   5.352  1.0859  0.8095  2.3962
 1099TIP3   OH224711   1.430   1.667  11.001  0.5111  0.0279 -0.1020
 1099TIP3    H124712   1.476   1.661  10.917  0.8083  1.1190 -0.0318
 1099TIP3    H224713   1.467   1.745  11.043 -1.6906  1.2266 -0.2253
 1100TIP3   OH224714   2.239   5.710  17.151 -0.3885 -0.4831  0.7255
 1100TIP3    H124715   2.288   5.761  17.087  0.3285 -0.1874  1.4896
 1100TIP3    H224716   2.196   5.642  17.099 -1.0897  0.6720 -0.2571
 1101TIP3   OH224717   3.719   6.408  12.354 -0.7976  0.5293  0.3817
 1101TIP3    H124718   3.747   6.442  12.269  0.6579 -1.5459 -0.0321
 1101TIP3    H224719   3.655   6.340  12.332  1.4131 -1.7687  0.7278
 1102TIP3   OH224720   3.873   6.304   5.454 -0.2025  0.0515 -0.5343
 1102TIP3    H124721   3.958   6.346   5.441 -0.2699  0.1145 -0.7755
 1102TIP3    H224722   3.871   6.234   5.388 -0.4045  0.1527 -0.6352
 1103TIP3   OH224723   1.077   4.624   1.711  0.2030 -0.2928  0.0116
 1103TIP3    H124724   0.991   4.583   1.718 -0.7098  1.4303 -0.4353
 1103TIP3    H224725   1.066   4.710   1.753  2.2826 -0.7932  1.7731
 1104TIP3   OH224726   3.892   2.168   5.420 -0.5425  0.7176  0.5406
 1104TIP3    H124727   3.942   2.227   5.364  0.5369  0.0979  0.8080
 1104TIP3    H224728   3.952   2.147   5.492 -0.8993 -0.6504  0.4787
 1105TIP3   OH224729   0.743   5.052  16.812  0.4997 -0.0668  0.4113
 1105TIP3    H124730   0.662   5.010  16.782  1.1971 -1.4555  0.3979
 1105TIP3    H224731   0.769   5.001  16.889  2.8969 -1.5261 -1.2513
 1106TIP3   OH224732   3.208   3.317  15.235  0.5530 -0.5097  0.8301
 1106TIP3    H124733   3.172   3.259  15.303 -0.1582 -0.3938  0.5618
 1106TIP3    H224734   3.217   3.402  15.279 -0.3340 -0.3216  0.6675
 1107TIP3   OH224735   4.340   5.345   5.769  0.0452  0.1135 -0.3864
 1107TIP3    H124736   4.309   5.353   5.859  0.1128  0.4431 -0.3896
 1107TIP3    H224737   4.309   5.424   5.726 -1.0918 -0.6358 -0.9945
 1108TIP3   OH224738   2.814   1.648   1.441 -0.0949  0.4584  0.8021
 1108TIP3    H124739   2.832   1.556   1.456 -1.0687  0.3610  1.4711
 1108TIP3    H224740   2.874   1.695   1.498  0.3883  0.2474  0.4744
 1109TIP3   OH224741   4.439   1.651   3.591 -0.4478  0.6520 -0.3505
 1109TIP3    H124742   4.484   1.665   3.508 -0.5747  1.9445 -0.2163
 1109TIP3    H224743   4.357   1.606   3.567 -0.4034  0.8613 -0.8983
 1110TIP3   OH224744   6.260   5.284   4.394  0.2970  0.6325  0.3106
 1110TIP3    H124745   6.168   5.301   4.417  0.2548  3.7850 -1.7168
 1110TIP3    H224746   6.308   5.358   4.431  2.0214 -0.6835  0.8479
 1111TIP3   OH224747   2.115   1.696  14.034 -0.1964 -0.6427 -0.2938
 1111TIP3    H124748   2.051   1.690  14.105  0.6599  0.2337  0.5972
 1111TIP3    H224749   2.175   1.624  14.050  0.3356 -0.0962  0.2546
 1112TIP3   OH224750   1.479   5.263  14.490  0.1464  0.0794  0.4328
 1112TIP3    H124751   1.414   5.300  14.430 -0.8872 -1.9050  0.2331
 1112TIP3    H224752   1.440   5.273  14.577 -0.5161 -1.1588  0.3084
 1113TIP3   OH224753   1.436   3.983  13.234  1.1862 -0.1271  0.1009
 1113TIP3    H124754   1.463   3.995  13.325  0.1173  0.8088  0.3279
 1113TIP3    H224755   1.344   3.957  13.240  0.5553  1.7740 -0.7334
 1114TIP3   OH224756   3.240   0.541   0.254  0.0492 -0.1029  0.2007
 1114TIP3    H124757   3.290   0.544   0.336 -1.9964  1.6631  1.4897
 1114TIP3    H224758   3.151   0.566   0.279 -0.8661 -0.3870 -2.4446
 1115TIP3   OH224759   2.825   4.659  10.899 -0.0497  0.3410 -0.6240
 1115TIP3    H124760   2.764   4.708  10.954 -0.5514  0.4181 -1.2336
 1115TIP3    H224761   2.911   4.676  10.938 -0.4743 -0.3136  0.6524
 1116TIP3   OH224762   0.499   3.898   5.649 -0.4474  0.2646 -0.1328
 1116TIP3    H124763   0.552   3.839   5.595 -0.5231  0.2080 -0.1443
 1116TIP3    H224764   0.487   3.850   5.732 -2.9113 -0.9836 -1.1151
 1117TIP3   OH224765   1.212   4.325  12.156  0.8161 -0.2232 -0.2353
 1117TIP3    H124766   1.280   4.299  12.093 -0.5540 -4.1864 -0.3522
 1117TIP3    H224767   1.131   4.326  12.105  0.0309 -1.1141  0.9527
 1118TIP3   OH224768   4.474   6.362  13.305  0.1024 -0.0872  0.2535
 1118TIP3    H124769   4.478   6.277  13.261 -0.8672 -0.2791  0.5098
 1118TIP3    H224770   4.494   6.343  13.396 -1.6712 -0.3288  0.6360
 1119TIP3   OH224771   5.945   4.467   4.319  0.2096 -0.2175  0.3606
 1119TIP3    H124772   5.886   4.392   4.325 -0.6128  0.3346 -0.4660
 1119TIP3    H224773   5.987   4.458   4.233  0.4680  0.0013  0.4609
 1120TIP3   OH224774   5.077   4.087   4.869  0.1541  0.2173  0.0665
 1120TIP3    H124775   5.150   4.132   4.827  0.0383 -0.4261 -0.8585
 1120TIP3    H224776   5.115   4.043   4.944  0.4039  1.2334  0.5522
 1121TIP3   OH224777   5.780   5.309  17.002 -0.2631  0.1225 -0.6920
 1121TIP3    H124778   5.796   5.280  16.912 -0.7965  0.1281 -0.7865
 1121TIP3    H224779   5.805   5.401  17.002  3.2914 -0.6710  0.0657
 1122TIP3   OH224780   2.543   3.667   2.712  0.2409  0.2407 -0.1379
 1122TIP3    H124781   2.597   3.608   2.765 -0.2079 -0.6059 -0.5935
 1122TIP3    H224782   2.507   3.730   2.774  1.3838  0.5458  0.2369
 1123TIP3   OH224783   1.545   5.848  14.050  0.2082  0.1849 -0.0893
 1123TIP3    H124784   1.561   5.851  14.145 -0.3058 -2.6234  0.1603
 1123TIP3    H224785   1.632   5.845  14.011  0.5727 -3.5848  0.6595
 1124TIP3   OH224786   6.561   4.726   6.210 -0.4585  0.3844  0.3256
 1124TIP3    H124787   6.612   4.760   6.283  1.4345 -1.9953  0.2246
 1124TIP3    H224788   6.470   4.733   6.238  0.1568  0.6652  2.3665
 1125TIP3   OH224789   3.889   1.606  13.390 -0.1421 -0.1194 -0.2103
 1125TIP3    H124790   3.824   1.572  13.328 -0.7828  0.2378  0.2468
 1125TIP3    H224791   3.837   1.629  13.467  0.8854 -2.6562  1.3767
 1126TIP3   OH224792   6.379   1.115  15.185  0.4241  0.2687 -0.2598
 1126TIP3    H124793   6.288   1.088  15.190  0.2910  0.8461  0.5024
 1126TIP3    H224794   6.386   1.159  15.100  0.3285 -0.9518 -0.9221
 1127TIP3   OH224795   4.345   6.651  14.475 -0.4902  0.0370 -0.6199
 1127TIP3    H124796   4.263   6.698  14.487  0.0109  0.6058  0.7837
 1127TIP3    H224797   4.331   6.566  14.517  0.3008  0.9402  1.6327
 1128TIP3   OH224798   4.990   5.592  13.334 -0.2384  0.2650  0.1846
 1128TIP3    H124799   4.967   5.652  13.263 -0.5453  1.0236  0.8993
 1128TIP3    H224800   4.921   5.525  13.332 -0.7551  0.7827  0.3239
 1129TIP3   OH224801   6.470   5.089   2.605 -0.1555  0.2492 -0.1375
 1129TIP3    H124802   6.379   5.107   2.580  0.5844  0.5698 -2.9723
 1129TIP3    H224803   6.502   5.173   2.636 -0.5876  0.3404  0.0785
 1130TIP3   OH224804   5.625   4.421  16.748 -0.4541 -0.1078 -0.1796
 1130TIP3    H124805   5.660   4.442  16.661  0.9668  1.1857  0.6535
 1130TIP3    H224806   5.627   4.325  16.753  3.9382 -0.2014  0.0739
 1131TIP3   OH224807   3.970   4.774  15.739 -0.1166  0.9011 -0.1248
 1131TIP3    H124808   3.963   4.686  15.777  1.3411  1.5223  1.7175
 1131TIP3    H224809   3.880   4.801  15.724 -0.9085  0.8339  3.6089
 1132TIP3   OH224810   3.745   3.432   6.490 -0.0041  0.0653  0.0714
 1132TIP3    H124811   3.692   3.375   6.546 -0.2232  1.6178  1.5101
 1132TIP3    H224812   3.681   3.488   6.446  0.3632  1.1686  0.9254
 1133TIP3   OH224813   4.756   4.606   1.416 -0.3452  0.0925  0.7551
 1133TIP3    H124814   4.742   4.569   1.329 -1.6552  0.1373  0.9248
 1133TIP3    H224815   4.739   4.700   1.406  1.4996  0.4367  0.6451
 1134TIP3   OH224816   6.099   0.323  16.228  0.3260  0.2013 -0.1745
 1134TIP3    H124817   6.036   0.391  16.205  0.4490  0.7073  0.9338
 1134TIP3    H224818   6.053   0.241  16.209 -0.6347  0.5630  0.5043
 1135TIP3   OH224819   2.001   1.172   3.631  0.2166  0.6923 -0.2769
 1135TIP3    H124820   2.061   1.246   3.638 -0.2525  1.2989 -2.2113
 1135TIP3    H224821   2.018   1.120   3.710  1.3034  2.2831  0.5855
 1136TIP3   OH224822   6.038   4.434   0.044  0.7498  0.3294  0.2394
 1136TIP3    H124823   6.032   4.479   0.128 -0.6883  0.3491  0.1603
 1136TIP3    H224824   6.057   4.504  -0.019 -2.6243  1.1788 -0.0600
 1137TIP3   OH224825   5.008   5.968   4.966  0.2431 -0.2142 -0.1536
 1137TIP3    H124826   5.066   5.946   4.892  0.5930 -0.0942  0.0818
 1137TIP3    H224827   5.068   5.993   5.036 -0.0503 -1.3766  0.5251
 1138TIP3   OH224828   5.564   6.578   2.842 -0.1329 -0.2122 -0.2838
 1138TIP3    H124829   5.554   6.516   2.770 -0.9466 -1.4348  0.8549
 1138TIP3    H224830   5.653   6.566   2.872 -0.3394 -0.9611  0.0403
 1139TIP3   OH224831   4.104   0.206  11.719 -0.0751 -0.1400  0.2007
 1139TIP3    H124832   4.061   0.171  11.641 -0.8280 -0.4036  0.7243
 1139TIP3    H224833   4.197   0.209  11.696  0.1347 -3.0322  0.3224
 1140TIP3   OH224834   5.815   0.370  13.971  0.5914  0.3863  0.2249
 1140TIP3    H124835   5.898   0.324  13.962  0.3736  0.0728 -0.2569
 1140TIP3    H224836   5.774   0.331  14.048  0.1663 -0.6480 -0.4827
 1141TIP3   OH224837   3.645   1.043  15.212  0.1482  0.2332 -0.8708
 1141TIP3    H124838   3.605   0.959  15.230 -3.3220  2.0379  0.7690
 1141TIP3    H224839   3.632   1.057  15.118 -2.3500  0.3270 -0.5599
 1142TIP3   OH224840   5.688   6.173   1.053  0.0047  0.3465  0.2978
 1142TIP3    H124841   5.675   6.267   1.038 -2.7200  0.0905  0.5093
 1142TIP3    H224842   5.617   6.149   1.112  2.1123 -1.4146  2.2773
 1143TIP3   OH224843   2.555   3.791   0.980  0.0604  0.2524  0.2971
 1143TIP3    H124844   2.552   3.699   1.006  2.0307  0.5189  1.6839
 1143TIP3    H224845   2.640   3.802   0.938  0.4040  1.7007  1.2760
 1144TIP3   OH224846   2.036   6.334  14.887  0.6356 -0.0911  0.5353
 1144TIP3    H124847   2.064   6.246  14.914  3.0403  0.1444 -0.9402
 1144TIP3    H224848   2.115   6.387  14.895  0.2349  1.0666 -2.1861
 1145TIP3   OH224849   1.677   5.852  17.228  0.4178  0.5274 -0.1858
 1145TIP3    H124850   1.588   5.848  17.192 -0.5768  0.4482  2.0996
 1145TIP3    H224851   1.699   5.761  17.246  0.8855  0.5697 -0.5349
 1146TIP3   OH224852   5.379   2.171  14.602 -0.1075 -0.0183 -0.5743
 1146TIP3    H124853   5.415   2.088  14.571  1.0308  0.1017  0.3594
 1146TIP3    H224854   5.359   2.157  14.694  1.3072  1.0855 -0.0582
 1147TIP3   OH224855   5.192   3.750  11.623 -0.2598  0.3699  0.5818
 1147TIP3    H124856   5.215   3.657  11.627 -1.2936  0.0326 -0.6733
 1147TIP3    H224857   5.147   3.768  11.705 -0.6451 -0.4003  0.5413
 1148TIP3   OH224858   5.285   4.153   0.892  0.4504 -0.2371 -0.2006
 1148TIP3    H124859   5.261   4.160   0.800 -2.4007 -0.1842  0.4346
 1148TIP3    H224860   5.202   4.136   0.937  1.7007 -0.0153  2.3972
 1149TIP3   OH224861   4.113   0.944  17.030  0.1237 -0.7223  0.1006
 1149TIP3    H124862   4.036   0.972  17.080  0.2671  0.6941 -0.4080
 1149TIP3    H224863   4.078   0.911  16.948 -0.0077 -1.3132  0.3908
 1150TIP3   OH224864   4.318   3.806   5.991 -0.0326 -0.1605 -0.1762
 1150TIP3    H124865   4.277   3.721   5.969  1.0527 -0.6114 -0.5209
 1150TIP3    H224866   4.269   3.870   5.939 -0.0223 -0.7468 -0.9303
 1151TIP3   OH224867   2.548   4.176  12.101  0.1033 -0.2264 -0.0871
 1151TIP3    H124868   2.562   4.243  12.168  0.0842 -1.7659  1.5233
 1151TIP3    H224869   2.544   4.225  12.019  0.1428  1.7270  1.0154
 1152TIP3   OH224870   2.378   5.909   2.256  0.3605  0.4679 -0.1103
 1152TIP3    H124871   2.283   5.925   2.253  0.2517 -0.1551 -0.0906
 1152TIP3    H224872   2.386   5.817   2.282  0.8844 -0.7410 -3.9466
 1153TIP3   OH224873   2.979   1.981  12.605 -0.0303  0.5299 -0.8525
 1153TIP3    H124874   3.020   2.039  12.540 -1.2309 -0.7767 -2.8740
 1153TIP3    H224875   2.929   2.039  12.661 -0.5649  1.5493 -2.3364
 1154TIP3   OH224876   4.799   3.298  15.084 -0.1915 -0.0874  0.7950
 1154TIP3    H124877   4.879   3.303  15.138 -0.4578  1.4722  1.0738
 1154TIP3    H224878   4.830   3.265  15.000  0.4901 -1.0122  1.3769
 1155TIP3   OH224879   5.860   6.147  14.535  1.0388 -0.7871  0.1579
 1155TIP3    H124880   5.897   6.214  14.592  1.4694 -1.5945  0.8349
 1155TIP3    H224881   5.794   6.194  14.483  1.8032  0.2991  0.1377
 1156TIP3   OH224882   6.313   0.792   4.213  0.3715  0.3009 -0.2914
 1156TIP3    H124883   6.340   0.872   4.258  3.1866 -0.9542  0.4983
 1156TIP3    H224884   6.244   0.756   4.269 -1.3060  2.3274 -0.9223
 1157TIP3   OH224885   6.491   3.037  10.901 -0.0199 -0.3067 -0.1105
 1157TIP3    H124886   6.572   3.072  10.864  0.1530 -1.4580 -0.8674
 1157TIP3    H224887   6.428   3.042  10.830 -1.1278  2.0995  0.9327
 1158TIP3   OH224888   4.076   3.929   5.946 -0.5076 -0.5677 -0.4019
 1158TIP3    H124889   3.983   3.904   5.947 -0.3908 -1.0232 -0.6806
 1158TIP3    H224890   4.100   3.935   6.038 -0.3245 -2.3466 -0.2898
 1159TIP3   OH224891   4.665   0.476   0.419 -0.3988  0.5854 -0.1038
 1159TIP3    H124892   4.582   0.433   0.436  1.3722 -3.4257 -0.4161
 1159TIP3    H224893   4.653   0.520   0.334 -1.8139 -1.1178 -0.8458
 1160TIP3   OH224894   2.916   5.229  13.407 -0.0155 -0.4537 -0.2038
 1160TIP3    H124895   3.002   5.248  13.370  0.4622  0.1258  1.1605
 1160TIP3    H224896   2.895   5.306  13.460 -1.4622 -0.5091 -0.6507
 1161TIP3   OH224897   5.791   4.099  16.706 -0.7914 -0.2350  0.4414
 1161TIP3    H124898   5.791   4.078  16.613  0.4795 -0.7616  0.5306
 1161TIP3    H224899   5.824   4.189  16.710 -1.6825  0.1040  0.3418
 1162TIP3   OH224900   6.390   0.223  12.560  0.1067  0.0122  0.4286
 1162TIP3    H124901   6.412   0.286  12.628  0.1945  0.0960  0.3220
 1162TIP3    H224902   6.304   0.189  12.587  0.4908 -0.5319  1.0023
 1163TIP3   OH224903   1.850   3.800  14.978 -0.8119  0.3374 -0.7094
 1163TIP3    H124904   1.861   3.739  14.906 -2.0421 -0.1440 -0.5151
 1163TIP3    H224905   1.820   3.881  14.937 -3.0763 -0.4084 -0.6475
 1164TIP3   OH224906   1.540   0.729  13.810 -0.5096  0.4414 -0.1322
 1164TIP3    H124907   1.624   0.685  13.794 -0.9743 -1.2503  1.7268
 1164TIP3    H224908   1.483   0.696  13.740 -0.3226 -0.4764  0.1272
 1165TIP3   OH224909   2.159   5.334  12.222  0.1852  0.6859 -0.2009
 1165TIP3    H124910   2.158   5.253  12.273 -1.1523  0.7183 -0.1468
 1165TIP3    H224911   2.073   5.337  12.180 -0.1163  2.4962  0.4751
 1166TIP3   OH224912   0.941   1.322   1.666  0.1829 -0.2477 -0.4994
 1166TIP3    H124913   0.985   1.332   1.582  0.6797  0.4966 -0.1686
 1166TIP3    H224914   1.012   1.318   1.730 -0.1832  1.6302  0.1141
 1167TIP3   OH224915   6.028   6.192  14.112 -0.2269 -0.2309 -0.3445
 1167TIP3    H124916   5.982   6.214  14.031 -0.8565  1.2449  0.3916
 1167TIP3    H224917   5.959   6.164  14.172 -0.2614  2.0890  0.7987
 1168TIP3   OH224918   6.517   1.916  13.058  0.3827  0.1744 -0.3403
 1168TIP3    H124919   6.442   1.972  13.076  0.7042 -0.1998  2.6546
 1168TIP3    H224920   6.591   1.960  13.099  0.8243 -1.8382  1.2381
 1169TIP3   OH224921   6.374   6.666  11.070 -0.1316  0.1071 -0.1820
 1169TIP3    H124922   6.301   6.617  11.032 -0.1919  0.5021 -0.5858
 1169TIP3    H224923   6.429   6.689  10.996  1.0170 -1.1520  0.2400
 1170TIP3   OH224924   4.291   5.201   2.999  0.3767  0.2382 -0.2492
 1170TIP3    H124925   4.378   5.162   3.008  0.1681 -0.7918 -2.1910
 1170TIP3    H224926   4.243   5.140   2.943 -1.3077  1.2763 -0.0135
 1171TIP3   OH224927   1.552   0.200   5.536 -0.2450  0.2633 -0.8950
 1171TIP3    H124928   1.466   0.185   5.576 -0.5658  0.4498 -1.5100
 1171TIP3    H224929   1.549   0.291   5.507  0.9826  0.9976  1.0925
 1172TIP3   OH224930   6.026   5.202  14.897 -0.4906  0.0194  0.2172
 1172TIP3    H124931   5.957   5.234  14.955  0.1670 -0.0263  1.0452
 1172TIP3    H224932   5.997   5.116  14.869 -1.3521  0.5097 -0.4530
 1173TIP3   OH224933   3.549   2.774  16.884 -0.2505  0.2773  0.1232
 1173TIP3    H124934   3.507   2.706  16.831 -1.3595  1.3144 -0.3996
 1173TIP3    H224935   3.498   2.777  16.965 -2.3626  2.5887 -1.1172
 1174TIP3   OH224936   2.981   5.493  13.503  0.5877  0.2023  0.8129
 1174TIP3    H124937   2.966   5.587  13.493  2.4140  0.3469 -1.2979
 1174TIP3    H224938   3.076   5.483  13.502  0.4860 -1.8191 -1.7757
 1175TIP3   OH224939   1.944   3.277   1.026 -0.0998  0.0804 -0.2687
 1175TIP3    H124940   1.873   3.272   1.090 -0.2141 -0.8094 -0.4476
 1175TIP3    H224941   1.921   3.350   0.969 -0.2901  0.5139  0.3536
 1176TIP3   OH224942   2.363   0.201   3.942  0.0108  0.1828  0.3470
 1176TIP3    H124943   2.447   0.246   3.936 -0.1002  0.3735  0.1940
 1176TIP3    H224944   2.306   0.249   3.882  0.8543 -2.3506 -2.7174
 1177TIP3   OH224945   4.186   6.332   6.314 -0.4156  0.5054 -0.1856
 1177TIP3    H124946   4.164   6.414   6.269  0.9708  1.0761  0.1435
 1177TIP3    H224947   4.172   6.265   6.247 -1.0096  1.0657 -0.6407
 1178TIP3   OH224948   2.382   3.268  16.650 -0.4426  0.3306 -0.6546
 1178TIP3    H124949   2.462   3.312  16.620  0.3667 -1.0507 -0.6016
 1178TIP3    H224950   2.318   3.338  16.657  1.1691  1.7588  0.7664
 1179TIP3   OH224951   5.668   6.313  14.390  0.0050  0.1672  0.7487
 1179TIP3    H124952   5.588   6.347  14.351 -0.9560 -1.6808  0.9647
 1179TIP3    H224953   5.721   6.390  14.408 -0.9551  1.3090 -1.0621
 1180TIP3   OH224954   6.024   5.800   4.530  0.0844 -0.2946  0.4471
 1180TIP3    H124955   5.956   5.862   4.555 -0.3661 -0.5260 -0.1728
 1180TIP3    H224956   6.100   5.825   4.583 -0.5532 -0.2060  1.3543
 1181TIP3   OH224957   0.472   0.166   0.912  0.2661  0.0409 -0.1302
 1181TIP3    H124958   0.528   0.190   0.987  1.2103  0.7096 -1.0200
 1181TIP3    H224959   0.387   0.204   0.934  0.6636  0.6700  0.3934
 1182TIP3   OH224960   5.797   3.941  13.089 -0.3606  0.6737  0.4267
 1182TIP3    H124961   5.831   3.860  13.051 -0.7790  0.6351  0.1263
 1182TIP3    H224962   5.702   3.935  13.077 -0.3575  1.4299 -0.0173
 1183TIP3   OH224963   3.868   2.059   4.380  0.3454 -0.4015  0.4567
 1183TIP3    H124964   3.929   2.117   4.425  0.0807 -0.3624  0.7712
 1183TIP3    H224965   3.923   2.002   4.327  0.6746 -0.5800  0.9894
 1184TIP3   OH224966   1.609   4.989  11.811  0.1408  0.1217  0.5826
 1184TIP3    H124967   1.536   5.010  11.752  0.6745  0.5823  0.0761
 1184TIP3    H224968   1.602   5.053  11.882 -0.2495 -0.1651  0.8107
 1185TIP3   OH224969   2.760   1.170   3.513 -0.4702 -0.5193 -0.3259
 1185TIP3    H124970   2.787   1.260   3.533  0.9078 -0.9574 -0.1121
 1185TIP3    H224971   2.728   1.136   3.597  0.2339 -0.6246 -0.0870
 1186TIP3   OH224972   3.837   3.286  12.103  0.4709 -0.0147 -0.2722
 1186TIP3    H124973   3.841   3.380  12.117  1.1566  0.0138 -0.5940
 1186TIP3    H224974   3.747   3.269  12.077  0.5713  0.6939 -1.1340
 1187TIP3   OH224975   5.838   6.489   1.145  0.1494  0.5633  0.4544
 1187TIP3    H124976   5.838   6.578   1.111  0.4891  0.3975  0.0170
 1187TIP3    H224977   5.755   6.482   1.193  0.3582  1.2714  0.9260
 1188TIP3   OH224978   0.923   6.394  17.036 -0.0231 -0.3506 -0.7244
 1188TIP3    H124979   0.848   6.447  17.006 -1.7040 -2.1765  0.0078
 1188TIP3    H224980   0.975   6.381  16.957 -0.5009  0.9080 -1.2828
 1189TIP3   OH224981   4.173   1.494  14.848 -0.7484 -0.0882 -0.4794
 1189TIP3    H124982   4.124   1.479  14.929  0.5897  0.9131  0.5684
 1189TIP3    H224983   4.184   1.589  14.843  0.7665 -0.2408 -0.8353
 1190TIP3   OH224984   0.693   4.683   5.284  0.5456  0.3158 -0.2379
 1190TIP3    H124985   0.650   4.724   5.208 -0.8187  0.4178  0.5490
 1190TIP3    H224986   0.646   4.601   5.297  0.6636  0.3719  0.5853
 1191TIP3   OH224987   6.615   4.487  11.419  0.1393 -0.0466  0.1483
 1191TIP3    H124988   6.635   4.574  11.386  0.6101  0.7813  2.4509
 1191TIP3    H224989   6.697   4.456  11.457 -0.7515 -0.2097  2.0372
 1192TIP3   OH224990   5.878   6.648   1.865 -0.1314  0.1844  0.1919
 1192TIP3    H124991   5.829   6.566   1.873  0.4565 -0.0123  2.3467
 1192TIP3    H224992   5.959   6.623   1.820 -1.2407  0.2419 -2.0284
 1193TIP3   OH224993   1.755   5.549  16.013 -0.0581  0.1413  0.1497
 1193TIP3    H124994   1.678   5.507  15.976  0.1688  0.9560 -1.3316
 1193TIP3    H224995   1.829   5.505  15.971  0.4837 -2.1652  3.1623
 1194TIP3   OH224996   3.759   5.828  12.077  0.5141  0.0386  0.0124
 1194TIP3    H124997   3.744   5.882  12.155 -0.2394  0.1783 -0.2233
 1194TIP3    H224998   3.825   5.875  12.027  0.6154  0.2163  0.3133
 1195TIP3   OH224999   5.041   0.644  16.603  0.3036 -0.4643  0.6089
 1195TIP3    H125000   4.961   0.667  16.650  0.8308  3.2015  0.0633
 1195TIP3    H225001   5.091   0.726  16.600  3.4775 -2.2570 -0.2677
 1196TIP3   OH225002   6.085   5.404  10.539 -0.3674 -0.3576 -0.2364
 1196TIP3    H125003   6.157   5.463  10.516 -1.0285  0.3624 -0.4928
 1196TIP3    H225004   6.121   5.316  10.525  0.2512  0.0060 -1.0005
 1197TIP3   OH225005   3.108   1.052   4.144 -0.1350  0.3591  0.5053
 1197TIP3    H125006   3.161   1.127   4.119  0.2944 -0.0250  0.2472
 1197TIP3    H225007   3.085   1.011   4.061 -1.6812  1.0806  0.5507
 1198TIP3   OH225008   2.090   1.546   5.148  0.0634  0.4408  0.2009
 1198TIP3    H125009   2.139   1.564   5.068  1.7682  1.6978  1.4660
 1198TIP3    H225010   2.062   1.631   5.180 -0.1735  0.0051  1.2047
 1199TIP3   OH225011   2.098   2.492   1.477  0.1019 -0.0637  0.0199
 1199TIP3    H125012   2.056   2.410   1.452 -2.2713  0.6230  1.3338
 1199TIP3    H225013   2.039   2.560   1.443  0.1988  0.9751  1.7890
 1200TIP3   OH225014   4.460   3.111  11.968 -0.5439 -0.2027  0.2379
 1200TIP3    H125015   4.509   3.146  12.042  0.1560  1.6433 -1.0127
 1200TIP3    H225016   4.369   3.139  11.983  0.0082  2.4546 -0.7747
 1201TIP3   OH225017   2.609   0.942  13.221  0.7123 -0.0688  0.2227
 1201TIP3    H125018   2.521   0.959  13.186  0.5953  1.9370  1.3181
 1201TIP3    H225019   2.669   0.976  13.155  0.6281 -0.4438 -0.0446
 1202TIP3   OH225020   5.636   5.654   2.747  0.1030 -0.2462 -0.1933
 1202TIP3    H125021   5.640   5.706   2.827  2.3068  1.4941 -1.3057
 1202TIP3    H225022   5.624   5.719   2.678 -2.7005 -1.7618 -1.2888
 1203TIP3   OH225023   2.429   0.295  11.394  0.2369  0.3166  0.3151
 1203TIP3    H125024   2.502   0.311  11.453  1.1672  1.0685 -0.9744
 1203TIP3    H225025   2.407   0.381  11.358  1.6729 -0.4208 -2.6203
 1204TIP3   OH225026   2.007   0.512   0.425  0.5740 -0.3424 -0.3087
 1204TIP3    H125027   2.015   0.417   0.416  0.2651 -0.3641 -0.3417
 1204TIP3    H225028   2.078   0.536   0.485 -2.7020 -1.3216  4.5451
 1205TIP3   OH225029   4.911   3.037  14.330 -0.0678  0.7296  0.0520
 1205TIP3    H125030   4.940   3.060  14.241 -1.3747  0.5357 -0.4481
 1205TIP3    H225031   4.915   3.119  14.379  1.7140  0.6261  0.1395
 1206TIP3   OH225032   3.850   3.154   5.965 -0.0863 -0.0896 -0.4259
 1206TIP3    H125033   3.807   3.164   6.050 -0.7349 -1.7425 -0.5202
 1206TIP3    H225034   3.942   3.174   5.983 -0.4288  0.9331  0.3462
 1207TIP3   OH225035   4.122   2.385  16.342 -0.0904 -0.0516  0.3460
 1207TIP3    H125036   4.162   2.312  16.390  1.9833 -0.2746 -1.5827
 1207TIP3    H225037   4.179   2.460  16.361 -2.4058  1.3048  2.6209
 1208TIP3   OH225038   5.013   2.870   1.692  0.2980 -0.3618 -0.3225
 1208TIP3    H125039   4.950   2.800   1.678 -1.9406  1.8385 -2.2777
 1208TIP3    H225040   5.092   2.842   1.646 -0.4604 -1.6975 -0.8424
 1209TIP3   OH225041   5.306   5.310  15.323  0.8278  0.0078  0.5202
 1209TIP3    H125042   5.250   5.239  15.354  0.0031  0.5996  0.4207
 1209TIP3    H225043   5.255   5.390  15.340  1.2469  0.4917 -0.4123
 1210TIP3   OH225044   6.511   2.786  14.298  0.0742  0.2483 -0.4832
 1210TIP3    H125045   6.565   2.711  14.322  0.6948  0.2260 -1.8639
 1210TIP3    H225046   6.572   2.859  14.293 -0.2507  0.5086 -0.7365
 1211TIP3   OH225047   6.624   2.889   2.773 -0.2479 -0.1452  0.2489
 1211TIP3    H125048   6.584   2.803   2.759  0.2292 -0.4504  0.7464
 1211TIP3    H225049   6.670   2.881   2.856 -0.1181  0.5662  0.2507
 1212TIP3   OH225050   4.242   6.291  13.704 -0.4808  0.3071  0.0521
 1212TIP3    H125051   4.273   6.378  13.677  1.0385  0.1143  1.0526
 1212TIP3    H225052   4.204   6.305  13.791  1.6493 -0.3170  1.1532
 1213TIP3   OH225053   0.632   6.085  16.237  0.3915  0.1981  0.4220
 1213TIP3    H125054   0.685   6.038  16.301  0.0380  1.3024  1.5534
 1213TIP3    H225055   0.548   6.098  16.279 -0.4271 -0.4996 -0.9182
 1214TIP3   OH225056   3.900   5.220   3.580  0.7433  0.1409 -0.0862
 1214TIP3    H125057   3.844   5.262   3.645  0.7789  0.1219 -0.0431
 1214TIP3    H225058   3.987   5.219   3.620  0.9174  0.8070 -0.4439
 1215TIP3   OH225059   4.310   3.878  16.634  0.2652  0.2484  0.1535
 1215TIP3    H125060   4.331   3.794  16.673 -0.3388  0.7108  1.5421
 1215TIP3    H225061   4.294   3.859  16.541 -3.0784 -1.7649  0.9658
 1216TIP3   OH225062   2.952   3.367  16.961 -0.2874  0.0727 -0.1699
 1216TIP3    H125063   2.921   3.282  16.930  0.0307  0.1968 -0.8419
 1216TIP3    H225064   2.937   3.426  16.888  0.6206  0.3361 -0.1570
 1217TIP3   OH225065   4.786   1.717   2.674 -0.2005 -0.2935 -0.9005
 1217TIP3    H125066   4.804   1.627   2.703  0.2889 -0.1650 -0.7905
 1217TIP3    H225067   4.866   1.765   2.695 -0.7503  0.3480 -0.2331
 1218TIP3   OH225068   1.945   2.754   3.892 -0.0285 -0.7100  0.4741
 1218TIP3    H125069   2.001   2.680   3.914  2.2949  0.6755 -0.4001
 1218TIP3    H225070   1.916   2.788   3.976  3.9666  1.0136  1.4102
 1219TIP3   OH225071   3.639   1.266  11.579 -0.3233 -0.2214 -0.5594
 1219TIP3    H125072   3.687   1.204  11.524  2.5649 -0.7891  2.3057
 1219TIP3    H225073   3.591   1.212  11.641 -0.8364  0.4380 -0.3640
 1220TIP3   OH225074   1.617   5.646   5.643  0.3559  0.4283  0.2552
 1220TIP3    H125075   1.690   5.705   5.661  1.7921 -1.7074  1.9033
 1220TIP3    H225076   1.653   5.581   5.583 -0.6476  0.2065 -0.1198
 1221TIP3   OH225077   3.907   6.400   4.750 -0.3372  0.3280 -0.4485
 1221TIP3    H125078   3.830   6.453   4.768  0.1210  1.0705 -0.6534
 1221TIP3    H225079   3.915   6.400   4.655 -1.6319 -1.9827 -0.6250
 1222TIP3   OH225080   0.728   0.515   2.546 -0.1768 -0.2363  0.7956
 1222TIP3    H125081   0.661   0.570   2.505  1.1086  0.4698 -0.4458
 1222TIP3    H225082   0.777   0.575   2.602  0.0252 -0.5297  0.9370
 1223TIP3   OH225083   4.204   0.148   4.626  0.4696  0.1078  0.1195
 1223TIP3    H125084   4.127   0.153   4.569  0.9103 -0.3621 -0.5306
 1223TIP3    H225085   4.239   0.060   4.612  1.7142  0.6508 -0.3954
 1224TIP3   OH225086   0.878   5.577   2.774 -0.8458  0.0019 -0.7308
 1224TIP3    H125087   0.915   5.655   2.816 -1.6830  0.5787 -1.0239
 1224TIP3    H225088   0.877   5.511   2.843  0.9322 -0.1258 -0.7800
 1225TIP3   OH225089   1.509   0.378   3.240  0.0221  0.6653 -0.1312
 1225TIP3    H125090   1.459   0.303   3.209  2.3983 -1.3309  0.4969
 1225TIP3    H225091   1.574   0.394   3.171  1.7722 -0.2020  1.2344
 1226TIP3   OH225092   3.057   3.002   0.709  0.5237  0.3455  0.2339
 1226TIP3    H125093   3.152   3.002   0.701  0.6540  1.0376  1.4575
 1226TIP3    H225094   3.041   2.977   0.800 -0.5539 -1.8660 -0.4957
 1227TIP3   OH225095   0.045   5.958  15.342  0.2587  0.0124 -0.5197
 1227TIP3    H125096   0.083   6.008  15.269 -0.0910  0.5488 -0.3395
 1227TIP3    H225097   0.107   5.971  15.414 -2.5049  5.1513  1.4393
 1228TIP3   OH225098   0.947   1.378   4.506  0.3470 -0.2570  0.4065
 1228TIP3    H125099   0.921   1.453   4.559  1.2476 -0.0034  0.4936
 1228TIP3    H225100   0.961   1.413   4.418  1.0673 -0.2623  0.5152
 1229TIP3   OH225101   4.428   1.280   3.799 -0.1335 -0.0503 -0.0034
 1229TIP3    H125102   4.503   1.230   3.767 -0.6107 -2.1938  1.9756
 1229TIP3    H225103   4.449   1.300   3.890 -1.6253 -0.0349  0.3575
 1230TIP3   OH225104   3.243   4.313   1.733  0.4270  0.0934  0.3509
 1230TIP3    H125105   3.186   4.357   1.670 -0.9393 -1.2825  0.5753
 1230TIP3    H225106   3.331   4.321   1.696 -0.4191 -1.4561 -2.2394
 1231TIP3   OH225107   2.729   5.619  16.233  0.1751 -0.8557 -0.0995
 1231TIP3    H125108   2.705   5.630  16.325  1.0659 -1.0547  0.1635
 1231TIP3    H225109   2.744   5.709  16.202 -1.0678 -0.7006 -0.3356
 1232TIP3   OH225110   0.552   0.111  15.552 -0.6777 -1.0075  0.0683
 1232TIP3    H125111   0.583   0.201  15.562 -0.5047 -0.8677 -1.4936
 1232TIP3    H225112   0.588   0.065  15.629  0.5081 -0.0886  0.1020
 1233TIP3   OH225113   3.521   6.492   0.050  0.3620  0.1427  0.5491
 1233TIP3    H125114   3.565   6.474  -0.033 -1.2683 -3.3737  0.2633
 1233TIP3    H225115   3.491   6.583   0.042 -0.4786 -0.2871 -3.1231
 1234TIP3   OH225116   5.353   4.188   1.452  0.1447  0.1935  0.0716
 1234TIP3    H125117   5.372   4.105   1.409 -1.6406 -1.5476  2.3973
 1234TIP3    H225118   5.267   4.213   1.418  0.2315  0.5660  0.1237
 1235TIP3   OH225119   4.183   3.816   1.192 -0.6284  0.3080  0.3663
 1235TIP3    H125120   4.215   3.753   1.127  2.2938 -1.7792  3.5175
 1235TIP3    H225121   4.088   3.805   1.191 -0.5160 -1.1374 -2.0194
 1236TIP3   OH225122   5.485   4.677  16.608 -0.1736  0.2990 -0.4309
 1236TIP3    H125123   5.565   4.658  16.658 -1.2575  0.4041  1.4419
 1236TIP3    H225124   5.494   4.626  16.528  1.4410 -0.2567  0.0643
 1237TIP3   OH225125   6.325   2.176   1.701 -0.0430 -0.5688  0.3282
 1237TIP3    H125126   6.281   2.229   1.634  0.5972 -1.9739 -1.2794
 1237TIP3    H225127   6.305   2.220   1.784 -1.8677  0.5534 -0.6528
 1238TIP3   OH225128   0.713   5.371   3.830 -0.0921  0.3791  0.2542
 1238TIP3    H125129   0.777   5.394   3.763  0.5387 -1.3823  0.2092
 1238TIP3    H225130   0.644   5.325   3.782 -0.3474  0.3919  0.6054
 1239TIP3   OH225131   4.744   5.875  12.226  0.0801 -0.2281 -0.2226
 1239TIP3    H125132   4.700   5.818  12.164 -1.3740 -0.0717  0.6210
 1239TIP3    H225133   4.698   5.959  12.218 -0.5034 -0.3452  1.3865
 1240TIP3   OH225134   5.324   2.170  14.878 -0.0146 -0.2423  0.1024
 1240TIP3    H125135   5.329   2.238  14.946 -0.6027 -0.3316  0.2403
 1240TIP3    H225136   5.310   2.089  14.927  1.7803 -0.6424  0.0138
 1241TIP3   OH225137   0.523   1.059  15.747  0.1827 -0.2366  1.0996
 1241TIP3    H125138   0.497   1.102  15.828  2.1288  0.4708  1.4148
 1241TIP3    H225139   0.517   1.128  15.681  0.6969 -0.2073  1.0793
 1242TIP3   OH225140   1.066   4.374  10.887  0.1921 -0.3107  0.0585
 1242TIP3    H125141   1.095   4.328  10.808  0.7805 -1.7400  1.0711
 1242TIP3    H225142   1.058   4.466  10.860 -1.8785 -1.0486 -2.2805
 1243TIP3   OH225143   3.434   0.348  13.057 -0.0891  0.0022 -0.1273
 1243TIP3    H125144   3.479   0.285  13.001 -2.7079 -1.3342 -0.8881
 1243TIP3    H225145   3.389   0.408  12.997 -0.7109  0.2498  0.5541
 1244TIP3   OH225146   0.014   4.517  16.228  0.2473 -0.3369 -0.5774
 1244TIP3    H125147   0.045   4.433  16.196 -1.5692 -2.2836  2.2682
 1244TIP3    H225148   0.069   4.536  16.304 -0.2911  0.2685 -0.3203
 1245TIP3   OH225149   3.959   2.503   4.113  0.2179  0.1384  0.1429
 1245TIP3    H125150   3.897   2.567   4.079  1.3647  0.3143 -1.8244
 1245TIP3    H225151   3.970   2.440   4.042  1.2412 -0.6435  0.9539
 1246TIP3   OH225152   6.475   2.412   4.154  0.3202  0.1871 -0.1541
 1246TIP3    H125153   6.525   2.453   4.225 -0.0346  0.0829  0.1591
 1246TIP3    H225154   6.384   2.432   4.174  0.2960  1.6629 -1.5342
 1247TIP3   OH225155   2.251   1.779   0.097 -0.0408  0.0123  0.3790
 1247TIP3    H125156   2.250   1.711   0.164 -0.1901  0.7726  1.1736
 1247TIP3    H225157   2.158   1.798   0.082 -0.0013  0.0110  0.1334
 1248TIP3   OH225158   5.327   0.379   2.697  0.4152 -0.3597  0.6283
 1248TIP3    H125159   5.367   0.299   2.665  0.9232  0.5435 -1.1208
 1248TIP3    H225160   5.241   0.382   2.654  0.3488 -0.0406  0.7797
 1249TIP3   OH225161   5.830   6.701  14.214  0.0088 -0.0814  0.3885
 1249TIP3    H125162   5.836   6.655  14.298  0.5902  1.5819  1.3151
 1249TIP3    H225163   5.774   6.777  14.232  1.0592  0.9267 -0.4051
 1250TIP3   OH225164   5.160   4.643  12.990 -0.2576 -0.1073  1.1051
 1250TIP3    H125165   5.146   4.548  12.985  0.7364 -0.1919 -1.6856
 1250TIP3    H225166   5.229   4.653  13.056 -0.3777 -1.3098  1.4500
 1251TIP3   OH225167   4.240   6.325  15.098 -0.0181  0.1497 -0.1082
 1251TIP3    H125168   4.300   6.321  15.173 -0.5438 -0.8160  0.2837
 1251TIP3    H225169   4.297   6.321  15.022  0.3941 -2.9950  0.2325
 1252TIP3   OH225170   1.238   3.027  16.217 -0.3388 -0.2622  0.0886
 1252TIP3    H125171   1.225   2.991  16.129 -0.9235 -1.7074  0.7345
 1252TIP3    H225172   1.252   2.951  16.272 -0.8918  0.5573  1.4104
 1253TIP3   OH225173   1.256   6.695   3.278 -0.2324 -0.2008 -0.2183
 1253TIP3    H125174   1.162   6.677   3.277 -0.0681 -1.5822  2.1729
 1253TIP3    H225175   1.286   6.665   3.192 -1.9177  0.0051 -0.9216
 1254TIP3   OH225176   4.585   3.636  14.243  0.3123  0.0839  0.1502
 1254TIP3    H125177   4.567   3.623  14.336 -1.3046  1.5695  0.1096
 1254TIP3    H225178   4.602   3.730  14.235  2.5335 -0.3475 -0.7752
 1255TIP3   OH225179   0.738   5.483  14.331 -0.1509  0.1661 -0.0782
 1255TIP3    H125180   0.714   5.479  14.238 -0.3149  0.5708 -0.0547
 1255TIP3    H225181   0.657   5.461  14.377 -0.1815  0.3889 -0.0242
 1256TIP3   OH225182   6.575   0.170  10.995  0.2967  0.5099  0.3188
 1256TIP3    H125183   6.618   0.254  10.977  0.4873  0.6940  1.5561
 1256TIP3    H225184   6.481   0.191  10.996  0.3496  0.7414  0.7393
 1257TIP3   OH225185   1.128   4.941  10.612  0.5181 -0.4337  0.3954
 1257TIP3    H125186   1.186   4.912  10.682  0.5347 -1.0843  0.1247
 1257TIP3    H225187   1.054   4.880  10.615 -0.0231  0.2259  0.5654
 1258TIP3   OH225188   3.942   2.947  11.406 -0.4829 -0.4595 -0.1014
 1258TIP3    H125189   3.873   2.955  11.340 -1.0024 -0.7931  0.3935
 1258TIP3    H225190   3.901   2.897  11.477  0.0792 -0.1292  0.4585
 1259TIP3   OH225191   5.455   0.063   4.595  0.0154 -0.0303 -0.2266
 1259TIP3    H125192   5.441  -0.030   4.610 -2.8561  0.3048 -0.3664
 1259TIP3    H225193   5.415   0.080   4.509 -0.3881  1.4900  0.2275
 1260TIP3   OH225194   4.943   0.770   2.556  0.2178  0.3497  0.4608
 1260TIP3    H125195   4.976   0.808   2.475 -0.5819 -0.2692 -0.1732
 1260TIP3    H225196   4.899   0.689   2.529  1.0403 -0.5436  1.6575
 1261TIP3   OH225197   5.354   4.309   2.379  0.1647 -0.3653  0.0327
 1261TIP3    H125198   5.339   4.236   2.318  0.3103 -0.2488 -0.1394
 1261TIP3    H225199   5.325   4.387   2.331 -2.7685 -0.5808  1.2064
 1262TIP3   OH225200   3.539   4.747   3.472  0.5247  0.2535 -0.5583
 1262TIP3    H125201   3.481   4.818   3.449  0.0777  0.3998  0.9399
 1262TIP3    H225202   3.481   4.675   3.496  0.8917  0.6367  1.6788
 1263TIP3   OH225203   2.175   5.028  17.230 -0.4806 -0.0314 -0.4217
 1263TIP3    H125204   2.162   4.944  17.184  0.5743 -0.0308 -0.7477
 1263TIP3    H225205   2.256   5.015  17.280 -1.3600  0.1301  1.1008
 1264TIP3   OH225206   4.006   3.496   0.428 -0.5297  0.6441  0.4872
 1264TIP3    H125207   3.986   3.506   0.521 -1.0610 -0.3053  0.4853
 1264TIP3    H225208   3.935   3.540   0.383  0.6863  2.7823  0.5056
 1265TIP3   OH225209   0.564   5.067   3.474 -0.9966  0.0220  0.4315
 1265TIP3    H125210   0.528   5.000   3.532 -1.3060  0.1994  0.4508
 1265TIP3    H225211   0.653   5.081   3.506 -0.9299 -0.3762  0.4266
 1266TIP3   OH225212   3.331   3.248   3.828  0.0949 -0.0615  0.2284
 1266TIP3    H125213   3.299   3.197   3.754 -0.9130  0.7290  0.1052
 1266TIP3    H225214   3.284   3.212   3.904 -0.7065  0.7271  0.1255
 1267TIP3   OH225215   0.924   3.888   3.455 -0.0267 -0.1384 -0.0017
 1267TIP3    H125216   0.864   3.860   3.385  0.5008 -1.4824  0.0543
 1267TIP3    H225217   0.938   3.809   3.507  1.1813  0.3538  0.4454
 1268TIP3   OH225218   2.913   1.736   5.225 -0.1807 -0.1508 -0.1043
 1268TIP3    H125219   2.822   1.711   5.244 -1.4350  2.5141 -1.8833
 1268TIP3    H225220   2.946   1.666   5.169 -1.4522 -0.7161 -0.1887
 1269TIP3   OH225221   3.627   5.799   0.629  0.3422 -0.3168 -0.1192
 1269TIP3    H125222   3.638   5.760   0.716  0.3664  1.1322  0.5522
 1269TIP3    H225223   3.708   5.848   0.615  0.0257  0.0595 -0.6387
 1270TIP3   OH225224   2.823   0.596  14.201  0.0066 -0.0456  0.0999
 1270TIP3    H125225   2.755   0.555  14.148  0.2012 -0.6028  0.2810
 1270TIP3    H225226   2.904   0.553  14.174  0.6574  2.1147 -1.7255
 1271TIP3   OH225227   5.870   6.400  12.429  0.1110  0.2570  0.1941
 1271TIP3    H125228   5.927   6.464  12.471  2.6832 -1.0104 -1.1194
 1271TIP3    H225229   5.800   6.452  12.389  0.8641  1.9940  1.0472
 1272TIP3   OH225230   2.201   1.319   1.404 -0.1757 -0.0985  0.0895
 1272TIP3    H125231   2.274   1.376   1.380 -0.5166 -0.2624 -1.4690
 1272TIP3    H225232   2.231   1.272   1.482  1.3779 -0.1507 -0.4973
 1273TIP3   OH225233   0.346   3.339  14.570  0.1079 -0.2632  0.2767
 1273TIP3    H125234   0.412   3.374  14.510 -0.2805  1.1151  0.6076
 1273TIP3    H225235   0.387   3.343  14.656 -0.8359  1.9779  0.7031
 1274TIP3   OH225236   3.764   4.339   1.434 -0.3313  0.9713 -0.1971
 1274TIP3    H125237   3.817   4.311   1.359  0.1281  1.8325 -0.2142
 1274TIP3    H225238   3.797   4.427   1.454 -0.2093  0.6103  1.2450
 1275TIP3   OH225239   6.422   4.052   5.293 -0.1467 -0.0203 -0.6096
 1275TIP3    H125240   6.392   3.972   5.336  0.8608 -0.4978 -0.7681
 1275TIP3    H225241   6.346   4.083   5.244  0.0077 -1.9853 -2.1974
 1276TIP3   OH225242   5.824   5.207  15.605  0.2486 -0.1612  0.2229
 1276TIP3    H125243   5.774   5.176  15.530  1.7705  0.5654 -1.1472
 1276TIP3    H225244   5.761   5.207  15.677 -0.6744 -3.0907 -0.4672
 1277TIP3   OH225245   0.522   4.861  15.520 -0.3770 -0.4044 -0.5221
 1277TIP3    H125246   0.543   4.768  15.532 -1.8682 -1.0509 -2.3236
 1277TIP3    H225247   0.579   4.888  15.448  2.8559  1.2424  2.3904
 1278TIP3   OH225248   3.451   1.807   6.371 -0.6373  0.3204 -0.0930
 1278TIP3    H125249   3.512   1.757   6.426 -0.0184  2.3809  1.2488
 1278TIP3    H225250   3.376   1.749   6.359  0.4753 -1.3071  0.4575
 1279TIP3   OH225251   0.542   1.309   4.238  0.0871 -0.2888  0.4838
 1279TIP3    H125252   0.507   1.385   4.285 -0.5629 -1.3024  1.7098
 1279TIP3    H225253   0.464   1.266   4.201  0.6035  0.6445 -1.8475
 1280TIP3   OH225254   1.822   0.766   6.291 -0.0314  0.5275  0.6513
 1280TIP3    H125255   1.838   0.758   6.385 -1.4435  1.1472  0.9639
 1280TIP3    H225256   1.881   0.836   6.263 -1.5442  2.2712  1.6337
 1281TIP3   OH225257   0.466   1.074   3.303  0.0197  0.1000 -0.0116
 1281TIP3    H125258   0.434   1.089   3.392  0.6464  0.2336  0.1953
 1281TIP3    H225259   0.412   1.002   3.270 -0.4961  0.3273  0.3270
 1282TIP3   OH225260   4.144   1.457  15.706 -0.1347  0.4032 -0.0482
 1282TIP3    H125261   4.155   1.512  15.783  0.0114 -0.6887  0.7464
 1282TIP3    H225262   4.160   1.368  15.738  0.5533 -0.0197 -1.4760
 1283TIP3   OH225263   4.537   6.260   1.272 -0.2439 -0.5432  0.3002
 1283TIP3    H125264   4.454   6.265   1.319 -1.8581  0.4402 -2.4301
 1283TIP3    H225265   4.536   6.175   1.229  1.2877 -1.5037  2.0387
 1284TIP3   OH225266   5.673   0.561   2.526  1.0724 -0.4048  0.5359
 1284TIP3    H125267   5.633   0.600   2.604  0.8987  0.9507 -0.2075
 1284TIP3    H225268   5.755   0.608   2.516  0.1853  0.8832 -1.2237
 1285TIP3   OH225269   2.454   4.579   1.346  0.3966 -0.4121 -0.2634
 1285TIP3    H125270   2.537   4.530   1.344  1.4260  1.2025  0.5409
 1285TIP3    H225271   2.468   4.652   1.285  0.5335  1.2557  1.6616
 1286TIP3   OH225272   2.147   6.010  14.928  0.4478  0.2262  0.3477
 1286TIP3    H125273   2.057   6.027  14.954  0.3923  0.9119 -0.2683
 1286TIP3    H225274   2.193   5.992  15.010 -0.3566 -0.6824  0.6216
 1287TIP3   OH225275   0.319   5.703   1.996  0.5616 -0.1188  0.2369
 1287TIP3    H125276   0.394   5.668   2.045  1.4462  2.9550  1.3833
 1287TIP3    H225277   0.357   5.731   1.913  0.0310 -1.1561 -0.3659
 1288TIP3   OH225278   5.977   0.597   6.617 -0.0935  0.7589 -0.2220
 1288TIP3    H125279   6.047   0.557   6.669  0.0399 -0.6103 -1.4087
 1288TIP3    H225280   6.017   0.676   6.580  1.1145 -0.3722 -1.4752
 1289TIP3   OH225281   5.082   3.989   2.847 -0.6892 -0.4396 -0.4459
 1289TIP3    H125282   5.090   3.960   2.756  1.6235 -0.5735 -0.2586
 1289TIP3    H225283   5.168   4.027   2.867 -1.1539 -0.4295  1.6899
 1290TIP3   OH225284   1.850   3.479   0.920 -0.3473 -0.1457  0.0346
 1290TIP3    H125285   1.888   3.566   0.934 -0.5165 -0.1332  0.4326
 1290TIP3    H225286   1.835   3.474   0.826  3.9584 -1.5088 -0.8176
 1291TIP3   OH225287   2.874   5.389   0.564 -0.4103 -0.0109  0.1304
 1291TIP3    H125288   2.861   5.350   0.650  0.1729  0.7083  0.5632
 1291TIP3    H225289   2.966   5.371   0.543 -0.8482 -1.1592 -0.8571
 1292TIP3   OH225290   1.315   2.409   4.221  0.0107 -0.2067 -1.0343
 1292TIP3    H125291   1.402   2.440   4.244  0.5731 -1.8867 -0.7892
 1292TIP3    H225292   1.256   2.464   4.273  1.0279 -0.3746  0.3750
 1293TIP3   OH225293   5.987   3.326  12.464  0.2422 -0.0149  0.0517
 1293TIP3    H125294   6.080   3.327  12.441  0.3196  1.0630  0.3551
 1293TIP3    H225295   5.945   3.278  12.393  0.9972 -0.3242 -0.2006
 1294TIP3   OH225296   0.464   4.208   4.021 -0.0002  0.1449 -0.5915
 1294TIP3    H125297   0.368   4.200   4.022 -0.0556  0.0841 -2.4105
 1294TIP3    H225298   0.481   4.289   4.069 -1.0047  0.4478 -0.7069
 1295TIP3   OH225299   5.553   2.601   0.737 -0.1138 -0.1132  0.1528
 1295TIP3    H125300   5.573   2.691   0.764  0.5213 -0.5646  1.3068
 1295TIP3    H225301   5.496   2.567   0.806  2.4250 -1.6599  1.6754
 1296TIP3   OH225302   4.267   0.510   0.352 -0.3434  0.3839 -0.5268
 1296TIP3    H125303   4.193   0.489   0.410 -1.2600  0.7775 -1.5293
 1296TIP3    H225304   4.337   0.535   0.412 -0.9657 -0.1308  0.4553
 1297TIP3   OH225305   5.029   5.541   2.572 -0.7090 -0.3234 -0.3528
 1297TIP3    H125306   5.036   5.527   2.478  0.0645  0.5428 -0.4390
 1297TIP3    H225307   5.077   5.467   2.611  0.1216  0.0269 -0.6849
 1298TIP3   OH225308   1.569   5.135   0.730 -0.3465  0.5346  0.1948
 1298TIP3    H125309   1.505   5.146   0.659 -1.4695  0.7616  1.2103
 1298TIP3    H225310   1.515   5.125   0.809  0.8890  1.0652  1.1277
 1299TIP3   OH225311   6.426   3.226  15.661  0.2301  0.3159  0.7245
 1299TIP3    H125312   6.438   3.290  15.732  2.0295 -0.7233  1.4196
 1299TIP3    H225313   6.340   3.247  15.625  0.1053  2.1402  1.9252
 1300TIP3   OH225314   2.198   4.554  14.926 -0.0429 -0.3215 -0.4044
 1300TIP3    H125315   2.273   4.564  14.867 -0.0548  0.3129 -0.3176
 1300TIP3    H225316   2.123   4.581  14.873 -0.1735 -0.6560 -0.3924
 1301TIP3   OH225317   1.298   3.039   2.669  0.4621  0.4187 -0.3022
 1301TIP3    H125318   1.236   2.966   2.669  1.4134 -0.4160 -0.6428
 1301TIP3    H225319   1.366   3.012   2.607  0.3497  2.0258 -1.1839
 1302TIP3   OH225320   6.156   0.750   4.482 -0.4130  0.0938  0.2118
 1302TIP3    H125321   6.082   0.752   4.421  0.9479  0.1992 -1.5450
 1302TIP3    H225322   6.146   0.830   4.534 -1.7561 -0.1173  0.3112
 1303TIP3   OH225323   5.175   3.473  11.635  0.5413  0.4520  0.5986
 1303TIP3    H125324   5.158   3.384  11.668  0.7005  0.7330  1.4530
 1303TIP3    H225325   5.255   3.464  11.584 -0.5102 -0.2956 -1.0470
 1304TIP3   OH225326   2.618   2.930  16.591 -0.3200 -0.0268  0.2337
 1304TIP3    H125327   2.693   2.872  16.602 -0.4995 -0.0683  1.3518
 1304TIP3    H225328   2.655   3.018  16.598 -0.4788 -0.0552  1.6392
 1305TIP3   OH225329   5.947   2.025   4.824 -0.5852 -0.0859  0.4014
 1305TIP3    H125330   5.903   2.036   4.908  1.6958 -0.1132  1.6769
 1305TIP3    H225331   6.005   1.949   4.837  1.6849  1.4084 -0.2994
 1306TIP3   OH225332   4.314   1.564  14.465  0.1053  0.0832  0.4218
 1306TIP3    H125333   4.350   1.577  14.553  1.1060 -0.1459  0.0620
 1306TIP3    H225334   4.264   1.482  14.472  0.9668 -0.4382  0.5479
 1307TIP3   OH225335   5.667   2.328   3.565 -0.0974 -0.3732  0.3090
 1307TIP3    H125336   5.615   2.302   3.489 -0.2081 -3.1546  1.2316
 1307TIP3    H225337   5.625   2.407   3.597 -0.3551  0.5960 -2.1655
 1308TIP3   OH225338   2.763   2.683   4.218  0.0311  0.4558 -0.0018
 1308TIP3    H125339   2.820   2.756   4.239 -0.1141  0.5245  0.1574
 1308TIP3    H225340   2.764   2.678   4.122 -0.2839  0.9279 -0.0336
 1309TIP3   OH225341   1.829   1.088  15.497  0.1753  0.6868  0.6811
 1309TIP3    H125342   1.751   1.063  15.545  0.4971 -0.7012  0.5229
 1309TIP3    H225343   1.852   1.010  15.446  0.5971  1.6783 -0.7044
 1310TIP3   OH225344   1.344   1.005   2.667  0.2764 -0.3693 -0.6265
 1310TIP3    H125345   1.306   1.016   2.580  0.0372  0.9169 -0.3801
 1310TIP3    H225346   1.270   1.016   2.727  1.0375  2.9664 -0.0981
 1311TIP3   OH225347   1.914   4.780   1.902  0.1021  0.2510  0.0670
 1311TIP3    H125348   1.877   4.727   1.831  0.9772 -1.6738  0.9685
 1311TIP3    H225349   1.840   4.796   1.961 -0.1821 -0.0150 -0.2118
 1312TIP3   OH225350   3.784   5.994  15.214  0.5398 -0.1029 -0.2830
 1312TIP3    H125351   3.744   5.938  15.148 -1.1514  0.9164 -0.1752
 1312TIP3    H225352   3.764   5.951  15.297 -1.6499  1.0658 -0.1178
 1313TIP3   OH225353   4.153   4.330  14.134  0.3224 -0.1549  1.2313
 1313TIP3    H125354   4.246   4.316  14.156  1.1106 -0.1409 -1.6846
 1313TIP3    H225355   4.145   4.424  14.122  0.2489 -0.2596  0.3662
 1314TIP3   OH225356   1.385   0.123   3.824  0.5822 -0.7568 -0.0506
 1314TIP3    H125357   1.311   0.093   3.876  0.9743 -1.7247 -0.0258
 1314TIP3    H225358   1.443   0.047   3.819  1.5925 -0.0118 -0.0357
 1315TIP3   OH225359   1.321   0.188  14.336 -0.4249  0.2193  0.4457
 1315TIP3    H125360   1.354   0.274  14.310 -1.4253  0.3800 -0.3756
 1315TIP3    H225361   1.276   0.203  14.419 -1.4750  0.7138 -0.1934
 1316TIP3   OH225362   0.298   6.444  12.047  0.3722  0.3991 -0.2499
 1316TIP3    H125363   0.300   6.419  11.955  0.1732 -0.3350 -0.0600
 1316TIP3    H225364   0.254   6.371  12.091  1.5025  0.1980  0.5928
 1317TIP3   OH225365   2.422   2.332  12.260 -0.1943  0.4015  0.0106
 1317TIP3    H125366   2.446   2.412  12.212 -1.2150  0.3773 -0.5547
 1317TIP3    H225367   2.337   2.352  12.299  0.3358  0.2062  1.3423
 1318TIP3   OH225368   3.467   5.480  15.970 -0.6000 -0.1486 -0.1518
 1318TIP3    H125369   3.429   5.406  15.923  0.3016 -2.1876  2.1058
 1318TIP3    H225370   3.418   5.483  16.053  0.6318  0.5798  0.5776
 1319TIP3   OH225371   5.750   5.031   0.237  0.5782  0.6732 -0.2025
 1319TIP3    H125372   5.743   5.106   0.296 -0.5485 -0.3977  1.1216
 1319TIP3    H225373   5.685   5.049   0.168  0.0402  0.7439  0.3147
 1320TIP3   OH225374   1.029   4.649  11.322 -0.0358  0.1412 -0.0856
 1320TIP3    H125375   0.956   4.589  11.338  1.7548 -1.5873  2.4593
 1320TIP3    H225376   1.070   4.615  11.242  0.0520 -1.1233  0.4741
 1321TIP3   OH225377   0.585   0.415  12.464  0.8732 -0.1388 -0.0979
 1321TIP3    H125378   0.591   0.320  12.469  1.3835 -0.0736  0.8538
 1321TIP3    H225379   0.666   0.442  12.421  0.2138 -0.1892 -1.4139
 1322TIP3   OH225380   4.219   3.968  12.727  0.0939 -0.0268 -0.4601
 1322TIP3    H125381   4.136   3.953  12.683 -0.2011 -0.2398  0.1547
 1322TIP3    H225382   4.283   3.921  12.673 -0.5325 -1.8950  0.3464
 1323TIP3   OH225383   3.758   4.844   4.411 -0.2636 -0.1432  0.2870
 1323TIP3    H125384   3.803   4.911   4.462 -2.0491  1.9907 -0.7658
 1323TIP3    H225385   3.679   4.825   4.462 -0.5027 -0.3062 -0.1379
 1324TIP3   OH225386   2.615   4.494   4.278  0.3788  0.0772  0.1602
 1324TIP3    H125387   2.591   4.431   4.210 -0.5252  1.4066 -0.7831
 1324TIP3    H225388   2.710   4.502   4.269  0.4519 -0.8051  0.0020
 1325TIP3   OH225389   6.572   5.449   5.892  0.2161 -0.0258  0.0363
 1325TIP3    H125390   6.662   5.424   5.912  0.0920  0.0538  0.7055
 1325TIP3    H225391   6.573   5.466   5.798  0.7252 -0.7397 -0.0951
 1326TIP3   OH225392   1.408   0.492  14.293  0.1688 -0.4099  1.0371
 1326TIP3    H125393   1.315   0.484  14.275  0.3638  0.6739 -0.6485
 1326TIP3    H225394   1.414   0.557  14.364 -0.2774  1.9941 -0.9804
 1327TIP3   OH225395   1.352   5.529   3.523 -0.0452  0.1984  0.3143
 1327TIP3    H125396   1.394   5.507   3.439  2.6018 -0.5704  1.7156
 1327TIP3    H225397   1.273   5.476   3.524  1.3805 -2.1305 -0.4958
 1328TIP3   OH225398   1.232   0.450   5.014 -0.1181  0.3023  0.1547
 1328TIP3    H125399   1.168   0.479   5.080  1.5958  1.4132  1.4113
 1328TIP3    H225400   1.278   0.530   4.990  0.6110 -0.4274 -0.9357
 1329TIP3   OH225401   5.380   2.153  17.223 -0.2471  0.0719  0.0881
 1329TIP3    H125402   5.297   2.148  17.271 -0.5962  0.6821 -0.4403
 1329TIP3    H225403   5.411   2.062  17.220 -1.2228 -0.2599 -0.2785
 1330TIP3   OH225404   2.145   3.007   4.166 -0.1570  0.4756 -0.1746
 1330TIP3    H125405   2.185   3.034   4.249  0.3353  2.0295 -0.8846
 1330TIP3    H225406   2.206   3.038   4.099  0.0456 -1.7739 -1.1156
 1331TIP3   OH225407   1.172   5.777   4.704 -0.2583 -0.2264 -0.1946
 1331TIP3    H125408   1.138   5.859   4.739  0.9613 -0.3613  1.4133
 1331TIP3    H225409   1.147   5.779   4.611 -2.7467  0.5916  0.4235
 1332TIP3   OH225410   3.167   4.332  11.674 -0.7688  0.7274 -0.1406
 1332TIP3    H125411   3.228   4.374  11.734 -3.7802  3.7060  1.1506
 1332TIP3    H225412   3.220   4.268  11.627  2.8010  1.5943  2.2947
 1333TIP3   OH225413   4.044   2.824   6.142  0.2077  0.1411  0.0101
 1333TIP3    H125414   3.999   2.853   6.221  0.8160 -0.1312  0.4678
 1333TIP3    H225415   3.976   2.824   6.074 -0.7368 -1.1954  0.8967
 1334TIP3   OH225416   2.154   6.458   2.441 -0.7939 -0.6679 -0.1027
 1334TIP3    H125417   2.148   6.381   2.385 -1.1681  0.2246 -1.3305
 1334TIP3    H225418   2.245   6.485   2.437 -0.5426 -1.3457  0.7682
 1335TIP3   OH225419   4.970   5.736  12.713 -0.7559  0.2842  0.0556
 1335TIP3    H125420   5.009   5.661  12.758  0.7855  1.9075  1.5913
 1335TIP3    H225421   5.021   5.811  12.744 -2.3054  1.9897 -1.3354
 1336TIP3   OH225422   1.491   3.450  14.733  0.2410 -0.3964 -0.6875
 1336TIP3    H125423   1.402   3.483  14.744  0.9861  1.2738  0.8915
 1336TIP3    H225424   1.545   3.529  14.729  1.8392 -1.3663  0.4424
 1337TIP3   OH225425   3.370   5.748   4.057  0.2386 -0.3467 -0.0357
 1337TIP3    H125426   3.437   5.751   4.125 -0.6370 -0.6995  0.8674
 1337TIP3    H225427   3.356   5.840   4.034  1.5604 -0.3043 -0.8054
 1338TIP3   OH225428   3.834   2.830   5.334 -0.4091  0.0087 -0.0616
 1338TIP3    H125429   3.808   2.826   5.242 -0.1107 -0.1285 -0.1390
 1338TIP3    H225430   3.860   2.921   5.347  0.3105 -0.1523 -0.3208
 1339TIP3   OH225431   5.777   1.770  11.296  1.1391 -0.6426  0.2028
 1339TIP3    H125432   5.701   1.757  11.239  1.6833 -0.0277 -0.6832
 1339TIP3    H225433   5.739   1.792  11.381  0.2995  0.8601 -0.5174
 1340TIP3   OH225434   1.732   1.198   0.185 -0.0012  0.8117  0.5344
 1340TIP3    H125435   1.811   1.241   0.219  0.4420  0.2027  0.2995
 1340TIP3    H225436   1.743   1.106   0.211 -0.6554  0.7303  0.5315
 1341TIP3   OH225437   2.465   0.429   4.517  0.3022  0.3565 -0.2142
 1341TIP3    H125438   2.395   0.370   4.544  1.0601 -1.8766 -2.7391
 1341TIP3    H225439   2.497   0.467   4.599 -1.0638 -1.7722  1.4170
 1342TIP3   OH225440   5.380   3.409  16.614  0.2379  0.7293  0.3300
 1342TIP3    H125441   5.288   3.428  16.631  0.0033  1.4435 -1.5256
 1342TIP3    H225442   5.406   3.350  16.685 -1.5143  0.8657  1.1313
 1343TIP3   OH225443   0.029   4.599  14.223  0.1396 -0.4280  0.0908
 1343TIP3    H125444  -0.033   4.528  14.207 -1.5054  1.2376 -1.4095
 1343TIP3    H225445  -0.021   4.662  14.275  0.2210  1.3088 -1.8286
 1344TIP3   OH225446   1.547   2.826   6.474  0.2843 -0.1079 -0.2096
 1344TIP3    H125447   1.500   2.779   6.544 -1.7564  1.2635 -0.5602
 1344TIP3    H225448   1.492   2.816   6.397  0.0563  2.2630 -0.4472
 1345TIP3   OH225449   5.898   4.665   3.649 -0.4573 -0.5349 -0.5092
 1345TIP3    H125450   5.966   4.726   3.678  0.2008 -1.9417  1.0293
 1345TIP3    H225451   5.818   4.696   3.691  0.2459 -1.7993  1.9080
 1346TIP3   OH225452   2.526   3.824   3.238 -0.4859 -0.2973 -0.0999
 1346TIP3    H125453   2.439   3.861   3.253 -0.4918  0.3030 -1.4739
 1346TIP3    H225454   2.547   3.779   3.320 -2.5580 -1.4095 -0.0858
 1347TIP3   OH225455   2.557   5.171   0.284  0.5004 -0.0532 -0.0747
 1347TIP3    H125456   2.528   5.180   0.193 -1.2248 -0.5442  0.3895
 1347TIP3    H225457   2.652   5.160   0.278  0.2905 -1.3132 -1.9097
 1348TIP3   OH225458   2.921   5.212  17.065 -0.0855  0.5969  0.3622
 1348TIP3    H125459   2.879   5.141  17.018  0.3472  0.0390  0.7997
 1348TIP3    H225460   2.864   5.227  17.141 -0.4784  1.1106 -0.0253
 1349TIP3   OH225461   1.783   3.424  12.460  0.0709  0.0251 -0.3531
 1349TIP3    H125462   1.806   3.385  12.376  0.3770 -0.3591 -0.0939
 1349TIP3    H225463   1.688   3.418  12.465  0.0307  0.2737 -0.7771
 1350TIP3   OH225464   5.752   2.485  16.984  0.0102  0.4440 -0.3771
 1350TIP3    H125465   5.681   2.431  17.019  0.0926 -0.0925 -0.9915
 1350TIP3    H225466   5.780   2.438  16.905 -0.2955  1.6915 -1.2495
 1351TIP3   OH225467   3.297   3.751  14.374 -0.0152  0.0735  0.6688
 1351TIP3    H125468   3.297   3.655  14.373 -1.6844  0.0576  0.5178
 1351TIP3    H225469   3.293   3.774  14.467 -3.9301 -0.1176  0.7206
 1352TIP3   OH225470   1.098   3.443   1.196 -0.4575  0.1681  0.1173
 1352TIP3    H125471   1.084   3.353   1.166 -0.8846 -0.1826  1.2877
 1352TIP3    H225472   1.164   3.435   1.266  2.2176  1.2260 -2.1085
 1353TIP3   OH225473   4.231   1.441   6.590 -0.0663 -0.8087 -0.8282
 1353TIP3    H125474   4.203   1.476   6.675 -1.4428 -0.2876 -1.4570
 1353TIP3    H225475   4.277   1.360   6.612  0.4557 -0.1871  0.4689
 1354TIP3   OH225476   6.613   4.599  12.096 -0.7162  0.8434 -0.2234
 1354TIP3    H125477   6.697   4.595  12.141 -0.8103 -0.5265 -0.1383
 1354TIP3    H225478   6.562   4.663  12.146 -0.4788  0.0698  1.0556
 1355TIP3   OH225479   0.883   2.115   1.923  0.2557  0.3555  0.7308
 1355TIP3    H125480   0.862   2.022   1.932 -1.2270  0.5125 -0.6102
 1355TIP3    H225481   0.799   2.156   1.899  1.0654  1.8907  0.3942
 1356TIP3   OH225482   5.121   1.890  16.953  0.3076  0.5669 -0.2028
 1356TIP3    H125483   5.177   1.815  16.932  1.3691  1.1958  0.2528
 1356TIP3    H225484   5.155   1.961  16.899 -1.5138  0.4314 -1.5966
 1357TIP3   OH225485   2.071   4.458  11.164  0.1550  0.3981  0.4754
 1357TIP3    H125486   2.155   4.412  11.164 -0.0377 -0.0747 -1.5728
 1357TIP3    H225487   2.024   4.423  11.239  0.3790 -2.1357 -0.4429
 1358TIP3   OH225488   5.352   0.472   5.601 -0.1867 -0.1294  0.4582
 1358TIP3    H125489   5.333   0.380   5.623 -1.4366 -0.3709 -1.3265
 1358TIP3    H225490   5.436   0.469   5.556 -0.4421 -0.4785 -0.0030
 1359TIP3   OH225491   3.106   4.097  14.702 -0.0549  0.1116  0.2170
 1359TIP3    H125492   3.080   4.182  14.667  0.4361  0.8420  1.5588
 1359TIP3    H225493   3.039   4.076  14.768 -1.0628 -1.3223 -1.1895
 1360TIP3   OH225494   4.288   2.920   6.596 -0.1225  0.0245  0.2437
 1360TIP3    H125495   4.360   2.875   6.551 -1.3322  0.3743 -2.2100
 1360TIP3    H225496   4.316   3.011   6.601 -0.8837  0.4417 -1.9964
 1361TIP3   OH225497   5.634   4.359   3.775  0.0030  0.0834 -0.4337
 1361TIP3    H125498   5.602   4.304   3.847  1.8908 -1.1574 -0.4864
 1361TIP3    H225499   5.635   4.301   3.699  0.8653  0.5343 -0.7778
 1362TIP3   OH225500   3.999   3.054   2.043 -0.1611  0.0897  0.1546
 1362TIP3    H125501   4.031   2.991   2.107  0.7266  0.8649  0.5120
 1362TIP3    H225502   4.052   3.038   1.964  0.1323  0.4424  0.2776
 1363TIP3   OH225503   2.623   1.345  11.378 -0.1055 -0.1909 -0.0856
 1363TIP3    H125504   2.531   1.332  11.355 -0.3916 -0.1050  0.9807
 1363TIP3    H225505   2.669   1.276  11.331 -0.6976 -0.1576 -0.7305
 1364TIP3   OH225506   6.165   2.853   2.809  0.3947  0.3093 -0.7893
 1364TIP3    H125507   6.129   2.868   2.722  0.6964 -0.0677 -0.9772
 1364TIP3    H225508   6.241   2.911   2.814  1.2473 -0.7429 -1.3208
 1365TIP3   OH225509   3.994   4.738   4.618  0.2385 -0.2589  0.6400
 1365TIP3    H125510   3.973   4.813   4.562  1.8798 -0.9516 -1.0423
 1365TIP3    H225511   3.972   4.661   4.564 -0.9337 -1.0132  2.1272
 1366TIP3   OH225512   4.269   3.950  15.995  0.4125 -0.1353 -0.1764
 1366TIP3    H125513   4.218   4.019  16.037  0.4381  0.2484 -0.7663
 1366TIP3    H225514   4.358   3.984  15.993  0.6957 -0.7632  0.7654
 1367TIP3   OH225515   3.369   5.025   5.469 -0.6326  0.0917 -0.3005
 1367TIP3    H125516   3.420   4.944   5.465 -0.6570  0.0238  0.5392
 1367TIP3    H225517   3.395   5.065   5.552 -2.1062 -0.0553  0.2521
 1368TIP3   OH225518   0.440   1.217   3.546 -0.1412 -0.8960  0.0676
 1368TIP3    H125519   0.508   1.257   3.600  0.7927  2.2347 -3.0682
 1368TIP3    H225520   0.368   1.280   3.549 -0.8399 -1.6396 -0.7680
 1369TIP3   OH225521   2.299   3.407   4.762  0.7249 -0.2667 -0.3700
 1369TIP3    H125522   2.211   3.380   4.735  0.6515 -0.8889  0.4533
 1369TIP3    H225523   2.331   3.335   4.817  1.1500  0.6345  0.6095
 1370TIP3   OH225524   3.111   0.750   3.121  0.5966  0.0099 -0.0834
 1370TIP3    H125525   3.181   0.801   3.081  2.3938 -0.4493  2.2122
 1370TIP3    H225526   3.149   0.664   3.136  0.1735  0.1831  2.6091
 1371TIP3   OH225527   4.346   3.580   0.464 -0.2854 -0.0008 -0.1653
 1371TIP3    H125528   4.279   3.648   0.460  1.8714  2.3543  0.7229
 1371TIP3    H225529   4.408   3.604   0.394  0.1598 -1.5053 -0.3191
 1372TIP3   OH225530   3.403   0.971  14.674  0.1676 -0.4822 -0.0019
 1372TIP3    H125531   3.318   0.940  14.644 -0.6746  1.8310 -0.1910
 1372TIP3    H225532   3.383   1.044  14.733  1.9834  1.8134 -1.9707
 1373TIP3   OH225533   0.203   1.572   2.688 -0.1923  0.3941  0.0942
 1373TIP3    H125534   0.188   1.639   2.621 -0.0807 -1.4134 -1.8358
 1373TIP3    H225535   0.121   1.568   2.737 -1.2454 -0.0269 -1.6417
 1374TIP3   OH225536   4.183   2.789   0.184  0.2324  0.2026 -0.4383
 1374TIP3    H125537   4.190   2.878   0.218 -2.2541 -0.0648  0.9896
 1374TIP3    H225538   4.248   2.739   0.233 -0.6302  0.6227  1.1920
 1375TIP3   OH225539   5.347   2.764  13.077  0.0748 -0.2492  0.0478
 1375TIP3    H125540   5.285   2.834  13.098  1.1312  1.1014 -1.1447
 1375TIP3    H225541   5.294   2.697  13.035 -0.8056  0.2638  0.3136
 1376TIP3   OH225542   0.005   4.340  15.170 -0.1211  0.4957 -0.4557
 1376TIP3    H125543  -0.049   4.419  15.166  0.1610  0.7834  0.9485
 1376TIP3    H225544  -0.012   4.304  15.257 -0.9380 -1.5045 -1.3951
 1377TIP3   OH225545   0.698   5.365  12.394 -0.2752  0.3040 -0.8170
 1377TIP3    H125546   0.621   5.383  12.341  0.1322  1.8829 -0.9236
 1377TIP3    H225547   0.688   5.420  12.471  0.0068 -0.6444 -0.0843
 1378TIP3   OH225548   5.462   4.870  12.486  0.2957 -0.0781  0.2524
 1378TIP3    H125549   5.536   4.838  12.434  1.3913  2.1066  0.3176
 1378TIP3    H225550   5.386   4.825  12.450  1.5624 -1.9221 -0.2567
 1379TIP3   OH225551   6.028   3.971   6.433  0.4950  0.2010  0.2627
 1379TIP3    H125552   6.002   4.034   6.366  0.4945 -0.7029 -0.6088
 1379TIP3    H225553   6.122   3.987   6.445  0.7327 -0.3169 -0.7401
 1380TIP3   OH225554   3.474   3.249   4.394 -0.1194  0.4990  0.0975
 1380TIP3    H125555   3.467   3.296   4.311 -0.7062  0.5042  0.1402
 1380TIP3    H225556   3.415   3.297   4.453 -1.1067 -0.5579  0.0096
 1381TIP3   OH225557   0.030   0.201  12.184  0.0686  0.4226  0.6415
 1381TIP3    H125558   0.051   0.290  12.156 -0.7782  0.5231  0.3036
 1381TIP3    H225559  -0.037   0.172  12.123 -1.5703  0.5124  2.2951
 1382TIP3   OH225560   3.202   6.086   1.518 -0.3602 -0.0399  0.0543
 1382TIP3    H125561   3.232   6.166   1.561  0.2108 -0.2384  0.0225
 1382TIP3    H225562   3.281   6.045   1.483 -0.9935  1.3042 -3.2957
 1383TIP3   OH225563   0.679   4.009  16.490  0.2067 -0.7089  0.3147
 1383TIP3    H125564   0.614   4.079  16.495  0.9256 -0.1122  1.8276
 1383TIP3    H225565   0.704   4.006  16.397  0.0264  0.9040  0.1937
 1384TIP3   OH225566   6.178   2.633  12.608 -0.2079 -0.2537  0.4677
 1384TIP3    H125567   6.136   2.709  12.568  0.8244 -0.2362 -0.6194
 1384TIP3    H225568   6.268   2.662  12.624  0.5446 -1.6063 -1.0709
 1385TIP3   OH225569   1.927   0.771   3.869 -0.3348  0.4524  0.1160
 1385TIP3    H125570   1.848   0.810   3.831 -0.9900 -2.1749 -1.5368
 1385TIP3    H225571   1.958   0.710   3.801  0.9464 -1.3607  2.2118
 1386TIP3   OH225572   5.105   5.239   1.025 -0.3946 -1.2404  0.0818
 1386TIP3    H125573   5.083   5.148   1.003 -0.8594 -1.1446  0.1279
 1386TIP3    H225574   5.020   5.283   1.029 -0.0567 -0.1020 -2.8453
 1387TIP3   OH225575   3.034   5.900  12.174  0.2673 -0.2959 -0.1976
 1387TIP3    H125576   3.117   5.947  12.181 -0.7254  1.3796  1.2525
 1387TIP3    H225577   3.044   5.825  12.233  0.8498 -0.2770 -0.2649
 1388TIP3   OH225578   0.067   1.926  16.327 -0.4201 -0.4901 -0.0243
 1388TIP3    H125579   0.149   1.902  16.284  0.4025 -0.1852  1.2988
 1388TIP3    H225580   0.078   2.019  16.347 -1.5474 -0.1821 -0.7964
 1389TIP3   OH225581   5.195   4.711   2.710  0.7109  0.1578 -0.0133
 1389TIP3    H125582   5.269   4.767   2.688  0.7370 -0.0201 -0.3857
 1389TIP3    H225583   5.200   4.700   2.805  1.1805  0.1170 -0.0434
 1390TIP3   OH225584   1.706   6.703  15.065  0.2414 -0.2200 -0.0797
 1390TIP3    H125585   1.725   6.680  15.156  0.1711 -3.4939 -0.7504
 1390TIP3    H225586   1.775   6.659  15.015  0.4793  1.7925 -1.6311
 1391TIP3   OH225587   5.992   4.715   5.121  0.0821  0.3953  0.3660
 1391TIP3    H125588   5.981   4.743   5.030 -0.4735  0.3175  0.4081
 1391TIP3    H225589   5.916   4.751   5.166 -0.3164 -0.6629  0.5476
 1392TIP3   OH225590   1.118   6.003   0.657 -0.7278  0.1822 -0.1743
 1392TIP3    H125591   1.146   6.075   0.713 -1.1561 -0.0974  0.4160
 1392TIP3    H225592   1.027   5.987   0.682 -0.3645 -1.1827  0.3903
 1393TIP3   OH225593   5.219   5.373   3.858  0.5161  0.6908  0.2829
 1393TIP3    H125594   5.265   5.456   3.842 -1.0065  1.6644  0.6826
 1393TIP3    H225595   5.284   5.305   3.839  0.9060  1.8628 -3.2742
 1394TIP3   OH225596   1.499   2.404  13.751 -0.3133 -0.3497 -0.7060
 1394TIP3    H125597   1.528   2.446  13.670 -0.9218  1.2894 -0.1215
 1394TIP3    H225598   1.575   2.356  13.782  1.1311  1.9854 -0.3934
 1395TIP3   OH225599   3.089   0.335   0.658 -0.3069  0.0946  0.0878
 1395TIP3    H125600   3.184   0.345   0.667  0.0898 -1.3907 -1.8651
 1395TIP3    H225601   3.054   0.421   0.681  1.5056  0.6921  0.8116
 1396TIP3   OH225602   4.752   1.208   3.289 -0.0018 -0.3067  0.9753
 1396TIP3    H125603   4.673   1.174   3.247 -0.5515  0.2440  1.5482
 1396TIP3    H225604   4.783   1.277   3.230 -0.5755  0.2246  1.2779
 1397TIP3   OH225605   3.727   3.204  14.593  0.0976 -0.3327  0.4495
 1397TIP3    H125606   3.770   3.119  14.585 -1.0420 -0.8692 -0.1905
 1397TIP3    H225607   3.725   3.239  14.504 -1.3554 -0.6325  0.3342
 1398TIP3   OH225608   2.090   0.089   4.052  0.4585 -0.2213 -0.1283
 1398TIP3    H125609   2.046   0.009   4.023 -0.3766 -0.8318  2.5884
 1398TIP3    H225610   2.183   0.073   4.034  0.2828 -1.7289  0.2073
 1399TIP3   OH225611   1.489   3.020   6.671  0.1858  0.1459 -0.0639
 1399TIP3    H125612   1.548   2.983   6.606  0.0953 -0.2194  0.0576
 1399TIP3    H225613   1.418   2.955   6.678 -0.9341  1.1926 -1.1957
 1400TIP3   OH225614   1.250   6.552   4.657  0.7234 -0.4353 -0.0218
 1400TIP3    H125615   1.284   6.554   4.567 -0.5453 -0.6055 -0.5282
 1400TIP3    H225616   1.325   6.578   4.711  1.5928 -0.5941 -1.0940
 1401TIP3   OH225617   5.409   2.961   4.852 -0.4034 -0.5672 -0.3528
 1401TIP3    H125618   5.426   3.054   4.836  0.0877 -0.4405  0.7993
 1401TIP3    H225619   5.490   2.928   4.891 -0.2047 -1.7304 -1.6450
 1402TIP3   OH225620   6.399   5.216  11.230 -0.5337 -0.0818 -0.1699
 1402TIP3    H125621   6.323   5.271  11.209  0.7039  1.2710 -1.3176
 1402TIP3    H225622   6.422   5.239  11.320 -1.8264 -0.9773  0.4270
 1403TIP3   OH225623   3.787   1.245  11.318 -0.3074 -0.8902  0.4407
 1403TIP3    H125624   3.755   1.328  11.282 -3.2678 -1.7207  0.9179
 1403TIP3    H225625   3.745   1.178  11.264  0.8951 -2.1094  0.9702
 1404TIP3   OH225626   1.201   4.560  12.684 -0.1387 -0.1760 -0.7306
 1404TIP3    H125627   1.162   4.514  12.610 -1.3044 -1.3456  0.5738
 1404TIP3    H225628   1.264   4.498  12.721 -0.6142 -0.1689  0.1163
 1405TIP3   OH225629   0.038   2.904  11.335 -0.8048  0.1000 -0.7347
 1405TIP3    H125630  -0.035   2.888  11.275 -0.5482  1.2141 -1.3705
 1405TIP3    H225631   0.054   2.998  11.330 -1.3341  0.3934  1.7851
 1406TIP3   OH225632   5.567   2.979   3.849  0.1145 -0.0182  0.1861
 1406TIP3    H125633   5.621   2.900   3.851 -1.2632 -1.1654 -2.5786
 1406TIP3    H225634   5.631   3.050   3.840  1.3055 -1.0593  0.0742
 1407TIP3   OH225635   3.024   0.570   3.803 -0.2722  0.6760  0.4932
 1407TIP3    H125636   2.945   0.624   3.809 -0.6872  0.5667 -2.4199
 1407TIP3    H225637   3.082   0.604   3.871 -0.8209  4.3291 -0.6380
 1408TIP3   OH225638   0.587   1.507  15.460 -0.0463 -0.3222  0.0729
 1408TIP3    H125639   0.505   1.554  15.447 -0.1275 -0.7840 -1.3291
 1408TIP3    H225640   0.655   1.570  15.436  0.0857  0.3616  2.1331
 1409TIP3   OH225641   0.886   4.755  16.013  0.0124 -0.7018  0.0041
 1409TIP3    H125642   0.848   4.686  16.067  0.1815 -0.6111  0.2429
 1409TIP3    H225643   0.844   4.836  16.045  1.1710 -0.4646  1.0024
 1410TIP3   OH225644   4.882   0.874   3.545  0.6044 -0.3483  0.0838
 1410TIP3    H125645   4.847   0.962   3.545 -1.1268 -0.9989 -0.3351
 1410TIP3    H225646   4.891   0.852   3.638 -1.4446 -0.6288  0.2608
 1411TIP3   OH225647   3.038   2.344  12.932  0.7704 -0.0306  0.7719
 1411TIP3    H125648   3.076   2.427  12.961  1.5270  0.3892 -1.2633
 1411TIP3    H225649   2.996   2.364  12.848 -1.2819 -1.1818  1.4311
 1412TIP3   OH225650   6.292   3.237  12.123  0.2624  0.6385  0.4439
 1412TIP3    H125651   6.258   3.209  12.208 -0.2823 -0.1269 -0.0168
 1412TIP3    H225652   6.216   3.272  12.077  0.4671  0.6468  0.1102
 1413TIP3   OH225653   5.915   5.094   3.450  0.3950 -0.2987 -0.5030
 1413TIP3    H125654   5.999   5.091   3.496  1.2092  1.3468 -1.7553
 1413TIP3    H225655   5.936   5.062   3.362 -0.0783  0.8980 -1.0731
 1414TIP3   OH225656   3.957   2.424   1.588  0.3603 -0.2764 -0.1101
 1414TIP3    H125657   3.920   2.355   1.534  0.3294 -0.6972  0.4461
 1414TIP3    H225658   3.885   2.486   1.600  0.3119 -0.2762 -0.3855
 1415TIP3   OH225659   6.544   5.898  16.347  0.0070 -0.2525 -0.0725
 1415TIP3    H125660   6.534   5.816  16.396 -4.1170  0.4565  0.6870
 1415TIP3    H225661   6.609   5.948  16.396  0.0551 -1.7377  1.4667
 1416TIP3   OH225662   3.915   4.484  13.987  0.6118 -0.2699 -0.8915
 1416TIP3    H125663   3.882   4.573  13.999  1.1567 -0.0870 -0.7120
 1416TIP3    H225664   3.873   4.453  13.907  0.1454  0.0167 -0.7589
 1417TIP3   OH225665   0.175   4.767   1.360  0.3534 -0.0931  0.5640
 1417TIP3    H125666   0.142   4.682   1.331  0.1876  0.2174 -0.1790
 1417TIP3    H225667   0.243   4.746   1.424  0.4716 -0.7907  0.2167
 1418TIP3   OH225668   3.917   5.889   4.506  0.1945  0.4334  0.5997
 1418TIP3    H125669   3.899   5.799   4.478 -1.0136  0.2908  1.7455
 1418TIP3    H225670   3.865   5.943   4.445  0.4561  0.3318  0.2830
 1419TIP3   OH225671   0.487   0.302   0.314 -0.4849  0.0670  0.1142
 1419TIP3    H125672   0.460   0.293   0.222  0.6447 -1.2584 -0.1163
 1419TIP3    H225673   0.405   0.300   0.363 -1.1930  1.7866 -0.8817
 1420TIP3   OH225674   3.339   2.443  11.980  0.3996 -0.2332  0.0888
 1420TIP3    H125675   3.299   2.478  12.060  0.8451  1.3977 -0.3745
 1420TIP3    H225676   3.407   2.383  12.013  1.1451  1.0509  0.9827
 1421TIP3   OH225677   0.520   4.104   5.444 -0.3074  0.2605 -0.2904
 1421TIP3    H125678   0.504   4.043   5.516 -1.0355 -0.8732 -1.3600
 1421TIP3    H225679   0.615   4.101   5.430  0.0081  1.3847  1.3300
 1422TIP3   OH225680   0.495   4.142  17.110  0.0201 -0.3692  0.7280
 1422TIP3    H125681   0.499   4.046  17.103 -0.0934 -0.3005 -0.5910
 1422TIP3    H225682   0.539   4.162  17.192 -0.1618 -1.5733  1.1412
 1423TIP3   OH225683   3.376   4.521   5.221  0.0681 -0.1986 -0.2472
 1423TIP3    H125684   3.427   4.450   5.260  0.3891 -0.4100 -1.0287
 1423TIP3    H225685   3.287   4.509   5.254  0.5802  0.4209  1.4723
 1424TIP3   OH225686   1.183   3.631   1.809 -0.0895 -0.2982 -0.1162
 1424TIP3    H125687   1.264   3.657   1.853 -0.7127  0.1794  0.7597
 1424TIP3    H225688   1.145   3.564   1.865 -0.2074 -0.6754 -0.6337
 1425TIP3   OH225689   1.447   4.788  11.489 -0.1535  0.1358 -0.4871
 1425TIP3    H125690   1.354   4.766  11.488 -0.1571 -0.3062  2.2336
 1425TIP3    H225691   1.482   4.748  11.409 -1.6165 -3.1267  0.3485
 1426TIP3   OH225692   0.320   1.170   6.909  0.4920 -0.1346 -0.5485
 1426TIP3    H125693   0.392   1.136   6.962  1.6904  0.7301 -1.5367
 1426TIP3    H225694   0.310   1.105   6.839  1.5901  0.6316 -1.4468
 1427TIP3   OH225695   1.211   2.143   6.417  0.0115  0.1393  0.1740
 1427TIP3    H125696   1.129   2.189   6.436  0.6996  1.4026  0.1784
 1427TIP3    H225697   1.222   2.151   6.322  0.2387  0.1669  0.2014
 1428TIP3   OH225698   0.590   1.637  11.651 -0.4324 -0.2001 -0.2670
 1428TIP3    H125699   0.661   1.685  11.610 -0.3000 -0.5113 -0.4055
 1428TIP3    H225700   0.563   1.573  11.585  0.0280 -0.9466  0.2447
 1429TIP3   OH225701   2.761   1.436   5.507 -0.2282  0.1931 -0.3902
 1429TIP3    H125702   2.801   1.486   5.579  0.4964  0.9927 -1.3319
 1429TIP3    H225703   2.800   1.348   5.515 -0.2592  0.2319  0.2729
 1430TIP3   OH225704   5.489   3.045  10.737  0.5777 -0.0723  0.4773
 1430TIP3    H125705   5.402   3.083  10.723  0.6078  0.5585  1.8112
 1430TIP3    H225706   5.547   3.121  10.744  0.9342 -0.4160  1.3927
 1431TIP3   OH225707   1.193   6.423   2.907  0.1456 -0.2893  0.0775
 1431TIP3    H125708   1.245   6.346   2.930 -1.3254 -1.4481 -0.3447
 1431TIP3    H225709   1.253   6.477   2.856  1.3312 -0.9566  0.7067
 1432TIP3   OH225710   5.582   1.524   2.023 -0.0740 -0.1009  0.6117
 1432TIP3    H125711   5.539   1.448   1.983  1.8431 -0.2186 -1.3776
 1432TIP3    H225712   5.670   1.492   2.044  0.8262  1.5910 -0.4279
 1433TIP3   OH225713   3.009   1.852  11.841  0.3037 -0.1925 -0.0445
 1433TIP3    H125714   2.983   1.929  11.790 -1.0479  0.7758  1.9556
 1433TIP3    H225715   2.980   1.778  11.789 -0.4560  0.7312 -0.9940
 1434TIP3   OH225716   4.455   3.237  13.972  0.4671 -0.4387  0.0594
 1434TIP3    H125717   4.456   3.332  13.984  1.0159 -0.4457  0.1232
 1434TIP3    H225718   4.471   3.224  13.879 -2.4653 -0.4170 -0.5228
 1435TIP3   OH225719   5.117   6.346  13.500  0.3210 -0.1663 -0.4572
 1435TIP3    H125720   5.160   6.362  13.584  2.2753 -1.4348 -1.1475
 1435TIP3    H225721   5.059   6.422  13.488  0.6233  0.4582  1.6179
 1436TIP3   OH225722   1.297   0.859   0.176 -0.5900  0.2879 -0.2864
 1436TIP3    H125723   1.388   0.869   0.146 -0.6603  2.2399  0.0148
 1436TIP3    H225724   1.257   0.944   0.158 -2.3801 -0.5418 -0.4098
 1437TIP3   OH225725   0.905   1.698   3.817  0.0231  0.2205  0.5819
 1437TIP3    H125726   0.828   1.746   3.848  1.8114  2.9238  1.1778
 1437TIP3    H225727   0.890   1.687   3.723 -0.8101  1.2911  0.5685
 1438TIP3   OH225728   0.475   1.029  13.750 -0.1707 -0.1368 -0.1289
 1438TIP3    H125729   0.422   0.990  13.819  1.2642 -0.6774  0.7068
 1438TIP3    H225730   0.516   0.955  13.706  0.3028  0.2807 -0.4054
 1439TIP3   OH225731   4.766   1.453  14.995 -0.3793  0.2643 -0.0520
 1439TIP3    H125732   4.685   1.457  15.047 -1.6316 -3.7917 -1.3211
 1439TIP3    H225733   4.767   1.364  14.959  4.5101  0.2244 -0.4642
 1440TIP3   OH225734   5.418   5.891   2.437 -0.3927  0.4109 -0.1920
 1440TIP3    H125735   5.418   5.847   2.352 -2.1001  0.6552 -0.3621
 1440TIP3    H225736   5.372   5.973   2.421  0.7168  1.2188  0.6353
 1441TIP3   OH225737   0.763   2.750   1.483  0.0971  0.3207  0.0973
 1441TIP3    H125738   0.791   2.728   1.572 -1.4167  1.1413  0.8133
 1441TIP3    H225739   0.844   2.747   1.431  0.8721 -1.0089  1.3024
 1442TIP3   OH225740   2.568   5.007   3.842  0.6777 -0.2170  0.2679
 1442TIP3    H125741   2.628   5.005   3.917 -0.1697 -0.0080  0.9623
 1442TIP3    H225742   2.522   4.923   3.845  0.8540 -0.3376 -0.2064
 1443TIP3   OH225743   5.612   4.882   0.447 -0.2263  0.1192 -0.4740
 1443TIP3    H125744   5.568   4.961   0.418  0.9825  1.0640  0.1652
 1443TIP3    H225745   5.642   4.902   0.535 -1.8581 -1.8791  0.6300
 1444TIP3   OH225746   2.127   2.938   3.186  0.0573 -0.3556  0.1451
 1444TIP3    H125747   2.171   2.887   3.255 -0.4351  2.0179  2.3877
 1444TIP3    H225748   2.194   2.999   3.156  1.1838 -3.1263 -3.7488
 1445TIP3   OH225749   4.659   4.416   2.940 -0.1806 -0.3466  0.0844
 1445TIP3    H125750   4.703   4.356   2.879  0.9271  0.9897 -0.4873
 1445TIP3    H225751   4.626   4.486   2.885 -0.0806  0.3552  0.9033
 1446TIP3   OH225752   4.170   1.989  16.613 -0.0460  0.6824 -0.1568
 1446TIP3    H125753   4.149   1.904  16.652  4.5377 -0.3562  0.5778
 1446TIP3    H225754   4.124   2.052  16.669  1.1026 -1.0858  3.0700
 1447TIP3   OH225755   3.627   0.824   3.379 -0.7786  0.3294 -0.1793
 1447TIP3    H125756   3.563   0.893   3.362 -0.9365  1.4744  3.9115
 1447TIP3    H225757   3.588   0.773   3.450  1.6847 -0.6349  0.5571
 1448TIP3   OH225758   2.501   6.174  14.839  0.8656 -0.3647 -0.0305
 1448TIP3    H125759   2.594   6.193  14.844  1.1391 -0.3862 -3.1600
 1448TIP3    H225760   2.484   6.159  14.746 -2.1038 -1.2392  0.5325
 1449TIP3   OH225761   3.713   5.077  16.000  0.6962 -0.8190 -0.4521
 1449TIP3    H125762   3.772   5.004  16.022  0.5300 -0.5476  1.0074
 1449TIP3    H225763   3.687   5.060  15.909  1.4110 -2.0537 -0.4556
 1450TIP3   OH225764   3.840   2.204  17.255 -0.2227  0.3883 -0.0473
 1450TIP3    H125765   3.774   2.263  17.219  0.5944  1.4708  0.1722
 1450TIP3    H225766   3.791   2.145  17.312 -0.8416  2.0730  1.2347
 1451TIP3   OH225767   6.704   3.266  12.230 -0.2279 -0.1798 -0.4243
 1451TIP3    H125768   6.792   3.235  12.207 -0.3571 -1.1504  0.2760
 1451TIP3    H225769   6.645   3.200  12.194 -0.4405 -1.7139  2.3975
 1452TIP3   OH225770   5.754   6.139   2.065  0.1560 -0.2445 -0.0686
 1452TIP3    H125771   5.766   6.152   2.159 -0.2934 -0.7625  0.0685
 1452TIP3    H225772   5.832   6.178   2.025 -0.1165  0.8367  0.4450
 1453TIP3   OH225773   2.419   5.958  12.325 -0.4744 -0.9054 -0.7843
 1453TIP3    H125774   2.408   5.863  12.332  0.1412 -1.0126 -1.2228
 1453TIP3    H225775   2.331   5.993  12.339 -0.1075 -1.2337  3.8567
 1454TIP3   OH225776   1.388   1.395   3.810  0.0658  0.6367 -0.5616
 1454TIP3    H125777   1.437   1.431   3.884 -1.3104  1.2797  0.0838
 1454TIP3    H225778   1.418   1.305   3.802  0.7823  0.7897  0.3071
 1455TIP3   OH225779   0.862   0.983   4.338  0.2288 -0.3088 -0.3524
 1455TIP3    H125780   0.936   1.040   4.318 -0.1842  0.3290 -0.0887
 1455TIP3    H225781   0.808   1.034   4.398 -0.1176 -1.0030 -0.0651
 1456TIP3   OH225782   6.474   6.564   1.837 -0.4381 -0.2832  0.4135
 1456TIP3    H125783   6.413   6.507   1.884 -0.0736  1.6118  3.4649
 1456TIP3    H225784   6.538   6.504   1.798 -0.7983 -2.0542  2.3688
 1457TIP3   OH225785   5.804   6.525  14.521  0.9214 -0.3041  0.3332
 1457TIP3    H125786   5.753   6.561  14.593  1.2550  0.9887 -0.0564
 1457TIP3    H225787   5.882   6.487  14.563 -0.3125 -2.3355  0.9345
 1458TIP3   OH225788   2.722   2.292   1.873 -0.2887 -0.8538  0.4534
 1458TIP3    H125789   2.731   2.301   1.778 -0.7884  0.5477  0.5193
 1458TIP3    H225790   2.643   2.241   1.885 -0.8323 -0.1160  0.1122
 1459TIP3   OH225791   0.927   3.310   0.793 -0.0362 -0.4644  0.1375
 1459TIP3    H125792   0.875   3.245   0.841  0.0129  0.3734  1.3688
 1459TIP3    H225793   0.906   3.393   0.835  2.7617 -0.1663  1.1102
 1460TIP3   OH225794   4.869   6.732   4.902 -0.3163  0.4644 -0.3346
 1460TIP3    H125795   4.896   6.696   4.987  3.1389  2.7620 -0.2355
 1460TIP3    H225796   4.831   6.817   4.924 -2.8571 -0.4241 -0.9593
 1461TIP3   OH225797   1.028   2.944  11.793 -0.1785 -0.0773 -0.8651
 1461TIP3    H125798   1.089   2.877  11.763 -1.6639 -3.5500  2.9416
 1461TIP3    H225799   0.943   2.915  11.761 -0.5151  1.9019 -1.8850
 1462TIP3   OH225800   3.666   2.728  16.161  0.2062 -0.0227 -0.4211
 1462TIP3    H125801   3.605   2.716  16.233  1.7863  1.6914  1.3464
 1462TIP3    H225802   3.636   2.807  16.116  0.2896  0.0063 -0.4280
 1463TIP3   OH225803   0.010   2.586  17.312 -0.3903 -0.5212 -0.0330
 1463TIP3    H125804   0.100   2.553  17.311 -0.5932 -1.0893  0.2297
 1463TIP3    H225805  -0.045   2.507  17.310 -0.8858 -0.1797 -0.2763
 1464TIP3   OH225806   3.904   2.652  13.494  0.0498 -0.3296  0.4372
 1464TIP3    H125807   3.898   2.658  13.590  0.6600 -0.9730  0.5235
 1464TIP3    H225808   3.862   2.732  13.463  0.0780  0.0189  1.2551
 1465TIP3   OH225809   2.791   1.861   0.958  0.5642  0.0153  0.3738
 1465TIP3    H125810   2.819   1.821   1.040  1.6358  0.7602  0.3954
 1465TIP3    H225811   2.734   1.933   0.985  1.1071  0.4096  0.4896
 1466TIP3   OH225812   1.556   5.891  11.277 -0.3551  0.1621  0.1636
 1466TIP3    H125813   1.566   5.797  11.261  0.8155 -0.4776  3.7633
 1466TIP3    H225814   1.465   5.900  11.308 -0.5542  0.2780 -0.4471
 1467TIP3   OH225815   3.312   0.201  14.253  0.2388  0.5004  0.0622
 1467TIP3    H125816   3.380   0.264  14.275  0.1411  0.4254  0.5995
 1467TIP3    H225817   3.308   0.144  14.330 -0.0925  0.2113 -0.1715
 1468TIP3   OH225818   5.814   5.691  11.634 -0.3745  0.6072 -0.0978
 1468TIP3    H125819   5.805   5.622  11.700 -1.0513  2.4210  1.8101
 1468TIP3    H225820   5.792   5.648  11.551  0.8690 -1.8551  0.7484
 1469TIP3   OH225821   5.378   1.684   2.043  0.9179 -0.1059 -0.0514
 1469TIP3    H125822   5.450   1.623   2.056  1.7235  0.9725  0.7011
 1469TIP3    H225823   5.326   1.677   2.124  0.6235 -0.2895 -0.2539
 1470TIP3   OH225824   5.289   5.674   4.606 -0.1600  0.2414 -0.0316
 1470TIP3    H125825   5.309   5.618   4.681  0.5881  1.0449  0.3887
 1470TIP3    H225826   5.232   5.742   4.641 -0.0745  0.4348 -0.2690
 1471TIP3   OH225827   2.444   4.511  16.760 -0.0316 -0.3014  0.3709
 1471TIP3    H125828   2.437   4.463  16.842 -0.3706 -0.9467 -0.0260
 1471TIP3    H225829   2.382   4.584  16.770  0.6619  0.2067  1.0679
 1472TIP3   OH225830   1.616   6.747   5.376  0.1586  0.1875 -0.0244
 1472TIP3    H125831   1.577   6.825   5.413 -1.5034 -0.5790 -0.0913
 1472TIP3    H225832   1.580   6.741   5.287 -0.3412 -1.0404  0.2413
 1473TIP3   OH225833   2.810   2.585  14.894  0.0807 -0.3478 -0.1892
 1473TIP3    H125834   2.767   2.515  14.844  0.5197 -0.5151 -0.3441
 1473TIP3    H225835   2.773   2.578  14.982 -0.6816 -0.0693 -0.4816
 1474TIP3   OH225836   0.435   1.011   2.225 -0.1446 -0.4700  0.3616
 1474TIP3    H125837   0.513   1.035   2.177 -0.0435 -0.3337  0.5906
 1474TIP3    H225838   0.428   0.916   2.215  0.0189 -0.4747  0.2984
 1475TIP3   OH225839   1.119   2.628   2.498 -0.6317 -0.0613 -0.1406
 1475TIP3    H125840   1.154   2.553   2.546 -0.7354 -1.1903 -1.7441
 1475TIP3    H225841   1.195   2.685   2.484 -0.8108  0.9353  2.3371
 1476TIP3   OH225842   5.176   1.396   4.638  0.4703  0.1174 -0.5461
 1476TIP3    H125843   5.125   1.402   4.557  0.1397 -0.9661 -0.4338
 1476TIP3    H225844   5.256   1.445   4.620 -0.3296  1.3142 -0.9427
 1477TIP3   OH225845   4.084   3.846  13.200  0.4161  0.0516 -0.2808
 1477TIP3    H125846   4.077   3.907  13.274 -1.7128 -2.0380  1.3800
 1477TIP3    H225847   4.156   3.788  13.224 -0.4637 -0.8097  0.3783
 1478TIP3   OH225848   2.414   0.536   2.623 -0.1899 -0.1555 -0.1365
 1478TIP3    H125849   2.412   0.574   2.711 -0.2451 -1.0094  0.2402
 1478TIP3    H225850   2.323   0.541   2.594 -0.0448  0.8042 -0.4491
 1479TIP3   OH225851   5.797   4.918  11.085 -0.3444 -0.8455 -0.1119
 1479TIP3    H125852   5.850   4.925  11.006 -0.6562 -0.7577 -0.3195
 1479TIP3    H225853   5.707   4.925  11.053 -0.5212  4.5582  0.6423
 1480TIP3   OH225854   0.687   2.254  16.820  0.3896 -0.0501 -0.3318
 1480TIP3    H125855   0.626   2.282  16.752 -0.3243 -2.0915 -0.6017
 1480TIP3    H225856   0.764   2.223  16.771  0.7331  0.4028 -0.0906
 1481TIP3   OH225857   1.620   2.431   0.979  0.2752  0.2691 -0.4354
 1481TIP3    H125858   1.618   2.411   0.886  1.5550 -2.2597  0.0087
 1481TIP3    H225859   1.576   2.516   0.986 -0.5363  0.1707 -3.2165
 1482TIP3   OH225860   5.469   3.912  10.884 -0.3747  0.3988 -0.2383
 1482TIP3    H125861   5.413   3.932  10.960 -0.8073 -1.2155 -0.0878
 1482TIP3    H225862   5.468   3.992  10.832 -1.9020  0.8121  0.3486
 1483TIP3   OH225863   0.942   1.619  13.231 -0.5035  0.9706  0.0705
 1483TIP3    H125864   0.898   1.590  13.151 -0.0463 -0.3079  0.2602
 1483TIP3    H225865   1.033   1.595  13.218 -0.4138  0.8009  0.9372
 1484TIP3   OH225866   3.010   5.259   5.095 -0.3637 -0.2510 -0.5344
 1484TIP3    H125867   3.068   5.241   5.021  2.1338  1.2539  0.9086
 1484TIP3    H225868   3.037   5.194   5.161 -0.6632  0.1479 -0.0199
 1485TIP3   OH225869   6.282   0.673   0.615  0.3546  0.1071  0.1090
 1485TIP3    H125870   6.235   0.722   0.547 -1.5012 -0.1811  1.1008
 1485TIP3    H225871   6.212   0.636   0.669  1.7766  0.1764  2.0611
 1486TIP3   OH225872   0.907   2.643   0.894 -0.0707 -0.3630  0.7144
 1486TIP3    H125873   0.996   2.674   0.913  0.0259 -1.2024  1.7026
 1486TIP3    H225874   0.909   2.622   0.800  0.5094  0.4529  0.5278
 1487TIP3   OH225875   0.388   3.038   5.545  0.2378 -1.0162  0.9223
 1487TIP3    H125876   0.306   3.062   5.503 -0.1167 -2.4673  0.7271
 1487TIP3    H225877   0.377   3.066   5.636 -1.0845 -2.4910  1.2512
 1488TIP3   OH225878   0.933   5.371   4.008  0.1487 -0.2972  0.1867
 1488TIP3    H125879   0.994   5.426   3.959 -0.1040 -0.8905 -0.8432
 1488TIP3    H225880   0.847   5.391   3.970  0.1341 -1.8846 -0.7351
 1489TIP3   OH225881   5.414   4.086  13.797  0.1467  0.7107  0.1756
 1489TIP3    H125882   5.471   4.136  13.739  0.0359 -1.1479 -1.6624
 1489TIP3    H225883   5.328   4.088  13.755 -0.2618  0.4510  0.9816
 1490TIP3   OH225884   3.908   5.490  16.249  0.2950 -0.2788 -0.4286
 1490TIP3    H125885   3.942   5.568  16.205  0.0853 -0.2457 -0.5293
 1490TIP3    H225886   3.832   5.464  16.198 -1.9053  1.5800  1.6494
 1491TIP3   OH225887   0.395   3.137  15.904  0.3335  0.0830  0.3404
 1491TIP3    H125888   0.378   3.068  15.968 -0.5070  0.8127  0.9324
 1491TIP3    H225889   0.430   3.091  15.828 -1.3830 -1.1650  0.2393
 1492TIP3   OH225890   6.588   1.122   0.149 -1.0163 -0.1285 -0.0565
 1492TIP3    H125891   6.563   1.030   0.151 -1.3147 -0.0522 -0.2483
 1492TIP3    H225892   6.621   1.136   0.061 -1.8531  0.1758 -0.3321
 1493TIP3   OH225893   0.685   0.978  17.120  0.6642 -0.2795 -0.3106
 1493TIP3    H125894   0.752   1.032  17.162 -0.1156 -0.0034  0.6193
 1493TIP3    H225895   0.733   0.905  17.082  1.5159  0.0371  0.1352
 1494TIP3   OH225896   1.273   3.428  13.736  0.1557 -0.6115  0.7381
 1494TIP3    H125897   1.352   3.406  13.687 -1.2023 -0.0463 -1.9278
 1494TIP3    H225898   1.238   3.344  13.766 -0.8600 -1.5099 -2.5523
 1495TIP3   OH225899   6.420   2.425  15.309  0.9730  0.3362  0.7354
 1495TIP3    H125900   6.499   2.384  15.344  0.2331 -0.4607  1.5197
 1495TIP3    H225901   6.453   2.490  15.246  2.2048 -0.7289  0.2400
 1496TIP3   OH225902   0.888   5.757   5.060  0.4336 -0.5091 -0.8762
 1496TIP3    H125903   0.836   5.753   4.980 -2.4087  1.7021  0.7169
 1496TIP3    H225904   0.934   5.841   5.055 -0.6173  0.1508  0.2657
 1497TIP3   OH225905   1.616   4.373  12.726 -0.1333 -0.3571  0.2986
 1497TIP3    H125906   1.548   4.340  12.785 -0.0413 -1.3073 -0.1024
 1497TIP3    H225907   1.575   4.373  12.640  0.7583 -2.2570 -0.1747
 1498TIP3   OH225908   1.514   2.715   0.447 -0.5156 -0.6953 -0.2299
 1498TIP3    H125909   1.536   2.806   0.426 -3.2132  0.5832  1.9296
 1498TIP3    H225910   1.419   2.713   0.452 -0.6415 -4.0036 -1.3857
 1499TIP3   OH225911   2.894   0.252  14.049  0.1764 -0.6487  0.2547
 1499TIP3    H125912   2.980   0.289  14.027 -0.5364  1.3387  0.5827
 1499TIP3    H225913   2.894   0.166  14.008  2.3290 -0.7085  0.2653
 1500TIP3   OH225914   0.849   6.711   0.558 -0.4814 -0.0047 -0.0337
 1500TIP3    H125915   0.941   6.735   0.572 -0.0221 -0.1473 -2.3961
 1500TIP3    H225916   0.808   6.791   0.526 -0.4726 -0.6261 -1.6965
 1501TIP3   OH225917   6.346   4.602   5.459  0.1500 -0.5478  0.1547
 1501TIP3    H125918   6.273   4.569   5.511 -0.2556 -1.7389 -1.1172
 1501TIP3    H225919   6.306   4.644   5.383  0.7481  0.7423  0.5176
 1502TIP3   OH225920   5.510   2.990  13.228  0.0884  0.4516 -0.4105
 1502TIP3    H125921   5.458   2.926  13.179 -0.4151 -0.5199  1.3067
 1502TIP3    H225922   5.476   3.075  13.201 -1.8171 -0.1328 -0.0035
 1503TIP3   OH225923   0.143   0.341   1.215 -0.2139  0.0856 -0.1888
 1503TIP3    H125924   0.107   0.256   1.239  0.9365 -1.2013 -2.6317
 1503TIP3    H225925   0.070   0.389   1.176 -0.2121 -1.0653 -1.7009
 1504TIP3   OH225926   5.114   2.750   3.270 -0.3435 -0.2839 -0.6327
 1504TIP3    H125927   5.065   2.748   3.352 -1.0103  3.6530 -0.7183
 1504TIP3    H225928   5.197   2.791   3.292 -0.7410  1.3506 -1.8745
 1505TIP3   OH225929   3.340   5.461   0.220  0.1168  0.3908  0.0779
 1505TIP3    H125930   3.394   5.519   0.273  1.6142  1.0823 -2.0882
 1505TIP3    H225931   3.376   5.374   0.237  1.1074  0.6973 -0.3427
 1506TIP3   OH225932   6.139   0.831   5.180 -0.3092 -0.0040  0.0652
 1506TIP3    H125933   6.098   0.747   5.160  0.5207 -0.1288 -1.2782
 1506TIP3    H225934   6.152   0.872   5.094 -0.1935  1.2641  0.6596
 1507TIP3   OH225935   5.021   3.275   2.558 -0.1757 -0.1245 -0.3728
 1507TIP3    H125936   5.018   3.361   2.518 -1.7887  0.0894  0.1206
 1507TIP3    H225937   5.037   3.215   2.486  1.9037  0.6314 -0.5936
 1508TIP3   OH225938   1.653   0.702  10.919  0.0505 -0.2928 -0.4651
 1508TIP3    H125939   1.594   0.774  10.896 -0.4561 -1.2823 -2.5022
 1508TIP3    H225940   1.740   0.734  10.895 -0.1855 -0.3706 -1.4709
 1509TIP3   OH225941   2.493   5.936   1.481  0.3909 -0.5418  0.3393
 1509TIP3    H125942   2.516   6.018   1.525 -1.3510  0.0535  0.2216
 1509TIP3    H225943   2.523   5.867   1.541 -0.6384  0.2330  1.7970
 1510TIP3   OH225944   3.918   3.753   2.785  0.2113 -0.2509  0.5479
 1510TIP3    H125945   3.992   3.743   2.725 -0.4579  1.5034 -0.6764
 1510TIP3    H225946   3.841   3.735   2.731 -0.3410 -0.3635  1.3575
 1511TIP3   OH225947   4.253   0.833  11.368 -0.3208 -0.0655 -0.3804
 1511TIP3    H125948   4.250   0.744  11.402 -1.8200 -0.1098 -0.5698
 1511TIP3    H225949   4.237   0.889  11.445  0.8821  0.0777 -0.2120
 1512TIP3   OH225950   0.243   1.924   4.892 -0.7118  0.0069 -0.2757
 1512TIP3    H125951   0.245   1.879   4.808 -0.5370  1.2367 -0.9661
 1512TIP3    H225952   0.181   1.996   4.878 -1.6161 -0.4844  1.0438
 1513TIP3   OH225953   4.405   0.859   6.068  0.4251  0.1132  0.3239
 1513TIP3    H125954   4.470   0.832   6.133 -1.2491 -2.8461  0.9437
 1513TIP3    H225955   4.408   0.790   6.001 -1.6738  0.1277  0.1335
 1514TIP3   OH225956   3.069   3.655   4.968 -0.6577  0.0378  0.6748
 1514TIP3    H125957   3.063   3.740   5.012 -3.2081  0.5215 -0.4493
 1514TIP3    H225958   3.092   3.678   4.878 -0.5549 -0.5529  0.5519
 1515TIP3   OH225959   4.299   0.877  11.645 -0.1151  0.5449  0.3010
 1515TIP3    H125960   4.385   0.836  11.649 -0.0906  0.0929 -2.7688
 1515TIP3    H225961   4.237   0.804  11.644 -0.4593  0.8170  0.9587
 1516TIP3   OH225962   6.311   2.088  17.089  0.2555  0.2557 -0.2873
 1516TIP3    H125963   6.314   2.022  17.019  2.8491  1.7213 -1.7215
 1516TIP3    H225964   6.239   2.146  17.065  0.8140  0.4679 -1.5525
 1517TIP3   OH225965   4.422   3.908  15.419  0.1439  0.2939 -0.2447
 1517TIP3    H125966   4.457   3.843  15.479  1.5523  1.4510  0.2585
 1517TIP3    H225967   4.342   3.940  15.461  0.0791 -0.2688  0.0636
 1518TIP3   OH225968   1.597   2.840   3.338  0.1093  0.2739  0.1921
 1518TIP3    H125969   1.690   2.852   3.315 -0.5246  2.6220 -1.5978
 1518TIP3    H225970   1.585   2.746   3.343  2.6805 -0.0948  0.9431
 1519TIP3   OH225971   2.798   1.020  13.046 -0.9443 -0.0007  0.4816
 1519TIP3    H125972   2.845   0.940  13.021 -1.4086 -0.1553  0.0776
 1519TIP3    H225973   2.719   1.019  12.991  0.5547  2.3671 -2.0107
 1520TIP3   OH225974   2.218   1.430  14.079 -0.2115  0.1187  0.3409
 1520TIP3    H125975   2.275   1.394  14.011 -0.3912  1.2982 -0.4772
 1520TIP3    H225976   2.136   1.383  14.069 -0.2316  0.2688 -0.2700
 1521TIP3   OH225977   1.061   0.899   5.922  0.3243  0.4074 -0.3253
 1521TIP3    H125978   1.107   0.926   5.843  1.2072 -0.4213 -0.1089
 1521TIP3    H225979   1.120   0.920   5.994 -0.5604  1.3619  0.1570
 1522TIP3   OH225980   1.622   5.585  12.963 -0.1297  0.3168  0.3197
 1522TIP3    H125981   1.615   5.600  12.868  0.9003  0.5506  0.2694
 1522TIP3    H225982   1.539   5.617  12.998 -0.8110 -0.4029 -0.5766
 1523TIP3   OH225983   6.393   3.462  11.836  0.4652  0.4249  0.1908
 1523TIP3    H125984   6.397   3.444  11.930  0.0232 -1.2373 -0.0852
 1523TIP3    H225985   6.391   3.376  11.795 -0.9517  1.1227 -1.2861
 1524TIP3   OH225986   5.959   3.191  13.807 -0.1447  0.0204  0.3203
 1524TIP3    H125987   6.018   3.252  13.850  0.7914  0.6411 -1.7260
 1524TIP3    H225988   5.880   3.242  13.790  0.5838  0.6661 -1.2615
 1525TIP3   OH225989   5.923   1.826   0.473  0.4686 -0.1403 -0.3287
 1525TIP3    H125990   5.904   1.856   0.385 -0.6953 -1.3224 -0.5234
 1525TIP3    H225991   6.018   1.827   0.479  0.5394  2.7037 -0.5625
 1526TIP3   OH225992   0.534   0.053   6.138  0.1290 -0.0155 -0.0217
 1526TIP3    H125993   0.517  -0.006   6.211 -2.1279 -0.9470 -1.1993
 1526TIP3    H225994   0.629   0.048   6.124  0.0897 -3.1495  0.1324
 1527TIP3   OH225995   4.900   3.090   4.461  0.2002 -0.0198 -0.0416
 1527TIP3    H125996   4.827   3.095   4.522  0.8809  1.3018  0.7068
 1527TIP3    H225997   4.879   3.154   4.393  0.1911 -0.3542 -0.3568
 1528TIP3   OH225998   4.736   3.675   6.179  0.2318 -0.0074  0.1800
 1528TIP3    H125999   4.713   3.604   6.239 -0.4625 -0.2257 -0.3389
 1528TIP3    H226000   4.740   3.753   6.234  2.1375 -0.5995  0.9797
 1529TIP3   OH226001   2.269   3.665   3.426  0.4417  0.4091 -0.7091
 1529TIP3    H126002   2.243   3.614   3.503 -0.0917  2.3958  0.5137
 1529TIP3    H226003   2.348   3.622   3.394  0.3439 -0.8212  0.5829
 1530TIP3   OH226004   1.323   3.298  11.668 -0.3768  0.1661 -1.4570
 1530TIP3    H126005   1.385   3.355  11.713  0.0472 -0.4402 -1.2643
 1530TIP3    H226006   1.335   3.317  11.575 -1.1171  1.2830 -1.3499
 1531TIP3   OH226007   5.286   5.364  14.746  0.1095 -0.2648 -0.3759
 1531TIP3    H126008   5.225   5.417  14.694  0.9807  1.0864 -0.0858
 1531TIP3    H226009   5.243   5.279  14.755 -0.9808  0.1293 -1.5531
 1532TIP3   OH226010   3.878   5.689   5.875  0.1497  0.1163 -0.2897
 1532TIP3    H126011   3.869   5.723   5.786 -0.7115  1.4825  0.2905
 1532TIP3    H226012   3.795   5.709   5.917 -0.3416 -2.5519  0.1936
 1533TIP3   OH226013   3.573   5.895  11.715  0.7627  0.7185  0.5344
 1533TIP3    H126014   3.649   5.887  11.773  1.4373  0.0273 -0.4147
 1533TIP3    H226015   3.609   5.886  11.627 -0.5060 -0.4385  0.0960
 1534TIP3   OH226016   0.073   5.678   4.706 -0.1019 -0.2071  0.1149
 1534TIP3    H126017   0.131   5.754   4.709  0.5958 -0.7598  1.9563
 1534TIP3    H226018   0.124   5.608   4.747 -1.9913 -0.7560  1.6187
 1535TIP3   OH226019   3.353   0.742   0.134  0.1005 -0.1058 -0.2543
 1535TIP3    H126020   3.334   0.651   0.158  0.9495  0.0891  1.2687
 1535TIP3    H226021   3.433   0.737   0.082  0.0877 -0.2273 -0.2632
 1536TIP3   OH226022   1.009   4.786  13.228  0.3158  0.5724  0.0253
 1536TIP3    H126023   1.068   4.807  13.300  0.9056 -0.7516 -0.0390
 1536TIP3    H226024   1.059   4.726  13.172 -1.2547 -1.0611  0.2721
 1537TIP3   OH226025   4.583   6.176   5.688  0.3418 -0.2824 -0.1930
 1537TIP3    H126026   4.582   6.150   5.780 -0.0597  3.6400  1.1162
 1537TIP3    H226027   4.508   6.131   5.650 -0.5223 -0.6990  1.8429
 1538TIP3   OH226028   6.617   5.302   4.444  0.4751 -0.3800 -0.1701
 1538TIP3    H126029   6.610   5.380   4.499  0.0775 -1.1217  0.8750
 1538TIP3    H226030   6.554   5.240   4.482 -0.3039 -0.7011 -1.8755
 1539TIP3   OH226031   6.233   3.360  13.683 -0.1125 -0.2298  0.1039
 1539TIP3    H126032   6.226   3.265  13.673  0.9830 -0.6933  2.7399
 1539TIP3    H226033   6.183   3.379  13.762 -0.6023  1.4800 -0.5733
 1540TIP3   OH226034   4.155   4.537   4.936 -0.5286 -0.9070  0.2254
 1540TIP3    H126035   4.164   4.558   5.029 -0.9249 -0.8095  0.2444
 1540TIP3    H226036   4.242   4.552   4.899 -0.8191  0.9901  0.1909
 1541TIP3   OH226037   2.898   2.029  15.219  0.6505  0.1155 -0.7168
 1541TIP3    H126038   2.904   2.013  15.313  2.7876 -0.4605 -0.9043
 1541TIP3    H226039   2.812   2.070  15.207  0.1804 -0.1379  1.4177
 1542TIP3   OH226040   5.162   0.013  15.538  0.6325 -0.0109 -0.3382
 1542TIP3    H126041   5.091  -0.000  15.476 -0.9995  1.7221  1.0558
 1542TIP3    H226042   5.218   0.079  15.498  0.6347 -0.2616 -0.7557
 1543TIP3   OH226043   2.434   0.432  15.975  0.1984  0.5525  0.0189
 1543TIP3    H126044   2.405   0.463  16.061  2.5377  1.1062  0.6820
 1543TIP3    H226045   2.461   0.512  15.929  2.4557 -0.0457  0.2048
 1544TIP3   OH226046   3.300   2.691  14.882 -0.0583  0.5063 -0.0806
 1544TIP3    H126047   3.253   2.771  14.859 -0.5422  0.6054  1.1881
 1544TIP3    H226048   3.232   2.631  14.912  0.5235  0.3902  1.0506
 1545TIP3   OH226049   4.241   0.330  17.275 -0.1177  0.3885  0.7368
 1545TIP3    H126050   4.295   0.376  17.339  0.6559  1.6671 -0.7424
 1545TIP3    H226051   4.161   0.382  17.268 -0.4250 -0.0384  1.0362
 1546TIP3   OH226052   3.077   0.507  12.461  0.7904  0.4689  0.2126
 1546TIP3    H126053   2.989   0.471  12.452  1.0643  0.0655 -1.1486
 1546TIP3    H226054   3.130   0.457  12.399  2.2455 -0.1030  1.8480
 1547TIP3   OH226055   2.347   5.379   3.524  0.3432  0.3440  0.4729
 1547TIP3    H126056   2.355   5.466   3.484 -1.0904  0.8031  1.0996
 1547TIP3    H226057   2.410   5.380   3.595  1.3755  0.3149 -0.4105
 1548TIP3   OH226058   4.820   1.207   0.236  0.1371 -0.1619 -0.3238
 1548TIP3    H126059   4.783   1.241   0.155  0.0707 -0.0740 -0.2580
 1548TIP3    H226060   4.743   1.191   0.292  0.1634 -0.4917 -0.3831
 1549TIP3   OH226061   6.318   0.007   1.336 -0.4274  0.0740 -0.2648
 1549TIP3    H126062   6.387  -0.011   1.399 -0.1982  2.0280  0.1260
 1549TIP3    H226063   6.334   0.098   1.309 -2.2247  0.2231 -0.9527
 1550TIP3   OH226064   2.714   5.675   3.385  0.5498 -0.1124  0.3355
 1550TIP3    H126065   2.755   5.627   3.457  2.3508  1.3812  0.3896
 1550TIP3    H226066   2.762   5.646   3.307  0.6488  0.5018  0.1656
 1551TIP3   OH226067   3.796   5.675   1.182  0.4111 -0.0870 -0.5800
 1551TIP3    H126068   3.865   5.715   1.130  1.1863  0.0224  0.5013
 1551TIP3    H226069   3.766   5.600   1.131  0.0983  0.8862 -1.8663
 1552TIP3   OH226070   1.087   4.816   2.648  0.2066 -0.6124  0.1846
 1552TIP3    H126071   1.084   4.847   2.739 -0.0110 -0.7477  0.2228
 1552TIP3    H226072   0.997   4.792   2.627  0.0426  0.4649 -0.4350
 1553TIP3   OH226073   4.754   2.403   1.237  0.2810  0.6069  0.2133
 1553TIP3    H126074   4.797   2.372   1.317  0.3845  2.4747  0.9455
 1553TIP3    H226075   4.710   2.483   1.263 -1.0864  0.3864 -1.2557
 1554TIP3   OH226076   6.615   2.904   0.695  0.0871  0.3979  0.1808
 1554TIP3    H126077   6.663   2.987   0.693  0.2666  0.3119  0.7674
 1554TIP3    H226078   6.684   2.837   0.702 -0.1263  0.3195  1.9594
 1555TIP3   OH226079   3.027   0.848  10.980  0.0152  0.1323 -0.3523
 1555TIP3    H126080   3.011   0.854  11.074 -3.5528  1.9571 -0.8823
 1555TIP3    H226081   2.964   0.782  10.949 -0.1356  0.8468 -1.6304
 1556TIP3   OH226082   4.789   6.626  12.179 -0.6778 -0.2798 -0.0224
 1556TIP3    H126083   4.782   6.641  12.085 -0.3412 -1.4840 -0.2595
 1556TIP3    H226084   4.699   6.607  12.207 -0.8786  0.7192  0.0248
 1557TIP3   OH226085   0.651   0.495   3.919  0.6239 -0.4081  0.2704
 1557TIP3    H126086   0.570   0.482   3.970  1.1825 -1.2004  0.9896
 1557TIP3    H226087   0.620   0.523   3.833 -0.3565  0.7733  0.9719
 1558TIP3   OH226088   2.998   5.951  11.395 -0.0724  0.2774 -0.3565
 1558TIP3    H126089   3.065   6.012  11.427 -1.2710  0.1427  2.7864
 1558TIP3    H226090   3.024   5.867  11.432 -1.3730  0.0107 -0.0102
 1559TIP3   OH226091   2.954   1.745   1.647  0.4561 -0.2906 -0.2905
 1559TIP3    H126092   3.017   1.675   1.631  2.2122  1.1966 -0.2684
 1559TIP3    H226093   2.999   1.804   1.708 -0.1604  1.8111 -1.7387
 1560TIP3   OH226094   0.112   6.600   1.089  0.2454  0.0094 -0.0785
 1560TIP3    H126095   0.021   6.621   1.110 -0.2505 -2.3522  0.4590
 1560TIP3    H226096   0.146   6.560   1.169  1.0637 -1.1458 -0.9707
 1561TIP3   OH226097   4.152   2.433   6.197  0.1188 -0.3339 -0.5141
 1561TIP3    H126098   4.119   2.467   6.114  0.4492  0.0413 -0.4987
 1561TIP3    H226099   4.139   2.339   6.192 -1.0631 -0.1912 -0.4542
 1562TIP3   OH226100   3.963   3.794   0.277 -0.0869  0.3029 -0.2509
 1562TIP3    H126101   3.988   3.887   0.268 -0.7547  0.4437 -0.6977
 1562TIP3    H226102   3.873   3.797   0.309 -0.2918 -0.1887 -0.7738
 1563TIP3   OH226103   1.592   2.088   4.593  0.1611  0.0924  0.0799
 1563TIP3    H126104   1.662   2.149   4.570  0.7301 -0.4962  0.2290
 1563TIP3    H226105   1.550   2.127   4.669 -0.7357  1.2672 -0.9615
 1564TIP3   OH226106   6.633   5.780  13.686  0.1304  0.1496  0.1112
 1564TIP3    H126107   6.698   5.840  13.722  1.6329 -0.8600 -0.8274
 1564TIP3    H226108   6.654   5.775  13.592  1.7075 -3.7100  0.4982
 1565TIP3   OH226109   3.011   0.697   4.628 -0.0236 -0.4844  0.1274
 1565TIP3    H126110   3.073   0.689   4.701 -0.2531  1.0037  0.5107
 1565TIP3    H226111   3.041   0.773   4.579  0.5755 -1.9003 -1.8244
 1566TIP3   OH226112   2.471   5.266  12.629 -0.5781  0.2136  0.4922
 1566TIP3    H126113   2.458   5.285  12.722 -1.5315 -0.8005  0.5833
 1566TIP3    H226114   2.383   5.246  12.596  0.2171 -3.7485  0.3834
 1567TIP3   OH226115   5.289   2.421  12.140 -0.7678 -0.2177  0.0712
 1567TIP3    H126116   5.330   2.341  12.108  0.3721  0.3625 -0.0005
 1567TIP3    H226117   5.195   2.403  12.138 -0.5705 -1.2695 -0.6813
 1568TIP3   OH226118   2.882   3.741   1.057  0.4637  0.6736  0.0388
 1568TIP3    H126119   2.849   3.818   1.011  0.6001  0.1481 -0.9845
 1568TIP3    H226120   2.906   3.772   1.144  0.7535  1.8340 -0.4428
 1569TIP3   OH226121   3.615   3.197   2.586  0.8913 -0.1443 -0.0487
 1569TIP3    H126122   3.683   3.143   2.626 -1.1264 -0.8673  2.8059
 1569TIP3    H226123   3.622   3.281   2.631 -0.6079 -0.5523  1.0777
 1570TIP3   OH226124   3.360   3.885   1.730 -0.3856  0.1337 -0.1314
 1570TIP3    H126125   3.319   3.805   1.763  2.0981 -0.6102  1.3954
 1570TIP3    H226126   3.354   3.946   1.803  0.5859  0.2244 -0.1183
 1571TIP3   OH226127   6.585   0.951   4.414 -0.0888 -0.5434 -0.7942
 1571TIP3    H126128   6.521   0.973   4.346 -0.6937 -1.4000 -0.5176
 1571TIP3    H226129   6.584   1.026   4.473 -0.8158 -0.5228 -0.8204
 1572TIP3   OH226130   6.132   3.112  17.167  0.5073  0.3745 -0.3382
 1572TIP3    H126131   6.070   3.180  17.190 -0.4034  0.2679 -2.2918
 1572TIP3    H226132   6.123   3.046  17.236 -0.4770  1.0431  0.1800
 1573TIP3   OH226133   0.321   2.252   5.321 -0.1629  0.2618 -0.3501
 1573TIP3    H126134   0.326   2.286   5.411 -0.4624  0.8205 -0.5372
 1573TIP3    H226135   0.354   2.324   5.267  1.6325 -0.6886 -0.5623
 1574TIP3   OH226136   0.603   4.817  11.286 -0.1859  0.7456  0.5241
 1574TIP3    H126137   0.635   4.907  11.281  1.3312  0.1934 -0.4616
 1574TIP3    H226138   0.571   4.798  11.197 -1.3130  0.5812  0.9513
 1575TIP3   OH226139   6.135   0.019   1.803 -0.2510 -0.2203  0.6079
 1575TIP3    H126140   6.117   0.062   1.887  0.2363 -0.0788  0.6421
 1575TIP3    H226141   6.212   0.064   1.769 -0.5403 -0.1689  0.0065
 1576TIP3   OH226142   5.749   1.202  14.658  0.0155 -0.1484  0.2879
 1576TIP3    H126143   5.656   1.205  14.679  0.3150  0.3266  1.6812
 1576TIP3    H226144   5.765   1.110  14.635 -0.7676 -0.2618  0.1637
 1577TIP3   OH226145   3.489   3.157  13.116 -0.1979 -0.0002 -0.1587
 1577TIP3    H126146   3.495   3.077  13.168  0.9738 -0.9369 -1.6512
 1577TIP3    H226147   3.562   3.151  13.055 -0.9417  1.5333 -1.2513
 1578TIP3   OH226148   4.768   6.191  17.161 -0.1976 -0.4059 -0.2701
 1578TIP3    H126149   4.830   6.122  17.139 -1.3004 -1.1833 -1.0662
 1578TIP3    H226150   4.739   6.171  17.250  2.1385  1.1178  0.9497
 1579TIP3   OH226151   3.801   5.016  14.580 -0.8022 -0.7773 -0.1800
 1579TIP3    H126152   3.875   5.052  14.531  1.3509 -2.9846  1.1853
 1579TIP3    H226153   3.778   5.085  14.642  1.7646 -0.8069  0.9280
 1580TIP3   OH226154   2.180   0.434  15.773  0.4272  0.3035  0.7743
 1580TIP3    H126155   2.182   0.340  15.757 -1.1053  0.4061 -0.2872
 1580TIP3    H226156   2.215   0.473  15.693  1.1578  0.6478  1.2518
 1581TIP3   OH226157   5.637   3.869   4.194 -0.5087 -0.5612  0.1853
 1581TIP3    H126158   5.569   3.911   4.246  0.9803  3.1213 -0.5314
 1581TIP3    H226159   5.708   3.853   4.256  0.4909  2.0031 -0.1424
 1582TIP3   OH226160   0.084   6.679  10.709 -0.3379 -0.6034 -0.2625
 1582TIP3    H126161   0.171   6.650  10.680  0.3712  1.1399 -0.0333
 1582TIP3    H226162   0.055   6.739  10.640 -0.4271  0.4452  0.6637
 1583TIP3   OH226163   5.113   1.994  15.091  0.1480  0.7203  0.0207
 1583TIP3    H126164   5.190   1.955  15.049 -0.3107  0.6253 -0.7484
 1583TIP3    H226165   5.146   2.027  15.174  1.0623  0.8200 -0.3644
 1584TIP3   OH226166   5.032   5.703  16.046  0.3841 -0.4121  0.2110
 1584TIP3    H126167   4.975   5.778  16.062 -1.2600 -0.9584 -2.4715
 1584TIP3    H226168   4.996   5.633  16.101 -0.6787 -0.3423 -0.3742
 1585TIP3   OH226169   4.054   4.502  16.492  0.1719 -0.0044  0.1459
 1585TIP3    H126170   4.116   4.458  16.434  1.8101 -0.9282  2.4696
 1585TIP3    H226171   3.974   4.511  16.439  1.8406  0.1555 -2.5657
 1586TIP3   OH226172   2.999   5.995   4.116 -0.1974 -0.1803  0.3798
 1586TIP3    H126173   2.993   5.986   4.021 -1.3882  3.7285 -0.1174
 1586TIP3    H226174   3.089   6.023   4.131  0.2594 -1.6759  0.5762
 1587TIP3   OH226175   4.181   2.085  12.643  0.0667  0.0434  0.3556
 1587TIP3    H126176   4.188   1.990  12.632 -0.5797  0.0771 -0.4620
 1587TIP3    H226177   4.122   2.096  12.717 -0.1368 -0.1896  0.2292
 1588TIP3   OH226178   5.809   5.086  15.248  0.0369  0.2083  0.1089
 1588TIP3    H126179   5.735   5.124  15.295 -1.3305 -0.9578 -0.9875
 1588TIP3    H226180   5.847   5.159  15.199 -2.0182  0.4113 -1.3174
 1589TIP3   OH226181   3.985   6.644  13.673  0.3455  0.4566  0.4192
 1589TIP3    H126182   3.976   6.712  13.740 -0.2285 -0.1851  1.0015
 1589TIP3    H226183   3.978   6.561  13.721 -3.2316 -0.0651 -0.7664
 1590TIP3   OH226184   5.966   1.289   5.178  0.4520 -0.0625  0.2489
 1590TIP3    H126185   6.037   1.280   5.242  0.7545 -0.0719 -0.0886
 1590TIP3    H226186   5.890   1.312   5.231  0.5770 -0.6154  0.6753
 1591TIP3   OH226187   5.341   6.353  11.996 -0.2803  0.5885 -0.4973
 1591TIP3    H126188   5.307   6.420  11.938 -1.4100 -0.1402 -0.7091
 1591TIP3    H226189   5.275   6.345  12.065 -0.2273 -0.3788 -0.5463
 1592TIP3   OH226190   1.886   5.252  13.974  0.0210  0.2864  0.1424
 1592TIP3    H126191   1.792   5.247  13.957 -0.7838  0.3775  3.7193
 1592TIP3    H226192   1.916   5.161  13.966 -0.6968  0.0201  0.3695
 1593TIP3   OH226193   3.475   5.503   4.584 -0.6001 -0.1278 -0.1207
 1593TIP3    H126194   3.405   5.566   4.566 -1.0293 -0.5978 -0.1037
 1593TIP3    H226195   3.543   5.555   4.627 -1.1092  0.2545  0.2404
 1594TIP3   OH226196   2.006   4.188   0.598  0.4066  0.2395 -0.5896
 1594TIP3    H126197   1.918   4.210   0.627  0.3154  1.5238 -1.7676
 1594TIP3    H226198   1.993   4.128   0.525  0.6214 -2.2715  1.3066
 1595TIP3   OH226199   2.976   2.503  13.925  0.1664 -0.0567  0.2987
 1595TIP3    H126200   2.928   2.571  13.974 -1.4198 -0.9149  0.0027
 1595TIP3    H226201   3.068   2.517  13.949 -0.3050  1.0943  1.5928
 1596TIP3   OH226202   0.393   2.774  15.011 -0.6432  0.0139  0.1216
 1596TIP3    H126203   0.404   2.681  14.993  0.8870  0.3410 -0.8519
 1596TIP3    H226204   0.483   2.809  15.012 -1.1264  1.3332  1.2961
 1597TIP3   OH226205   0.250   3.646   0.512 -0.3403  0.4217  0.1858
 1597TIP3    H126206   0.318   3.587   0.479 -0.1407  1.3299 -1.1315
 1597TIP3    H226207   0.231   3.615   0.601  0.8671 -0.6400  0.0948
 1598TIP3   OH226208   2.376   0.653  16.893  0.3324 -0.8837  0.1446
 1598TIP3    H126209   2.434   0.577  16.883 -0.8775 -1.9209  0.6742
 1598TIP3    H226210   2.288   0.618  16.877 -0.0843  0.9897 -2.4824
 1599TIP3   OH226211   5.869   3.043  14.723 -0.1405 -0.3189  0.0322
 1599TIP3    H126212   5.926   3.054  14.799  1.7022  1.5497 -1.5027
 1599TIP3    H226213   5.928   3.018  14.652 -1.6836 -1.1790 -1.0090
 1600TIP3   OH226214   0.139   2.211  13.159  0.1726  0.1938  0.2763
 1600TIP3    H126215   0.104   2.232  13.245  1.0561 -0.3929  0.8001
 1600TIP3    H226216   0.224   2.255  13.157 -0.0184  0.5404 -0.4624
 1601TIP3   OH226217   6.442   3.433  14.892 -0.0300 -0.6106 -0.2066
 1601TIP3    H126218   6.530   3.443  14.929  0.5143 -1.0230 -1.3443
 1601TIP3    H226219   6.413   3.522  14.876  0.8725 -0.4943 -1.3534
 1602TIP3   OH226220   5.977   1.895   1.471  0.5101  0.5353  0.5071
 1602TIP3    H126221   5.908   1.830   1.451  0.1126  1.2134 -0.4271
 1602TIP3    H226222   5.952   1.931   1.556 -1.1663  1.8372 -0.4730
 1603TIP3   OH226223   1.543   4.104  13.476  0.4489  0.1733  0.3772
 1603TIP3    H126224   1.520   4.038  13.540 -0.5985  0.9095  0.7875
 1603TIP3    H226225   1.639   4.108  13.479  0.4938 -0.8897  0.7606
 1604TIP3   OH226226   2.053   6.214   5.732  0.0894  0.1935 -0.0272
 1604TIP3    H126227   2.096   6.256   5.806  0.5948 -1.5803  0.7067
 1604TIP3    H226228   1.961   6.208   5.759 -0.1801  1.5592 -0.5091
 1605TIP3   OH226229   1.640   1.639  13.652  0.2624 -0.4637  0.2023
 1605TIP3    H126230   1.615   1.571  13.591  1.2060  0.2959 -1.0819
 1605TIP3    H226231   1.618   1.603  13.738 -1.7633 -1.2639 -0.5868
 1606TIP3   OH226232   3.551   4.276   6.322  0.1936  0.3536 -0.4376
 1606TIP3    H126233   3.642   4.295   6.301  0.4904 -1.4296 -0.9129
 1606TIP3    H226234   3.501   4.311   6.248  0.8611 -2.0751 -2.1410
 1607TIP3   OH226235   2.710   3.817   1.367  0.3271 -0.3219 -0.7697
 1607TIP3    H126236   2.677   3.834   1.455  0.0458  2.7055 -1.3501
 1607TIP3    H226237   2.642   3.763   1.326  0.3867 -1.6345  0.7682
 1608TIP3   OH226238   4.300   1.222   5.428  0.3702 -0.0436 -0.2725
 1608TIP3    H126239   4.361   1.157   5.464  0.4670 -0.8567 -1.8097
 1608TIP3    H226240   4.353   1.271   5.364 -0.3950 -0.3044 -1.1259
 1609TIP3   OH226241   4.289   2.706   4.647 -0.1400  0.6784  0.1545
 1609TIP3    H126242   4.212   2.650   4.641  0.4746 -0.1626 -0.0428
 1609TIP3    H226243   4.362   2.649   4.622  0.7727  0.9610  2.0040
 1610TIP3   OH226244   5.762   1.939  11.992 -0.4830 -0.1435 -0.0892
 1610TIP3    H126245   5.701   1.939  12.067  0.6210  0.3355  0.8334
 1610TIP3    H226246   5.751   1.852  11.953 -2.2345  0.1542 -0.3640
 1611TIP3   OH226247   1.086   0.416   4.562  0.1576 -0.7543 -0.0807
 1611TIP3    H126248   1.095   0.439   4.470 -0.8564 -1.0890 -0.2774
 1611TIP3    H226249   1.176   0.400   4.592  0.5388 -0.1019 -0.8606
 1612TIP3   OH226250   4.241   2.890  12.481  0.3629 -0.0903 -0.4446
 1612TIP3    H126251   4.212   2.869  12.570  3.4333  0.5455  0.8462
 1612TIP3    H226252   4.179   2.845  12.424 -1.8971 -0.3052  1.9800
 1613TIP3   OH226253   4.811   1.233   4.033  0.3926 -0.0693 -0.5262
 1613TIP3    H126254   4.871   1.291   4.080  1.9285 -0.7230 -1.5740
 1613TIP3    H226255   4.832   1.146   4.065 -1.4637 -0.1773  0.5728
 1614TIP3   OH226256   1.158   5.203   4.349  0.0913  0.2068 -0.5456
 1614TIP3    H126257   1.216   5.153   4.406  0.5868  1.4319  0.0685
 1614TIP3    H226258   1.207   5.284   4.331  0.0167 -0.1971 -2.8301
 1615TIP3   OH226259   1.241   4.382  17.229  0.3041  0.0090  0.5528
 1615TIP3    H126260   1.309   4.445  17.207 -1.1743  2.1974  1.9023
 1615TIP3    H226261   1.210   4.350  17.144  0.1313  2.2156 -0.2716
 1616TIP3   OH226262   3.466   5.417  10.774 -0.2810  0.1429 -0.0670
 1616TIP3    H126263   3.488   5.335  10.729  2.6247  1.8777 -2.1750
 1616TIP3    H226264   3.399   5.457  10.719 -1.4796 -0.5780  0.8021
 1617TIP3   OH226265   3.935   2.335  11.711  0.1416  0.3901  0.4390
 1617TIP3    H126266   3.890   2.344  11.794 -1.8195  0.8015 -0.6240
 1617TIP3    H226267   3.908   2.250  11.677 -1.2799  1.3447 -0.9840
 1618TIP3   OH226268   4.472   2.369  12.603 -0.8717  0.2654 -0.2988
 1618TIP3    H126269   4.387   2.357  12.561 -1.7771  2.1049  0.8565
 1618TIP3    H226270   4.489   2.463  12.596  0.6925  0.0498  0.2070
 1619TIP3   OH226271   1.734   3.453   3.109 -0.4005  0.2537  0.0447
 1619TIP3    H126272   1.690   3.425   3.028 -1.0690 -1.8105  1.0568
 1619TIP3    H226273   1.809   3.394   3.117 -0.0671  0.7535  0.7052
 1620TIP3   OH226274   2.500   1.280   2.455  0.5142  0.2968 -0.0250
 1620TIP3    H126275   2.447   1.201   2.447  0.8232 -0.1755  1.9018
 1620TIP3    H226276   2.585   1.255   2.419  0.4647 -0.0965  0.1219
 1621TIP3   OH226277   4.634   1.861  17.091 -0.0896  1.2368  0.5563
 1621TIP3    H126278   4.696   1.929  17.063  0.8408  0.5736  0.9810
 1621TIP3    H226279   4.634   1.797  17.019  2.3289 -0.4875  1.9749
 1622TIP3   OH226280   5.597   2.853   3.126  0.6180  0.7021 -0.4339
 1622TIP3    H126281   5.552   2.885   3.204 -1.7264 -2.4751 -0.3171
 1622TIP3    H226282   5.674   2.806   3.159  1.2912  1.8400 -0.3118
 1623TIP3   OH226283   0.204   0.032   6.166  0.3223  0.1762 -0.0282
 1623TIP3    H126284   0.123  -0.019   6.176  0.6782 -0.5361 -0.6547
 1623TIP3    H226285   0.254  -0.016   6.101  1.9154 -0.1983  1.4138
 1624TIP3   OH226286   1.699   2.777   2.225 -0.5585  0.3066 -0.2631
 1624TIP3    H126287   1.625   2.829   2.256  0.1845  1.1981  0.0440
 1624TIP3    H226288   1.772   2.804   2.280  0.0688 -0.3646 -0.7481
 1625TIP3   OH226289   0.350   1.908   1.051 -0.0861  0.2644 -0.0264
 1625TIP3    H126290   0.410   1.962   1.102  1.5454 -2.1073  0.7299
 1625TIP3    H226291   0.278   1.967   1.029  1.3470  2.5918  1.0891
 1626TIP3   OH226292   1.778   4.141  11.923 -0.6240  0.3216  0.1393
 1626TIP3    H126293   1.817   4.126  12.009 -1.1861 -1.5780  0.1078
 1626TIP3    H226294   1.842   4.107  11.861 -1.0887 -0.1522 -0.0795
 1627TIP3   OH226295   4.601   3.798  15.845 -0.3027 -0.5859 -0.5938
 1627TIP3    H126296   4.601   3.874  15.903 -2.1038  1.1752 -2.7184
 1627TIP3    H226297   4.646   3.730  15.895 -1.1992  0.9561  2.5789
 1628TIP3   OH226298   4.818   6.590  14.002 -0.1390  0.4908 -0.8007
 1628TIP3    H126299   4.845   6.525  14.067  1.2737  1.1877 -0.6438
 1628TIP3    H226300   4.841   6.674  14.042 -1.9314  1.1022 -0.9994
 1629TIP3   OH226301   1.118   3.281  14.498 -0.0658  0.2030 -0.2103
 1629TIP3    H126302   1.039   3.270  14.445  0.1653 -0.8420 -0.3517
 1629TIP3    H226303   1.110   3.369  14.534  0.2365  1.3443 -2.7527
 1630TIP3   OH226304   5.136   5.506   1.727 -0.1084 -0.2249 -0.6008
 1630TIP3    H126305   5.221   5.549   1.723  0.3698 -0.8440  1.7804
 1630TIP3    H226306   5.152   5.417   1.697 -0.0654 -0.1669 -0.7521
 1631TIP3   OH226307   5.330   1.336   2.854  0.1086 -0.3727 -0.1709
 1631TIP3    H126308   5.307   1.394   2.781  0.2473  0.6868  0.6026
 1631TIP3    H226309   5.249   1.329   2.904  0.5399  0.6280  0.7097
 1632TIP3   OH226310   1.144   3.657  14.982 -0.3143  0.4040 -0.8467
 1632TIP3    H126311   1.176   3.747  14.980  1.4499 -0.1806 -0.1183
 1632TIP3    H226312   1.048   3.666  14.981 -0.1694  2.2717 -0.8804
 1633TIP3   OH226313   4.826   5.641   0.214  0.2435  0.9737  0.4040
 1633TIP3    H126314   4.850   5.689   0.135 -0.4713  0.1900 -0.3298
 1633TIP3    H226315   4.898   5.580   0.228 -1.0638 -1.2331 -1.6697
 1634TIP3   OH226316   0.550   1.738  14.795 -0.0497  0.4580 -0.2733
 1634TIP3    H126317   0.581   1.703  14.711 -0.4982  1.8350 -1.0583
 1634TIP3    H226318   0.487   1.674  14.826 -0.4114  0.2675 -1.3571
 1635TIP3   OH226319   1.207   5.880   6.900 -0.1370 -0.3570  0.1504
 1635TIP3    H126320   1.301   5.898   6.910  0.0321 -1.7808  1.4980
 1635TIP3    H226321   1.165   5.935   6.966  0.0260 -1.7364  1.4540
 1636TIP3   OH226322   6.760   0.531   3.838  0.3842  0.5981  0.5806
 1636TIP3    H126323   6.814   0.519   3.760 -0.5374  1.1359 -0.1563
 1636TIP3    H226324   6.820   0.566   3.904  1.0613  0.6033 -0.0296
 1637TIP3   OH226325   4.706   2.271   2.658  0.3603  0.8543  0.2658
 1637TIP3    H126326   4.671   2.360   2.649 -1.4000  0.1096 -0.6952
 1637TIP3    H226327   4.694   2.231   2.571  0.1057 -0.6719  0.9702
 1638TIP3   OH226328   6.432   3.321  11.478 -0.8733 -0.0225  0.3275
 1638TIP3    H126329   6.527   3.306  11.471 -0.5215  2.0969 -0.3149
 1638TIP3    H226330   6.406   3.351  11.391 -1.2539  3.4185  1.4685
 1639TIP3   OH226331   4.075   5.777   5.098  0.3553 -0.6357 -0.2594
 1639TIP3    H126332   3.998   5.798   5.046 -1.1812  0.4458  2.2845
 1639TIP3    H226333   4.133   5.853   5.087  0.2011 -0.5753 -0.6647
 1640TIP3   OH226334   4.770   6.114  13.572 -0.0568 -0.6643 -0.3005
 1640TIP3    H126335   4.852   6.102  13.525  0.1491  0.0834 -0.1423
 1640TIP3    H226336   4.777   6.056  13.648 -0.2559 -1.6304 -1.0036
 1641TIP3   OH226337   2.002   0.129  11.498 -0.4709 -0.0401  0.3092
 1641TIP3    H126338   2.026   0.195  11.563  0.5935  0.5415 -0.6431
 1641TIP3    H226339   1.988   0.178  11.418 -1.2614 -0.8065 -0.0338
 1642TIP3   OH226340   3.691   4.642   3.251  0.6167  0.1855  0.1950
 1642TIP3    H126341   3.643   4.668   3.329  0.0801  1.4582 -0.5243
 1642TIP3    H226342   3.691   4.720   3.195  2.4317 -0.1563 -0.3726
 1643TIP3   OH226343   3.872   2.110  14.290 -0.0644 -0.6018 -0.0061
 1643TIP3    H126344   3.925   2.116  14.210 -1.0164 -1.0339 -0.6926
 1643TIP3    H226345   3.878   2.197  14.330  1.0965 -0.6249 -0.1051
 1644TIP3   OH226346   2.548   4.567   3.517 -0.4579 -0.0953 -0.1552
 1644TIP3    H126347   2.546   4.503   3.445 -0.5781 -0.3467  0.0715
 1644TIP3    H226348   2.609   4.635   3.487 -0.3801 -0.2835 -0.4243
 1645TIP3   OH226349   4.398   6.023  16.123  0.0730  0.1171 -0.2662
 1645TIP3    H126350   4.322   6.078  16.104  0.5139  0.9105  0.2179
 1645TIP3    H226351   4.473   6.073  16.090  0.3092 -1.1799 -1.8246
 1646TIP3   OH226352   6.166   2.100   5.696 -0.3223 -0.2411  0.2298
 1646TIP3    H126353   6.143   2.066   5.782 -2.3325  0.0880 -0.1319
 1646TIP3    H226354   6.190   2.023   5.645 -1.9080 -0.7950  0.2848
 1647TIP3   OH226355   2.076   1.172  15.108  0.1652  0.5204 -0.2601
 1647TIP3    H126356   2.030   1.192  15.190 -0.9546  0.7182 -0.9060
 1647TIP3    H226357   2.006   1.165  15.043  0.9965 -0.0786 -1.1165
 1648TIP3   OH226358   3.920   6.668  10.756  0.5181  0.4294  0.1941
 1648TIP3    H126359   3.829   6.671  10.727  0.4120  1.1314  0.5811
 1648TIP3    H226360   3.952   6.583  10.725 -0.5243 -0.2153  0.8334
 1649TIP3   OH226361   5.516   5.964  10.941  0.3959 -0.4643  0.2537
 1649TIP3    H126362   5.435   5.923  10.972 -0.1962  0.8070  0.4489
 1649TIP3    H226363   5.558   5.896  10.887 -0.2151 -1.5385  1.0833
 1650TIP3   OH226364   4.073   4.723   0.452 -0.1716  0.0442  0.0588
 1650TIP3    H126365   4.165   4.747   0.450 -0.4734  1.2579  0.2589
 1650TIP3    H226366   4.072   4.633   0.486  0.8857  0.2717  0.7215
 1651TIP3   OH226367   4.282   5.064  14.932 -0.3192  0.1342 -0.4748
 1651TIP3    H126368   4.288   4.987  14.988 -2.1313 -0.3733 -0.9345
 1651TIP3    H226369   4.343   5.127  14.971  0.5325 -1.1932  0.4099
 1652TIP3   OH226370   1.284   3.628  14.654 -0.4097 -0.3925  0.0858
 1652TIP3    H126371   1.288   3.686  14.730 -2.7402 -0.2545  0.1570
 1652TIP3    H226372   1.195   3.593  14.655  0.1401 -1.9748 -1.4421
 1653TIP3   OH226373   0.310   4.341   4.843 -0.7835 -0.0569  0.4747
 1653TIP3    H126374   0.290   4.329   4.750 -0.3244  1.5777  0.1213
 1653TIP3    H226375   0.376   4.275   4.862  1.0104  1.1661 -1.0592
 1654TIP3   OH226376   6.524   4.207  12.945 -0.0243 -0.5361 -0.3020
 1654TIP3    H126377   6.440   4.239  12.978 -0.6379  0.2423 -2.4604
 1654TIP3    H226378   6.508   4.115  12.924 -0.3580 -0.3780 -0.7487
 1655TIP3   OH226379   5.191   5.360  13.842 -0.2810  0.0350  0.0787
 1655TIP3    H126380   5.125   5.351  13.773  0.5240  1.6258 -0.9592
 1655TIP3    H226381   5.260   5.414  13.803  0.8618 -0.1725  1.6852
 1656TIP3   OH226382   4.129   0.602  15.700  0.2091  0.0559 -0.2534
 1656TIP3    H126383   4.092   0.519  15.731 -1.1886  0.7099 -0.0781
 1656TIP3    H226384   4.185   0.631  15.772 -1.4368  0.5592  0.9134
 1657TIP3   OH226385   4.588   6.449   2.909 -0.3173 -0.2917  0.3158
 1657TIP3    H126386   4.576   6.367   2.958 -1.0511 -1.2398 -1.3849
 1657TIP3    H226387   4.683   6.456   2.898 -0.2676 -1.0753  0.2070
 1658TIP3   OH226388   6.025   1.728  13.582  0.3976 -0.1825 -0.0437
 1658TIP3    H126389   5.978   1.741  13.499  1.3930  0.6140 -0.5138
 1658TIP3    H226390   6.098   1.671  13.559  1.8065  1.5612 -0.2001
 1659TIP3   OH226391   6.255   0.050  10.811 -0.0129 -0.1695  0.6178
 1659TIP3    H126392   6.186   0.099  10.768 -1.2211 -1.2812  1.2193
 1659TIP3    H226393   6.288   0.109  10.879  1.4733  1.3516 -1.3095
 1660TIP3   OH226394   4.688   0.326  13.124  0.0718  0.2531 -0.5099
 1660TIP3    H126395   4.748   0.263  13.164 -2.2762 -2.0609 -0.3565
 1660TIP3    H226396   4.673   0.291  13.036  0.1265  1.6703 -1.1067
 1661TIP3   OH226397   0.484   6.616   3.667  0.2140 -0.2029  0.0148
 1661TIP3    H126398   0.450   6.612   3.757  0.0030 -0.8619 -0.0923
 1661TIP3    H226399   0.415   6.661   3.618 -0.2241 -0.9418 -0.0647
 1662TIP3   OH226400   3.655   0.311  16.719 -0.3047 -0.4760  0.4118
 1662TIP3    H126401   3.592   0.263  16.773 -0.9957 -0.1376 -0.0701
 1662TIP3    H226402   3.613   0.317  16.633  0.3055 -0.0752  0.1329
 1663TIP3   OH226403   5.965   6.296   1.961 -0.4770  0.7472 -0.5981
 1663TIP3    H126404   5.965   6.303   1.865 -0.4786  0.3235 -0.6316
 1663TIP3    H226405   6.049   6.256   1.982 -0.6153  0.5273 -0.4507
 1664TIP3   OH226406   2.514   5.856  16.001  0.6324  0.2071  0.3111
 1664TIP3    H126407   2.597   5.872  16.045  0.9222 -0.1371 -0.0958
 1664TIP3    H226408   2.467   5.798  16.060  1.6131 -1.4452 -0.4547
 1665TIP3   OH226409   1.956   3.037  16.207  0.0609  0.1438  0.0780
 1665TIP3    H126410   1.916   3.069  16.126  0.1449 -1.0818 -0.4574
 1665TIP3    H226411   1.959   3.114  16.264 -0.7880  0.8219 -0.7693
 1666TIP3   OH226412   6.245   5.449  14.834 -0.0801  0.3131  0.0161
 1666TIP3    H126413   6.166   5.476  14.879 -0.5812 -1.6058  0.4065
 1666TIP3    H226414   6.295   5.529  14.821 -1.9664  1.5287 -0.0193
 1667TIP3   OH226415   3.312   0.563  12.928  0.0138 -0.0032 -0.1998
 1667TIP3    H126416   3.318   0.641  12.983 -0.6502 -0.5307  0.6393
 1667TIP3    H226417   3.361   0.586  12.849  2.0126  0.3570  1.0706
 1668TIP3   OH226418   1.179   2.811  13.437 -0.5302 -0.1520 -0.4812
 1668TIP3    H126419   1.272   2.812  13.415 -0.4717 -2.0346 -0.4378
 1668TIP3    H226420   1.176   2.827  13.532 -0.3693  1.1933 -0.6774
 1669TIP3   OH226421   3.599   1.000   3.045 -0.2864 -0.2765 -0.4102
 1669TIP3    H126422   3.582   1.060   3.117 -1.9848  0.2001 -1.1446
 1669TIP3    H226423   3.514   0.990   3.002  0.7104 -0.4230 -2.4425
 1670TIP3   OH226424   2.968   0.177  11.847  0.2337  0.1496  0.2252
 1670TIP3    H126425   2.912   0.100  11.844 -0.7963  0.8736  0.2482
 1670TIP3    H226426   2.994   0.192  11.756  0.0561  0.0398  0.1563
 1671TIP3   OH226427   2.703   1.712  13.028  0.3792 -0.2868 -0.3108
 1671TIP3    H126428   2.667   1.629  13.060 -0.0692 -0.2798 -0.7977
 1671TIP3    H226429   2.778   1.728  13.085  0.0596 -0.6779  0.2335
 1672TIP3   OH226430   0.047   5.244  13.471  0.1716 -0.6345 -0.2187
 1672TIP3    H126431   0.063   5.152  13.452 -3.4919 -1.3246 -0.7846
 1672TIP3    H226432   0.042   5.285  13.384  0.1099 -0.2704 -0.0431
 1673TIP3   OH226433   0.143   0.265  14.047  0.0488 -0.2628  0.4122
 1673TIP3    H126434   0.103   0.259  14.134 -1.5700  1.0327 -0.1979
 1673TIP3    H226435   0.184   0.352  14.046 -0.2165 -0.1395 -0.2250
 1674TIP3   OH226436   5.937   2.439  16.279  0.4808 -0.5004  0.1801
 1674TIP3    H126437   5.940   2.530  16.251 -0.9144 -0.3783  0.3791
 1674TIP3    H226438   5.968   2.390  16.203  1.0110  0.1118 -0.0132
 1675TIP3   OH226439   0.445   0.658  14.537 -0.0904  0.4555 -0.1343
 1675TIP3    H126440   0.375   0.595  14.521 -0.5022  1.1140 -1.0353
 1675TIP3    H226441   0.420   0.702  14.619 -0.4534  0.3164 -0.1684
 1676TIP3   OH226442   3.634   0.845   1.564  0.0084 -0.0575 -0.0999
 1676TIP3    H126443   3.678   0.865   1.481  1.3608 -1.4404  0.2419
 1676TIP3    H226444   3.638   0.750   1.570 -1.5240 -0.0997  0.8062
 1677TIP3   OH226445   0.782   4.475   2.503  0.0960 -0.1206  0.8773
 1677TIP3    H126446   0.707   4.504   2.451  1.3300  0.9503 -0.3904
 1677TIP3    H226447   0.808   4.552   2.553  1.5350  0.1405 -0.2039
 1678TIP3   OH226448   3.427   5.470   2.010 -0.5547  0.4819  0.0735
 1678TIP3    H126449   3.453   5.559   1.987 -0.8127  0.7340  0.7618
 1678TIP3    H226450   3.499   5.436   2.062 -0.4710  0.2949 -0.1603
 1679TIP3   OH226451   4.499   3.049  15.794 -0.0390 -0.1200  0.3815
 1679TIP3    H126452   4.410   3.056  15.828  0.6301 -0.6869  2.3400
 1679TIP3    H226453   4.502   3.112  15.722 -1.8591  0.2609  0.5988
 1680TIP3   OH226454   0.441   5.145  16.813 -0.1542 -0.2703 -0.2162
 1680TIP3    H126455   0.425   5.142  16.719  0.0927 -1.8178 -0.2330
 1680TIP3    H226456   0.519   5.200  16.823  0.0147 -0.3774 -0.9452
 1681TIP3   OH226457   6.324   3.802   6.003  0.3814  0.0797  0.5557
 1681TIP3    H126458   6.315   3.767   6.092 -1.3370 -0.5676  0.1714
 1681TIP3    H226459   6.368   3.732   5.954  1.9621  0.7106  1.0193
 1682TIP3   OH226460   4.046   3.968   2.918  0.1058 -0.0560 -0.0042
 1682TIP3    H126461   4.137   3.946   2.898 -0.2563 -0.3195 -1.4697
 1682TIP3    H226462   3.999   3.886   2.910 -0.4024  0.2418 -0.1204
 1683TIP3   OH226463   3.863   2.750   5.894  0.3015 -0.3436  0.5057
 1683TIP3    H126464   3.827   2.690   5.829  0.8838  0.1214 -0.2626
 1683TIP3    H226465   3.788   2.775   5.948 -0.5537  0.6579 -1.0829
 1684TIP3   OH226466   2.258   5.675   1.620 -0.0720 -0.4931  0.2677
 1684TIP3    H126467   2.330   5.621   1.588  0.5230 -0.5153  1.6041
 1684TIP3    H226468   2.300   5.751   1.659 -0.8026 -0.2157  0.5281
 1685TIP3   OH226469   4.126   2.257   5.272 -0.3775  0.1133  0.0602
 1685TIP3    H126470   4.126   2.294   5.184 -2.5623 -0.3953 -0.2133
 1685TIP3    H226471   4.202   2.297   5.315 -0.2164  1.6234 -1.5280
 1686TIP3   OH226472   4.531   2.837  11.865  0.4876  1.0976 -0.0017
 1686TIP3    H126473   4.490   2.903  11.921  0.4787 -0.1615  1.5646
 1686TIP3    H226474   4.465   2.817  11.799 -0.2296  1.3277  0.6259
 1687TIP3   OH226475   5.841   6.655  15.494 -0.5236  0.2041 -0.5472
 1687TIP3    H126476   5.807   6.599  15.425  1.0850 -1.0109 -0.3934
 1687TIP3    H226477   5.773   6.653  15.562 -0.0694 -2.5614 -0.0381
 1688TIP3   OH226478   3.635   1.129   2.027  0.0960  0.2250 -0.2853
 1688TIP3    H126479   3.702   1.072   1.989 -1.3113 -2.3141  0.8410
 1688TIP3    H226480   3.561   1.123   1.967  0.0955  1.3159 -0.4098
 1689TIP3   OH226481   4.695   5.612  12.397  0.0580 -0.2561  0.2932
 1689TIP3    H126482   4.658   5.655  12.475  1.0119 -1.1274  1.2537
 1689TIP3    H226483   4.760   5.552  12.432  0.9370 -0.2275 -1.2393
 1690TIP3   OH226484   0.086   1.102   3.267  0.9908  0.2721 -0.0966
 1690TIP3    H126485   0.143   1.028   3.286 -0.0212 -0.1724  1.3014
 1690TIP3    H226486   0.076   1.100   3.172  1.5522 -0.9531 -0.1508
 1691TIP3   OH226487   0.195   4.906   3.374 -0.0674  0.1429 -0.0245
 1691TIP3    H126488   0.269   4.845   3.366  0.1015  0.3050  0.2757
 1691TIP3    H226489   0.119   4.849   3.387  0.1126  0.0032  0.4185
 1692TIP3   OH226490   4.622   5.505  14.756 -0.4446 -0.6596 -0.4379
 1692TIP3    H126491   4.539   5.540  14.722 -0.3260 -0.6330 -0.7052
 1692TIP3    H226492   4.606   5.412  14.767 -1.2887 -0.2998  1.8241
 1693TIP3   OH226493   6.343   4.535   1.491  0.2504 -0.0120 -0.0486
 1693TIP3    H126494   6.368   4.457   1.541 -0.8611  0.1538  0.8134
 1693TIP3    H226495   6.272   4.505   1.434 -0.0150  0.3158  0.1087
 1694TIP3   OH226496   3.082   4.431  15.536 -0.6033 -0.0444  0.3047
 1694TIP3    H126497   3.068   4.515  15.493  0.7271  1.1409  2.0442
 1694TIP3    H226498   3.098   4.369  15.465 -1.3210  1.2300 -0.9985
 1695TIP3   OH226499   3.101   6.697  15.040  0.5191  0.0057  0.2181
 1695TIP3    H126500   3.165   6.685  15.110 -0.6726 -1.0989  1.1731
 1695TIP3    H226501   3.128   6.635  14.972  1.1925  0.4706  0.0527
 1696TIP3   OH226502   4.392   2.047  14.123  0.3589  0.2979 -0.1553
 1696TIP3    H126503   4.403   1.972  14.180  1.5154  1.7754  1.6653
 1696TIP3    H226504   4.312   2.090  14.155  1.3738  1.4978  0.8439
 1697TIP3   OH226505   0.486   4.643   4.612  0.0496  0.0260 -0.2960
 1697TIP3    H126506   0.529   4.644   4.526  0.5446 -1.2207 -0.0805
 1697TIP3    H226507   0.459   4.552   4.624  0.7338 -0.0001  1.2244
 1698TIP3   OH226508   5.180   5.089  14.796  0.1050 -0.3732  0.4346
 1698TIP3    H126509   5.093   5.085  14.757 -0.3467  0.2096  1.3374
 1698TIP3    H226510   5.202   4.998  14.815 -0.3101 -0.5252  0.2032
 1699TIP3   OH226511   1.328   4.659   0.766  0.3632  0.2761  0.3001
 1699TIP3    H126512   1.384   4.706   0.704  0.2798  0.5260  0.4171
 1699TIP3    H226513   1.303   4.724   0.831  0.4065  0.0248  0.5687
 1700TIP3   OH226514   4.464   6.477  14.331  0.8123  0.5574 -0.3615
 1700TIP3    H126515   4.443   6.558  14.377  0.0820 -0.7256  1.6716
 1700TIP3    H226516   4.474   6.412  14.400  0.2346 -1.3628 -2.0029
 1701TIP3   OH226517   5.976   3.086   1.955 -0.7245  0.1142 -0.1376
 1701TIP3    H126518   5.994   3.172   1.993  1.2544 -0.1849 -0.2690
 1701TIP3    H226519   5.917   3.103   1.882  0.2589  1.4813 -0.6494
 1702TIP3   OH226520   3.850   3.742   4.240 -0.0369 -0.0741  0.3768
 1702TIP3    H126521   3.853   3.660   4.192 -1.8245  0.3133 -0.5053
 1702TIP3    H226522   3.925   3.739   4.299  2.7089 -0.3404 -2.8098
 1703TIP3   OH226523   5.729   1.900  12.688  0.0831  0.5996 -0.1344
 1703TIP3    H126524   5.786   1.962  12.733  0.0743  0.6237 -0.1568
 1703TIP3    H226525   5.643   1.913  12.729  0.7453 -1.7566  2.2642
 1704TIP3   OH226526   6.547   3.006   1.078  0.1167  0.0326  0.2714
 1704TIP3    H126527   6.573   3.080   1.024  0.7094  0.9575  1.7816
 1704TIP3    H226528   6.610   3.004   1.150 -0.1089 -1.7138  0.4793
 1705TIP3   OH226529   0.684   2.340   1.607  0.0254  0.6629 -0.1218
 1705TIP3    H126530   0.634   2.392   1.544  0.1153  0.6541 -0.2001
 1705TIP3    H226531   0.762   2.313   1.559  0.9824  2.1393  0.5245
 1706TIP3   OH226532   5.179   1.097  14.241  0.0295  0.3142 -0.1071
 1706TIP3    H126533   5.236   1.160  14.286 -0.0175 -0.4326  1.0473
 1706TIP3    H226534   5.105   1.150  14.210  1.1690  1.2383 -1.3493
 1707TIP3   OH226535   4.214   5.772   4.256 -0.0234  0.1704 -0.4749
 1707TIP3    H126536   4.226   5.735   4.343 -1.4687 -0.7817 -0.6488
 1707TIP3    H226537   4.282   5.731   4.203 -0.0169 -0.3151 -0.0958
 1708TIP3   OH226538   0.251   6.410  15.616 -0.0830 -0.2490 -0.3135
 1708TIP3    H126539   0.259   6.371  15.703 -0.3134  0.0759 -0.1460
 1708TIP3    H226540   0.281   6.500  15.627 -1.1906  0.1272 -0.3128
 1709TIP3   OH226541   0.277   1.821  14.208  0.0762 -0.4442  0.1615
 1709TIP3    H126542   0.309   1.762  14.138 -0.0268  0.1679 -0.4080
 1709TIP3    H226543   0.192   1.851  14.177  0.0515 -0.1290  0.5328
 1710TIP3   OH226544   1.993   5.893  13.710  0.6087 -0.0536 -0.0179
 1710TIP3    H126545   2.031   5.821  13.760  0.0686 -1.0824 -1.0292
 1710TIP3    H226546   2.046   5.969  13.733 -0.0413 -0.3238  2.5967
 1711TIP3   OH226547   6.020   3.616  14.596  0.4139  0.3764 -0.1066
 1711TIP3    H126548   6.099   3.622  14.543  0.5547  1.4934  0.2035
 1711TIP3    H226549   5.951   3.593  14.533  0.7592  0.6558 -0.5948
 1712TIP3   OH226550   5.800   4.617   6.081 -0.3973  0.7770  0.5511
 1712TIP3    H126551   5.716   4.635   6.122 -0.1845 -0.6230  1.6751
 1712TIP3    H226552   5.865   4.634   6.150  0.0889 -0.0689  0.3186
 1713TIP3   OH226553   4.554   6.729   4.941 -0.4227 -0.4626 -0.2805
 1713TIP3    H126554   4.637   6.774   4.925 -1.1314  1.1525  0.4745
 1713TIP3    H226555   4.527   6.757   5.029 -3.0998  1.2606 -1.5173
 1714TIP3   OH226556   6.712   3.811  14.273  0.0224 -0.3814  0.7880
 1714TIP3    H126557   6.755   3.896  14.263 -0.2862 -0.4813 -5.6120
 1714TIP3    H226558   6.622   3.833  14.298  0.1224  1.2218 -0.1012
 1715TIP3   OH226559   3.518   4.700  13.138 -0.3002  0.2614  0.1865
 1715TIP3    H126560   3.573   4.706  13.061 -1.8237 -0.1473 -0.9949
 1715TIP3    H226561   3.443   4.756  13.118  0.4587  2.2394  2.4815
 1716TIP3   OH226562   1.835   2.809   1.644  0.0131 -0.4336 -0.1412
 1716TIP3    H126563   1.755   2.758   1.659  0.6262 -1.0761  1.0821
 1716TIP3    H226564   1.897   2.776   1.709  1.7901 -1.0213 -2.0074
 1717TIP3   OH226565   1.896   0.163   0.869  0.1933  0.7302  0.5651
 1717TIP3    H126566   1.906   0.256   0.846 -0.0877  0.7733  0.6104
 1717TIP3    H226567   1.976   0.142   0.918  1.5067  0.2443 -1.6355
 1718TIP3   OH226568   2.024   2.750   2.130  0.2834  0.2317  0.5603
 1718TIP3    H126569   1.998   2.837   2.101  0.4885  0.6470  1.6162
 1718TIP3    H226570   2.120   2.749   2.120  0.1619 -0.4069 -0.8636
 1719TIP3   OH226571   0.929   6.345   2.242  0.2510  0.2396  0.3322
 1719TIP3    H126572   0.912   6.437   2.221  1.0883  0.5212  0.8398
 1719TIP3    H226573   0.926   6.301   2.158 -2.2960  0.3406  0.2832
 1720TIP3   OH226574   1.026   2.341  14.451 -0.2650 -0.2226 -0.0466
 1720TIP3    H126575   1.053   2.382  14.368  2.1501 -0.5889  0.4913
 1720TIP3    H226576   0.954   2.283  14.426  0.5130 -0.4676 -1.9484
 1721TIP3   OH226577   5.159   6.773   2.429  0.0996  0.0084 -0.0881
 1721TIP3    H126578   5.175   6.679   2.417 -0.2796  0.0417 -0.9105
 1721TIP3    H226579   5.081   6.777   2.484  0.7805 -0.1497  0.9172
 1722TIP3   OH226580   0.169   4.422  16.890 -0.1575 -0.1439  0.1168
 1722TIP3    H126581   0.246   4.474  16.914  1.3048 -0.9815 -2.3849
 1722TIP3    H226582   0.114   4.482  16.840  0.0618 -0.2108 -0.2017
 1723TIP3   OH226583   5.856   5.771   0.741 -0.0131  0.4271  0.3790
 1723TIP3    H126584   5.795   5.725   0.799 -0.0172  1.0938  0.9082
 1723TIP3    H226585   5.810   5.851   0.716  0.2984  0.5140  0.0819
 1724TIP3   OH226586   4.726   4.606  11.506  0.0594  0.7216  0.0146
 1724TIP3    H126587   4.789   4.628  11.574 -1.2975  0.6101  1.3758
 1724TIP3    H226588   4.778   4.598  11.426  1.6413  1.3142  0.9393
 1725TIP3   OH226589   4.890   4.957  15.692 -0.4099 -0.7805  0.0181
 1725TIP3    H126590   4.837   4.878  15.691 -0.5010 -0.8359  2.8767
 1725TIP3    H226591   4.830   5.025  15.723  0.8753 -0.6512  2.3624
 1726TIP3   OH226592   4.581   4.671   3.202  0.4150 -0.0923  0.1557
 1726TIP3    H126593   4.509   4.615   3.172  0.1368  0.3448  0.0002
 1726TIP3    H226594   4.549   4.709   3.284  0.1343  0.7362 -0.3262
 1727TIP3   OH226595   0.854   5.794  13.179 -0.5727 -0.3901  0.4549
 1727TIP3    H126596   0.867   5.882  13.214 -0.6990 -0.2548  0.1689
 1727TIP3    H226597   0.878   5.735  13.251  1.4581 -0.1609  0.0331
 1728TIP3   OH226598   2.033   0.545  12.267 -0.1410  0.4817 -0.5479
 1728TIP3    H126599   2.101   0.585  12.321 -0.9232  0.8322  0.1937
 1728TIP3    H226600   2.055   0.571  12.177  1.4253 -0.4723 -0.4851
 1729TIP3   OH226601   1.090   4.996  13.642  0.0070 -0.0558 -0.4532
 1729TIP3    H126602   1.120   5.075  13.687 -0.2387 -0.5598  0.6184
 1729TIP3    H226603   1.036   4.950  13.706  1.7120 -2.0817 -0.3508
 1730TIP3   OH226604   1.244   2.183   1.807 -0.6732 -0.1988 -0.3852
 1730TIP3    H126605   1.202   2.102   1.837  0.0899 -0.5097 -0.1406
 1730TIP3    H226606   1.190   2.212   1.733 -1.6296 -0.2969  0.2527
 1731TIP3   OH226607   1.818   1.491   0.024  0.1819  0.9129 -0.4148
 1731TIP3    H126608   1.772   1.437  -0.040  1.6558 -0.8601 -0.0577
 1731TIP3    H226609   1.868   1.553  -0.029  0.6358  0.1015 -0.9521
 1732TIP3   OH226610   4.559   6.596   6.008 -0.3205  0.3584  0.0958
 1732TIP3    H126611   4.464   6.592   6.002 -0.2318  0.0456 -1.3534
 1732TIP3    H226612   4.585   6.510   6.041 -0.4838  0.1249 -0.3799
 1733TIP3   OH226613   4.034   5.326  15.483 -0.1928  0.0107 -0.1917
 1733TIP3    H126614   4.003   5.237  15.466 -1.6332  0.8152 -2.2051
 1733TIP3    H226615   3.955   5.376  15.504  0.2993  1.1972 -1.0251
 1734TIP3   OH226616   3.658   1.342  13.476 -0.8483  0.0541 -0.0598
 1734TIP3    H126617   3.585   1.283  13.495 -1.5760  1.1420  0.6022
 1734TIP3    H226618   3.674   1.387  13.559  1.1785 -0.7990  0.0650
 1735TIP3   OH226619   1.826   6.540  10.868 -0.6755  0.0799 -0.5825
 1735TIP3    H126620   1.764   6.497  10.927  0.1168  1.5442  1.4535
 1735TIP3    H226621   1.778   6.616  10.834  0.0358  1.5111  1.3985
 1736TIP3   OH226622   1.631   0.151  12.763  0.5077 -0.7189  0.0605
 1736TIP3    H126623   1.718   0.127  12.796  1.1157  0.3858 -0.6780
 1736TIP3    H226624   1.605   0.227  12.815  0.5634 -0.2525 -0.5810
 1737TIP3   OH226625   6.579   1.240   0.891 -0.4854  0.0270  0.1778
 1737TIP3    H126626   6.550   1.324   0.926  1.2855  1.1834 -0.9536
 1737TIP3    H226627   6.561   1.246   0.797 -0.6223 -0.9956  0.1248
 1738TIP3   OH226628   3.627   6.728  12.239  0.3494  0.0535 -0.0022
 1738TIP3    H126629   3.680   6.700  12.314 -1.0725  1.0926  1.4636
 1738TIP3    H226630   3.619   6.823  12.251  0.0935  0.2338 -1.5010
 1739TIP3   OH226631   2.384   3.515   0.251  0.0195 -0.0176  0.3596
 1739TIP3    H126632   2.295   3.509   0.216  0.3172  0.2640 -0.4674
 1739TIP3    H226633   2.380   3.585   0.316 -0.3361  0.0814  0.2320
 1740TIP3   OH226634   3.419   5.606  14.573  0.1226 -0.0343 -0.4620
 1740TIP3    H126635   3.365   5.589  14.650  0.1544 -1.2181 -0.6817
 1740TIP3    H226636   3.456   5.521  14.551 -1.0386 -0.0551 -2.6322
 1741TIP3   OH226637   5.394   6.034   1.504 -0.3122 -0.2201 -0.0332
 1741TIP3    H126638   5.360   6.013   1.417  0.8100 -2.7464  0.0474
 1741TIP3    H226639   5.318   6.068   1.551 -1.2095  0.1507 -1.6572
 1742TIP3   OH226640   3.903   2.725   0.341 -0.1164 -0.1130 -0.0350
 1742TIP3    H126641   3.919   2.663   0.412 -0.1693  0.8983  0.8799
 1742TIP3    H226642   3.955   2.802   0.364 -0.2044  0.2615 -1.0520
 1743TIP3   OH226643   6.613   3.395  10.991  0.2657  0.4795 -0.4849
 1743TIP3    H126644   6.667   3.419  10.916 -0.8396  0.7239 -1.2256
 1743TIP3    H226645   6.538   3.454  10.987 -0.5256 -0.4612 -0.0169
 1744TIP3   OH226646   2.201   0.653  17.306  1.2192  0.4711  0.1762
 1744TIP3    H126647   2.200   0.723  17.240 -2.0283  0.9361  0.5666
 1744TIP3    H226648   2.195   0.572  17.255  2.3200  0.6081 -0.1906
 1745TIP3   OH226649   5.616   4.162   3.579 -0.1484  0.0161  0.1339
 1745TIP3    H126650   5.571   4.179   3.497  1.0436  1.5692 -0.2294
 1745TIP3    H226651   5.563   4.095   3.622 -1.5697  0.2152 -1.2485
 1746TIP3   OH226652   1.857   6.109   3.090  0.3305  0.3100  0.5556
 1746TIP3    H126653   1.859   6.047   3.163  1.2874  1.9374  1.9456
 1746TIP3    H226654   1.881   6.193   3.128 -4.0557  2.3415 -0.5600
 1747TIP3   OH226655   4.859   2.643   1.614  0.3398 -0.9428  0.5923
 1747TIP3    H126656   4.794   2.711   1.598  2.3140  1.4245  1.9558
 1747TIP3    H226657   4.878   2.608   1.527  0.2534  1.2764 -0.3907
 1748TIP3   OH226658   4.721   4.658  16.034 -0.0132 -0.1232 -0.0542
 1748TIP3    H126659   4.816   4.648  16.039  0.1317  0.2227 -1.6508
 1748TIP3    H226660   4.694   4.597  15.966 -1.1266 -1.1559  1.2547
 1749TIP3   OH226661   5.145   1.995   5.766  0.3184  0.6766  0.6062
 1749TIP3    H126662   5.147   1.945   5.847  0.2223  0.1614  0.3026
 1749TIP3    H226663   5.124   1.930   5.699  2.4724  0.6682 -0.1413
 1750TIP3   OH226664   2.842   0.101   4.867  0.3904 -0.2446 -0.1315
 1750TIP3    H126665   2.759   0.058   4.887  0.8571 -1.4618 -0.7332
 1750TIP3    H226666   2.882   0.046   4.800  1.4596  0.6064 -0.2155
 1751TIP3   OH226667   1.287   1.845   5.752 -0.0275 -0.3201 -0.2696
 1751TIP3    H126668   1.295   1.870   5.844  0.8014 -0.7983 -0.2027
 1751TIP3    H226669   1.212   1.895   5.720 -1.9665 -2.0388  1.3197
 1752TIP3   OH226670   1.840   6.683   1.103 -0.4980  0.2941  0.4306
 1752TIP3    H126671   1.926   6.702   1.065 -0.6522 -1.1775 -0.7517
 1752TIP3    H226672   1.803   6.615   1.046 -1.9740  0.0739  1.5889
 1753TIP3   OH226673   0.774   0.883   3.810  0.1781 -0.2364  0.4583
 1753TIP3    H126674   0.785   0.957   3.871 -0.3733 -0.6463  1.0695
 1753TIP3    H226675   0.680   0.871   3.805  0.3005 -1.9320  1.6382
 1754TIP3   OH226676   4.343   3.925   0.256 -0.4296 -0.2479 -0.6746
 1754TIP3    H126677   4.311   3.999   0.205  0.2812  1.9880  1.8668
 1754TIP3    H226678   4.270   3.901   0.313 -0.4865 -1.2052 -1.1281
 1755TIP3   OH226679   4.077   2.812  11.789 -0.7375 -0.0684 -0.4548
 1755TIP3    H126680   4.088   2.907  11.785 -1.2515  0.0407  0.4966
 1755TIP3    H226681   4.026   2.791  11.710 -2.3981  0.7392  0.3422
 1756TIP3   OH226682   5.319   1.200   4.458  0.1934  0.3636  0.2382
 1756TIP3    H126683   5.225   1.214   4.469  0.5865  2.6125  1.3281
 1756TIP3    H226684   5.349   1.170   4.543  0.5548  0.2856  0.0839
 1757TIP3   OH226685   2.385   2.155  13.528  0.0579  0.3163 -0.3436
 1757TIP3    H126686   2.318   2.208  13.573  0.3730  1.2303 -0.9339
 1757TIP3    H226687   2.337   2.110  13.458 -0.3572 -0.7993  0.6257
 1758TIP3   OH226688   0.393   6.248  14.927 -0.5335 -0.0946  0.0422
 1758TIP3    H126689   0.467   6.188  14.920  0.2627  0.8066  0.6416
 1758TIP3    H226690   0.338   6.226  14.851  0.1391 -1.0251 -0.1935
 1759TIP3   OH226691   2.834   5.810   0.181  0.3457 -0.0160  0.6931
 1759TIP3    H126692   2.783   5.729   0.177  1.2607 -0.5438 -1.4907
 1759TIP3    H226693   2.916   5.784   0.225 -0.8878  0.7018  3.6581
 1760TIP3   OH226694   0.047   4.366  10.914  0.7856 -0.1868 -0.6803
 1760TIP3    H126695   0.054   4.449  10.866  1.9711 -1.5157 -2.9784
 1760TIP3    H226696  -0.012   4.313  10.862 -0.3892 -0.6554  1.0513
 1761TIP3   OH226697   4.738   5.687   3.146  0.6870 -0.2039 -0.2782
 1761TIP3    H126698   4.760   5.718   3.058 -1.1382 -0.3427 -0.8266
 1761TIP3    H226699   4.822   5.657   3.183  1.1172 -2.8497 -3.0439
 1762TIP3   OH226700   4.554   0.116   4.508 -0.1031 -0.4110 -0.7719
 1762TIP3    H126701   4.538   0.084   4.420  0.3809 -1.7730 -0.3839
 1762TIP3    H226702   4.580   0.039   4.558 -0.9649  0.2171  0.7196
 1763TIP3   OH226703   1.669   2.011   1.307 -0.3718 -0.2272 -0.4748
 1763TIP3    H126704   1.727   2.025   1.382 -2.0283 -0.4624  0.9016
 1763TIP3    H226705   1.729   1.995   1.234  1.3037 -1.5513  1.0815
 1764TIP3   OH226706   5.532   2.906  16.428 -0.2103  0.4342  0.0522
 1764TIP3    H126707   5.625   2.921  16.416  0.6338 -3.0750  1.0102
 1764TIP3    H226708   5.502   2.873  16.344 -0.1988  0.0071  0.2139
 1765TIP3   OH226709   2.975   4.850   1.176 -0.6647  0.3771  0.1399
 1765TIP3    H126710   3.041   4.816   1.116  0.8969  1.5211  1.1210
 1765TIP3    H226711   2.897   4.798   1.159  0.0027  0.0456 -2.2035
 1766TIP3   OH226712   5.852   5.599   6.010  0.3856 -0.4413  0.0599
 1766TIP3    H126713   5.841   5.573   5.918  1.3764  0.7376 -0.4243
 1766TIP3    H226714   5.918   5.539   6.044  0.2011 -0.7216 -0.0726
 1767TIP3   OH226715   0.922   5.474   2.507  0.2929  1.0026 -0.3922
 1767TIP3    H126716   0.998   5.471   2.450  0.8066  1.6103  0.2442
 1767TIP3    H226717   0.953   5.517   2.587 -0.9790  2.2223 -0.5224
 1768TIP3   OH226718   4.108   0.644   1.526 -1.1009  0.9570 -0.2516
 1768TIP3    H126719   4.147   0.694   1.454 -1.0039  1.6048  0.2481
 1768TIP3    H226720   4.075   0.710   1.587  0.5840  0.4568  1.2827
 1769TIP3   OH226721   4.848   0.179   1.774  0.1886 -0.1877 -0.0237
 1769TIP3    H126722   4.867   0.122   1.849 -0.0795 -0.2244  0.0149
 1769TIP3    H226723   4.754   0.197   1.780  0.2743  0.2781 -0.0186
 1770TIP3   OH226724   3.327   6.539   5.367 -0.1771  0.4462 -0.3213
 1770TIP3    H126725   3.403   6.578   5.323  0.4877 -0.1548  0.2828
 1770TIP3    H226726   3.295   6.474   5.305 -0.7066  1.2521 -0.9218
 1771TIP3   OH226727   4.321   2.139  12.270 -0.1845 -0.6093  0.1168
 1771TIP3    H126728   4.384   2.077  12.307 -0.6448 -1.5026 -0.5724
 1771TIP3    H226729   4.344   2.144  12.178  0.8853  1.5248  0.4227
 1772TIP3   OH226730   3.499   5.669   6.262 -0.2811  0.0545  0.2343
 1772TIP3    H126731   3.408   5.641   6.262 -0.6345  1.1519  0.3353
 1772TIP3    H226732   3.496   5.762   6.287  0.7712  0.3960 -0.8043
 1773TIP3   OH226733   4.846   6.744   4.632 -0.1828  0.0614  0.3826
 1773TIP3    H126734   4.839   6.653   4.602 -1.8235 -0.1751  1.3660
 1773TIP3    H226735   4.867   6.737   4.725  1.5082  0.7406  0.0815
 1774TIP3   OH226736   1.156   5.985  11.659 -0.1905 -0.6663 -0.1860
 1774TIP3    H126737   1.156   5.909  11.718 -0.5033  0.3207  1.1525
 1774TIP3    H226738   1.229   6.038  11.689 -0.5945  0.0440 -0.4422
 1775TIP3   OH226739   3.806   4.453  14.301  0.7853 -0.4416 -0.0208
 1775TIP3    H126740   3.823   4.541  14.333  1.9484 -1.0130  1.0459
 1775TIP3    H226741   3.834   4.454  14.209  1.3730  0.1388  0.1621
 1776TIP3   OH226742   2.431   6.261  15.861 -0.4978 -0.0227  0.1143
 1776TIP3    H126743   2.421   6.353  15.837 -0.3148 -0.2675 -0.9790
 1776TIP3    H226744   2.450   6.262  15.954  0.2676  1.0923 -0.0391
 1777TIP3   OH226745   6.037   0.461   2.972 -0.0701  0.6319 -0.5181
 1777TIP3    H126746   6.010   0.371   2.953 -3.3425  0.9358  1.8781
 1777TIP3    H226747   6.108   0.452   3.035 -0.2477 -0.2632 -0.4320
 1778TIP3   OH226748   4.858   3.745  11.325  0.1759  0.0233 -0.8494
 1778TIP3    H126749   4.869   3.824  11.378  4.1561 -0.9536  0.0811
 1778TIP3    H226750   4.890   3.768  11.238 -1.4481  0.1736 -1.4430
 1779TIP3   OH226751   2.403   0.979   3.343  0.2606 -0.0079 -0.1398
 1779TIP3    H126752   2.456   0.976   3.423 -0.6403  3.3178  0.7470
 1779TIP3    H226753   2.373   0.889   3.331 -0.0809 -0.5570  3.6500
 1780TIP3   OH226754   0.463   0.347  17.064 -0.0651 -0.1474  0.1227
 1780TIP3    H126755   0.461   0.252  17.059 -0.5641 -0.2360  1.4865
 1780TIP3    H226756   0.516   0.374  16.989  0.5891 -1.5309  0.0506
 1781TIP3   OH226757   0.652   3.284  14.143  0.3797 -0.2752 -0.1770
 1781TIP3    H126758   0.605   3.212  14.101  0.5711 -0.9927  0.7892
 1781TIP3    H226759   0.730   3.296  14.090 -0.4656  0.3492 -1.3002
 1782TIP3   OH226760   4.387   2.220  14.466  0.2318 -0.2277 -0.5462
 1782TIP3    H126761   4.303   2.224  14.511 -0.7777 -0.8911 -2.2963
 1782TIP3    H226762   4.434   2.298  14.496 -0.7550 -0.1553  0.9054
 1783TIP3   OH226763   6.729   3.611   0.655  0.0794  0.0151 -0.1278
 1783TIP3    H126764   6.667   3.614   0.582 -0.2641  0.8791  0.1848
 1783TIP3    H226765   6.751   3.518   0.664 -0.9536 -0.2762 -0.4301
 1784TIP3   OH226766   5.884   2.016  12.865 -0.4613  0.0639  0.2623
 1784TIP3    H126767   5.878   2.079  12.937  0.9050  0.7310 -0.1852
 1784TIP3    H226768   5.951   1.954  12.892 -0.1088  0.1791 -0.3284
 1785TIP3   OH226769   4.062   4.144   3.127  0.3073 -0.3141 -0.0850
 1785TIP3    H126770   4.064   4.077   3.059  1.0585  0.9304 -1.3544
 1785TIP3    H226771   3.994   4.205   3.098  0.1372 -0.1402  0.6661
 1786TIP3   OH226772   5.032   6.389   4.881 -0.0261 -0.0447 -0.1232
 1786TIP3    H126773   5.077   6.384   4.965  0.2746  1.2515 -0.1983
 1786TIP3    H226774   4.939   6.396   4.903 -0.3052 -2.9566  0.0298
 1787TIP3   OH226775   6.558   5.023  13.032 -0.1227  0.4911  0.9124
 1787TIP3    H126776   6.466   5.013  13.057 -0.3022  1.7276  0.8350
 1787TIP3    H226777   6.577   5.116  13.049  0.6656  0.6259 -0.5258
 1788TIP3   OH226778   0.038   5.495  12.090 -0.1365  0.2584 -0.5806
 1788TIP3    H126779   0.022   5.586  12.115 -0.3532 -0.0522  0.4453
 1788TIP3    H226780   0.133   5.484  12.100 -0.4301 -0.4424  2.2758
 1789TIP3   OH226781   3.177   4.136   0.493  0.1080 -0.7672 -0.3177
 1789TIP3    H126782   3.082   4.124   0.491 -0.1457  0.7123  0.6179
 1789TIP3    H226783   3.199   4.127   0.586  0.9295 -1.3912 -0.5725
 1790TIP3   OH226784   3.016   4.035  15.750 -0.1931 -0.3842 -0.7588
 1790TIP3    H126785   3.062   3.987  15.819  0.0416 -0.5529 -1.0291
 1790TIP3    H226786   2.926   4.040  15.780 -0.2110 -0.9602 -0.7061
 1791TIP3   OH226787   3.487   0.560  15.720 -0.1846 -0.3865  0.0204
 1791TIP3    H126788   3.499   0.603  15.635  1.6690  0.1911  0.5417
 1791TIP3    H226789   3.566   0.580  15.769 -1.2312 -0.6583  1.9332
 1792TIP3   OH226790   3.350   0.862  16.883  0.4496 -0.1177 -0.4830
 1792TIP3    H126791   3.355   0.869  16.978  1.6773 -1.6633 -0.3807
 1792TIP3    H226792   3.294   0.786  16.867  1.7115 -1.0143 -0.8920
 1793TIP3   OH226793   2.448   3.904   4.804 -0.0043 -0.6130  0.2727
 1793TIP3    H126794   2.374   3.963   4.819  0.1198 -0.4431  0.2173
 1793TIP3    H226795   2.407   3.819   4.786 -0.2963 -0.0090 -2.2422
 1794TIP3   OH226796   6.773   4.740   5.397 -0.9100 -0.7049  0.2616
 1794TIP3    H126797   6.713   4.699   5.335 -0.9310 -0.9705  0.4535
 1794TIP3    H226798   6.724   4.745   5.479 -1.9905  2.4139 -0.4370
 1795TIP3   OH226799   0.071   2.843   3.342 -0.8392  0.3312 -0.0169
 1795TIP3    H126800   0.144   2.797   3.384 -1.9573  0.1149  1.8213
 1795TIP3    H226801   0.108   2.880   3.262  1.2071  0.0038  0.7255
 1796TIP3   OH226802   2.655   3.834  16.423  0.1860 -0.5897 -0.3952
 1796TIP3    H126803   2.587   3.815  16.488  0.9376  0.8695  0.8989
 1796TIP3    H226804   2.716   3.760  16.430 -0.3346 -1.0181 -0.2912
 1797TIP3   OH226805   2.311   5.865  14.454  0.1658 -0.2144 -0.4219
 1797TIP3    H126806   2.263   5.881  14.535  1.3090 -0.4560  0.3304
 1797TIP3    H226807   2.245   5.872  14.385 -0.8327 -0.0225  0.5244
 1798TIP3   OH226808   2.026   3.183  11.786 -0.5262 -0.2254 -0.2457
 1798TIP3    H126809   2.045   3.091  11.767 -1.7084 -0.3218 -1.1266
 1798TIP3    H226810   2.012   3.223  11.700  1.1644  1.0916  0.0451
 1799TIP3   OH226811   1.962   4.545   3.208  0.1770 -0.1661  0.2586
 1799TIP3    H126812   1.935   4.634   3.232 -2.3545 -0.9912  0.7743
 1799TIP3    H226813   2.039   4.528   3.263  0.0100  1.2992  0.9970
 1800TIP3   OH226814   5.935   5.041  12.246  0.1706  0.1952 -0.3970
 1800TIP3    H126815   5.860   5.098  12.229  0.9806  1.5497  0.4123
 1800TIP3    H226816   5.916   4.999  12.330  0.3601  0.6140 -0.1439
 1801TIP3   OH226817   4.088   2.626   3.779  1.0671  0.1365 -0.0763
 1801TIP3    H126818   4.170   2.577   3.782  0.0356 -1.7245 -0.0066
 1801TIP3    H226819   4.108   2.709   3.821  3.1802  0.2031 -1.0791
 1802TIP3   OH226820   0.910   6.007   5.399  0.1529  0.4380 -0.7934
 1802TIP3    H126821   0.965   5.938   5.364 -0.8740 -0.9254  0.1481
 1802TIP3    H226822   0.845   6.024   5.330  0.8744  1.0509 -1.3385
 1803TIP3   OH226823   0.717   4.840   4.514 -0.1782  0.0220 -0.0613
 1803TIP3    H126824   0.764   4.916   4.479 -0.2923  0.4256  0.6376
 1803TIP3    H226825   0.719   4.776   4.444 -1.6344  1.3308 -1.3858
 1804TIP3   OH226826   5.649   4.377  12.419 -0.3373 -0.1256 -0.4532
 1804TIP3    H126827   5.585   4.312  12.390 -0.2643  0.8284 -3.0039
 1804TIP3    H226828   5.731   4.348  12.381  0.2492  0.0422  0.6536
 1805TIP3   OH226829   3.308   0.269   0.376 -0.0795 -0.4904 -0.5253
 1805TIP3    H126830   3.281   0.331   0.444 -0.7903 -0.4477 -0.8355
 1805TIP3    H226831   3.234   0.267   0.315  0.2628 -1.0550 -0.9309
 1806TIP3   OH226832   5.488   5.486   4.227 -0.2622 -0.6358 -0.4497
 1806TIP3    H126833   5.547   5.416   4.198  0.7491 -0.0755  0.2206
 1806TIP3    H226834   5.509   5.560   4.170 -0.2243 -0.3879 -0.1118
 1807TIP3   OH226835   3.090   4.300  17.034  0.5807 -0.0473  0.3094
 1807TIP3    H126836   3.152   4.238  17.072  1.4115  1.2828  1.1732
 1807TIP3    H226837   3.006   4.276  17.072  0.3525 -2.3323 -1.4205
 1808TIP3   OH226838   3.668   6.130   1.101  0.2494 -0.3764  0.0768
 1808TIP3    H126839   3.616   6.164   1.174 -1.1510 -1.3396 -0.4158
 1808TIP3    H226840   3.706   6.049   1.134 -0.1558 -0.6660 -0.1466
 1809TIP3   OH226841   2.464   2.028  16.888 -0.7794  0.1021 -0.2864
 1809TIP3    H126842   2.506   2.044  16.804  1.4350 -2.2723  0.2277
 1809TIP3    H226843   2.482   2.106  16.941  0.2459  0.4354 -1.1149
 1810TIP3   OH226844   2.429   3.029   6.084  0.1585  0.6607  0.2717
 1810TIP3    H126845   2.369   3.019   6.157 -0.5124 -0.6372 -0.4272
 1810TIP3    H226846   2.391   3.100   6.032 -1.0095 -0.3832 -0.3525
 1811TIP3   OH226847   3.592   0.173  15.944  0.3297  0.2896 -0.7568
 1811TIP3    H126848   3.660   0.236  15.923  0.7625  0.5928  1.2777
 1811TIP3    H226849   3.513   0.208  15.904  1.1843  0.3309 -2.5079
 1812TIP3   OH226850   2.603   6.353  12.647  0.7728  0.0050 -0.4244
 1812TIP3    H126851   2.619   6.261  12.625  1.8773 -0.7901  3.1023
 1812TIP3    H226852   2.521   6.352  12.697  1.8326  0.5339  1.4143
 1813TIP3   OH226853   6.562   6.484  11.196  0.0504 -0.2501  0.3290
 1813TIP3    H126854   6.485   6.427  11.198  0.2645 -0.5385  0.3611
 1813TIP3    H226855   6.536   6.557  11.139  0.3034 -1.1664 -1.0256
 1814TIP3   OH226856   5.603   6.565  14.693  0.4204 -0.2762  0.6145
 1814TIP3    H126857   5.570   6.576  14.604  2.6686  0.8668 -0.1496
 1814TIP3    H226858   5.545   6.619  14.746  0.2758  0.7097 -0.4942
 1815TIP3   OH226859   2.525   0.556   2.370  0.0948 -0.6230 -0.6835
 1815TIP3    H126860   2.496   0.557   2.461 -2.8122  1.6777 -1.4935
 1815TIP3    H226861   2.509   0.466   2.340 -1.2365 -0.7713  0.4079
 1816TIP3   OH226862   5.547   4.071   4.997  0.2966  0.0136  0.2421
 1816TIP3    H126863   5.464   4.096   4.958  0.2263 -3.4811 -2.4024
 1816TIP3    H226864   5.526   3.995   5.052  1.3492  1.0867  2.2380
 1817TIP3   OH226865   1.778   1.783  11.267  0.3580 -0.2878  0.3665
 1817TIP3    H126866   1.738   1.830  11.340  1.7742  1.8903 -0.1757
 1817TIP3    H226867   1.722   1.803  11.192 -0.7763 -2.0691  0.6686
 1818TIP3   OH226868   2.269   0.994   3.680 -0.5465 -0.2375 -0.4894
 1818TIP3    H126869   2.232   0.927   3.622 -0.3920 -1.6432  0.9417
 1818TIP3    H226870   2.260   0.956   3.768 -0.8722  1.8533  0.4283
 1819TIP3   OH226871   2.835   5.910   4.459  0.0302  0.0428  0.2137
 1819TIP3    H126872   2.740   5.899   4.465  0.0663 -0.2381  0.2370
 1819TIP3    H226873   2.861   5.942   4.545  0.2240 -1.7277  0.8436
 1820TIP3   OH226874   6.245   6.771  12.819 -1.0146  0.7944 -0.6119
 1820TIP3    H126875   6.190   6.693  12.826  1.4583 -1.0650 -0.5934
 1820TIP3    H226876   6.273   6.789  12.909 -0.2925  0.7187 -0.8176
 1821TIP3   OH226877   3.850   5.499   3.492  0.4297  0.0256 -0.1360
 1821TIP3    H126878   3.849   5.417   3.542  0.5719 -0.1515 -0.4254
 1821TIP3    H226879   3.762   5.536   3.506 -0.1938 -0.9707 -1.3171
 1822TIP3   OH226880   3.151   6.394  15.426  0.2174  0.3236  0.0784
 1822TIP3    H126881   3.184   6.464  15.481  1.7873 -1.1913  1.1710
 1822TIP3    H226882   3.068   6.368  15.467 -1.1049  2.3817 -1.1387
 1823TIP3   OH226883   2.055   3.436   2.163  0.1882  0.3874 -0.4131
 1823TIP3    H126884   2.108   3.389   2.099  2.9397  3.0241 -0.3327
 1823TIP3    H226885   2.116   3.456   2.235 -1.4093  1.9898  0.6039
 1824TIP3   OH226886   6.110   0.671  15.350  0.2933 -0.3400  0.5891
 1824TIP3    H126887   6.171   0.673  15.423  0.4675  0.6793  0.4254
 1824TIP3    H226888   6.095   0.763  15.327 -2.4002 -0.4350  1.5282
 1825TIP3   OH226889   3.553   0.729   4.576  0.3561 -0.2743  0.0357
 1825TIP3    H126890   3.633   0.743   4.526 -0.1471  0.0068 -0.7046
 1825TIP3    H226891   3.507   0.658   4.529 -0.9316  1.1326 -0.9385
 1826TIP3   OH226892   6.296   5.590  13.820 -0.4395  0.3131 -0.6196
 1826TIP3    H126893   6.372   5.538  13.794  0.1387  1.1097 -0.5581
 1826TIP3    H226894   6.325   5.681  13.812 -1.1448  0.6178  0.1131
 1827TIP3   OH226895   6.224   0.938   6.091 -0.6076  0.0542  0.0680
 1827TIP3    H126896   6.242   0.976   6.177  0.1993 -1.9928  0.8667
 1827TIP3    H226897   6.309   0.910   6.059 -0.7436  1.6686 -1.9075
 1828TIP3   OH226898   3.583   5.030   1.940  0.0052  0.2265 -0.3017
 1828TIP3    H126899   3.503   5.065   1.979 -0.5714 -1.6406  0.3293
 1828TIP3    H226900   3.564   5.022   1.847 -1.1028 -1.4408  0.0153
 1829TIP3   OH226901   0.436   6.150  12.407  0.4208 -0.3142 -0.0341
 1829TIP3    H126902   0.519   6.197  12.412  0.4556 -0.4474  0.7849
 1829TIP3    H226903   0.403   6.149  12.497  0.0966 -1.2582 -0.1475
 1830TIP3   OH226904   4.449   4.514  16.288  0.1881 -0.0626 -0.6733
 1830TIP3    H126905   4.376   4.491  16.345  0.1202 -1.5113 -1.2988
 1830TIP3    H226906   4.460   4.609  16.300  0.5724 -0.3641  2.1838
 1831TIP3   OH226907   3.308   6.198  14.733 -0.1059  0.6223 -0.3369
 1831TIP3    H126908   3.331   6.212  14.825 -0.5799 -1.0928  0.0873
 1831TIP3    H226909   3.227   6.147  14.737  0.8818 -1.1466 -1.6559
 1832TIP3   OH226910   4.103   1.741  14.921  0.3071 -0.2172  0.1556
 1832TIP3    H126911   4.023   1.692  14.902 -0.3674  1.4945 -1.9562
 1832TIP3    H226912   4.073   1.817  14.971  0.3226  1.0933 -1.7146
 1833TIP3   OH226913   0.193   1.280  13.956  0.1330 -0.2407 -0.2120
 1833TIP3    H126914   0.102   1.282  13.928 -0.3941  1.7288  1.4321
 1833TIP3    H226915   0.220   1.189  13.943 -1.8292 -0.7077 -1.3859
 1834TIP3   OH226916   1.832   2.016   3.797 -0.7216  0.3204 -0.2289
 1834TIP3    H126917   1.792   1.967   3.869  1.2121  0.6818  1.1558
 1834TIP3    H226918   1.867   1.950   3.738 -0.7956  0.0249  0.0597
 1835TIP3   OH226919   3.076   4.572   1.357  0.2650  0.2958 -0.1626
 1835TIP3    H126920   3.161   4.580   1.312  0.0192 -0.1958 -0.7212
 1835TIP3    H226921   3.080   4.638   1.426  2.0270 -1.2706  1.3201
 1836TIP3   OH226922   3.229   0.147   4.182 -0.4183 -0.5508 -0.0728
 1836TIP3    H126923   3.291   0.163   4.110 -0.0893 -1.2718  0.0330
 1836TIP3    H226924   3.178   0.227   4.188 -0.2158 -0.3450 -0.8831
 1837TIP3   OH226925   3.264   6.644   0.629 -0.0958  0.3464  0.4750
 1837TIP3    H126926   3.256   6.625   0.722 -0.2999 -0.1186  0.3667
 1837TIP3    H226927   3.186   6.694   0.608  0.1738  0.8471  0.6464
 1838TIP3   OH226928   0.886   3.041   1.988 -0.8459  0.4582  0.0128
 1838TIP3    H126929   0.853   2.972   2.046 -0.4943 -0.6535 -1.0636
 1838TIP3    H226930   0.975   3.014   1.966  0.1907  2.4735  1.3943
 1839TIP3   OH226931   3.193   1.505  15.261  0.3531  0.3231  0.3427
 1839TIP3    H126932   3.169   1.565  15.331  1.9731  0.6528  0.6568
 1839TIP3    H226933   3.114   1.497  15.208 -0.6758  0.6536  1.7777
 1840TIP3   OH226934   2.089   5.761  11.207  0.0402 -0.6700  0.3753
 1840TIP3    H126935   2.100   5.666  11.214 -2.6280 -1.2101 -1.4161
 1840TIP3    H226936   2.074   5.776  11.114 -0.2338  1.4419  0.7178
 1841TIP3   OH226937   6.088   5.593   0.050  0.8853  0.3141 -0.0880
 1841TIP3    H126938   6.069   5.571   0.141 -1.1960  1.1671 -0.2574
 1841TIP3    H226939   6.060   5.516   0.001  1.1077  0.2268 -0.0778
 1842TIP3   OH226940   1.665   0.232   3.994 -0.3973 -0.1368 -0.0251
 1842TIP3    H126941   1.603   0.289   3.948 -1.2210 -0.8294  0.2001
 1842TIP3    H226942   1.663   0.264   4.085 -2.6181 -1.9034  0.6384
 1843TIP3   OH226943   4.297   2.307   0.830 -0.3593  0.1522  0.3545
 1843TIP3    H126944   4.314   2.232   0.887 -0.2346 -1.0131 -1.1447
 1843TIP3    H226945   4.216   2.345   0.864 -0.6905 -0.9523  0.8654
 1844TIP3   OH226946   5.662   4.590  14.387 -0.5137 -0.1400  0.2461
 1844TIP3    H126947   5.693   4.651  14.453  1.4159  0.6686 -1.3289
 1844TIP3    H226948   5.572   4.570  14.414 -0.0783  0.7755  2.6222
 1845TIP3   OH226949   1.260   3.608   4.813 -0.2741  0.5834  0.3586
 1845TIP3    H126950   1.311   3.594   4.733  0.4167 -0.1392  0.9095
 1845TIP3    H226951   1.236   3.700   4.811 -1.7205  0.2251 -1.5221
 1846TIP3   OH226952   2.706   0.930  14.972  0.0083 -0.4273  0.2100
 1846TIP3    H126953   2.658   0.977  14.904  0.1085 -1.5563 -0.6673
 1846TIP3    H226954   2.658   0.848  14.983 -0.5491  0.0936  2.1840
 1847TIP3   OH226955   2.410   4.316   4.391  0.0673  0.1011  0.0142
 1847TIP3    H126956   2.367   4.401   4.402 -0.7875 -0.5031  1.5424
 1847TIP3    H226957   2.498   4.338   4.363  0.0800  1.5423  1.0661
 1848TIP3   OH226958   1.930   5.625  16.281 -0.4675 -0.3197 -0.4953
 1848TIP3    H126959   1.871   5.573  16.227 -1.1004  0.1385 -0.2549
 1848TIP3    H226960   2.017   5.609  16.244 -0.7525 -0.9244 -0.9129
 1849TIP3   OH226961   6.708   1.711   3.581 -0.0376 -0.1937 -0.4075
 1849TIP3    H126962   6.623   1.678   3.551  0.3697 -0.7668 -0.9562
 1849TIP3    H226963   6.764   1.706   3.504  0.1160  1.6194 -0.4691
 1850TIP3   OH226964   2.747   5.628  10.986  0.1452 -0.3287 -0.4385
 1850TIP3    H126965   2.829   5.646  10.939 -0.6391 -0.1332 -1.7551
 1850TIP3    H226966   2.685   5.692  10.952 -0.1306  0.7396  1.8586
 1851TIP3   OH226967   4.252   2.763  16.595  0.1363 -0.2771 -0.1610
 1851TIP3    H126968   4.309   2.836  16.618 -1.1729  0.1140  1.9987
 1851TIP3    H226969   4.304   2.685  16.617  0.3245  0.0534  0.5998
 1852TIP3   OH226970   2.804   6.538   2.578 -0.3776  0.0404 -0.4162
 1852TIP3    H126971   2.792   6.598   2.652 -0.2215  0.3555 -0.6428
 1852TIP3    H226972   2.821   6.596   2.504  0.8388 -0.3039 -0.4373
 1853TIP3   OH226973   6.382   6.512  14.148  0.2744 -0.6324  0.1980
 1853TIP3    H126974   6.438   6.476  14.080 -0.4337 -1.3049 -0.0341
 1853TIP3    H226975   6.294   6.483  14.126 -0.0371 -0.4367  1.1197
 1854TIP3   OH226976   3.088   1.215  14.331  0.5653 -0.2772  0.8340
 1854TIP3    H126977   3.001   1.206  14.292  0.4930  0.5171  0.7921
 1854TIP3    H226978   3.130   1.130  14.316  0.4956 -0.0446 -0.8882
 1855TIP3   OH226979   5.976   6.577  11.122 -0.0902  0.2067  0.0174
 1855TIP3    H126980   5.956   6.526  11.044 -0.1488  0.5963 -0.2209
 1855TIP3    H226981   5.946   6.665  11.103 -1.7722 -0.0726  1.1725
 1856TIP3   OH226982   0.651   3.914   5.993  0.4406 -0.4068 -0.5925
 1856TIP3    H126983   0.741   3.943   5.981  1.0080 -1.5756  0.5720
 1856TIP3    H226984   0.648   3.828   5.952  0.3905 -1.1680  0.9290
 1857TIP3   OH226985   0.597   1.494  13.192  0.2234 -0.2808 -0.1645
 1857TIP3    H126986   0.633   1.575  13.229  0.6090  0.0115 -1.1535
 1857TIP3    H226987   0.527   1.523  13.134 -0.2977 -0.7308  0.2231
 1858TIP3   OH226988   1.779   0.697  11.991 -0.0272 -0.2819 -0.0164
 1858TIP3    H126989   1.872   0.688  12.013 -0.0443 -1.4528 -0.3650
 1858TIP3    H226990   1.754   0.612  11.957 -1.0581  0.2430 -0.6181
 1859TIP3   OH226991   4.086   1.832   1.348  0.1412  0.6172 -0.1514
 1859TIP3    H126992   4.084   1.862   1.257 -0.4571  0.2376 -0.2652
 1859TIP3    H226993   4.073   1.737   1.343  0.4955  0.5373  0.3093
 1860TIP3   OH226994   6.012   5.408  17.199 -0.1370  0.1879 -0.3013
 1860TIP3    H126995   6.019   5.318  17.233 -0.9803  0.6680  1.2634
 1860TIP3    H226996   6.054   5.405  17.113  1.8098 -1.2097  0.6216
 1861TIP3   OH226997   0.660   4.805  10.287  0.1939  0.4129 -0.1839
 1861TIP3    H126998   0.564   4.801  10.286  0.1639 -0.4428 -3.0472
 1861TIP3    H226999   0.688   4.715  10.272  1.4250  0.7348  0.1234
 1862TIP3   OH227000   2.473   1.354  12.164 -0.2520 -0.0030  0.8678
 1862TIP3    H127001   2.397   1.411  12.153  0.1071  0.6083  1.4725
 1862TIP3    H227002   2.545   1.402  12.121 -0.1891 -0.5334  0.3777
 1863TIP3   OH227003   0.333   2.290  16.593 -0.6797  0.0643  0.0189
 1863TIP3    H127004   0.310   2.306  16.685 -0.2867 -0.6068  0.2417
 1863TIP3    H227005   0.372   2.372  16.564 -0.4460  0.1566  0.5725
 1864TIP3   OH227006   5.171   5.276  11.223 -0.3290  0.1282 -0.2662
 1864TIP3    H127007   5.094   5.315  11.264 -0.9304  0.2179 -1.4511
 1864TIP3    H227008   5.222   5.242  11.297 -0.5476  1.7516  0.6790
 1865TIP3   OH227009   2.416   6.496  16.482  0.2388 -0.0204  0.0204
 1865TIP3    H127010   2.469   6.484  16.561  0.1073 -0.1961  0.0828
 1865TIP3    H227011   2.369   6.578  16.497  1.8649  1.1018 -0.8121
 1866TIP3   OH227012   5.665   5.323   5.300  0.3107  0.0820 -0.1377
 1866TIP3    H127013   5.715   5.355   5.225  1.0775 -3.1626 -1.2190
 1866TIP3    H227014   5.575   5.320   5.270  0.2757  0.9391 -0.1148
 1867TIP3   OH227015   5.721   1.243  12.811 -0.0030 -0.3802 -0.1741
 1867TIP3    H127016   5.685   1.286  12.733 -0.1122 -0.8853 -0.4063
 1867TIP3    H227017   5.718   1.150  12.790  1.1317 -0.4573 -0.0719
 1868TIP3   OH227018   4.554   4.276   4.135  0.0943  0.4447 -0.0440
 1868TIP3    H127019   4.471   4.236   4.162  0.4646 -0.6662 -0.4953
 1868TIP3    H227020   4.535   4.370   4.131 -1.0433  0.2399  0.2120
 1869TIP3   OH227021   6.718   5.255   4.156 -0.5436 -0.2967 -1.1937
 1869TIP3    H127022   6.741   5.215   4.240 -0.9320 -0.2002 -1.0385
 1869TIP3    H227023   6.783   5.324   4.144  1.4840 -2.2751 -2.4771
 1870TIP3   OH227024   5.322   2.465  16.736 -0.1534 -0.0360 -0.3124
 1870TIP3    H127025   5.280   2.548  16.759 -1.0464  0.2472 -2.6481
 1870TIP3    H227026   5.412   2.489  16.713 -0.6260  0.4605 -1.7458
 1871TIP3   OH227027   1.494   0.449   1.464  0.1721 -0.0645  0.3062
 1871TIP3    H127028   1.516   0.357   1.478 -0.4020 -0.5194 -1.5523
 1871TIP3    H227029   1.406   0.458   1.500 -0.1791 -0.5114 -0.4237
 1872TIP3   OH227030   2.730   4.246   0.945  0.3697 -0.0873  0.1148
 1872TIP3    H127031   2.649   4.278   0.986  0.5631 -0.1494  0.5487
 1872TIP3    H227032   2.699   4.191   0.872 -0.0131 -0.9732  0.9173
 1873TIP3   OH227033   0.970   2.445   3.383 -0.1443 -0.3486 -0.3579
 1873TIP3    H127034   1.016   2.472   3.462 -0.9646 -0.4358  0.1659
 1873TIP3    H227035   0.877   2.453   3.406 -0.4546 -2.7682 -0.4199
 1874TIP3   OH227036   4.023   2.622  11.424  0.2725  0.0797 -0.2920
 1874TIP3    H127037   4.077   2.699  11.410  0.6981 -0.3691 -1.2171
 1874TIP3    H227038   4.002   2.591  11.335 -0.6138 -0.3667  0.0598
 1875TIP3   OH227039   3.949   1.257   4.266  0.0487  0.3479  0.1858
 1875TIP3    H127040   3.985   1.208   4.339 -0.7189 -2.1007 -0.9809
 1875TIP3    H227041   4.018   1.257   4.200  0.0944  1.0194  0.2171
 1876TIP3   OH227042   0.855   1.505  11.349  0.2540  0.5396 -0.7593
 1876TIP3    H127043   0.917   1.568  11.386 -1.2024  2.2323 -1.0890
 1876TIP3    H227044   0.812   1.465  11.425  1.2582 -0.1782 -0.5499
 1877TIP3   OH227045   1.541   1.524  15.748  0.0833  0.2646 -0.3979
 1877TIP3    H127046   1.567   1.580  15.675 -1.8577  1.3151 -0.3196
 1877TIP3    H227047   1.543   1.435  15.711 -1.9874  0.8636 -2.1155
 1878TIP3   OH227048   2.465   0.674  13.012  0.0285  0.2379  0.2863
 1878TIP3    H127049   2.460   0.711  13.101  1.9279  2.2214 -0.3282
 1878TIP3    H227050   2.536   0.611  13.016 -0.0064  0.1946  0.2265
 1879TIP3   OH227051   5.018   2.634  16.095  0.3552  0.2719 -0.0157
 1879TIP3    H127052   5.055   2.547  16.112 -1.0010 -0.4959 -0.8177
 1879TIP3    H227053   4.943   2.640  16.153 -0.4721  0.2565 -1.0547
 1880TIP3   OH227054   0.041   5.905  12.818  0.4324  0.5668  0.5013
 1880TIP3    H127055   0.133   5.898  12.790 -0.2209 -0.4544 -1.5815
 1880TIP3    H227056   0.008   5.982  12.773 -0.2024 -0.1252 -0.2410
 1881TIP3   OH227057   1.516   0.078  14.628  0.6261 -0.8295 -0.0154
 1881TIP3    H127058   1.513   0.058  14.535 -1.0067  1.6472 -0.6036
 1881TIP3    H227059   1.608   0.069  14.653  1.8018  1.8640 -2.7644
 1882TIP3   OH227060   6.496   1.530   1.476 -0.2604 -0.0640  0.2963
 1882TIP3    H127061   6.526   1.440   1.483 -0.2275 -0.0496  0.3386
 1882TIP3    H227062   6.573   1.583   1.498 -0.4249 -0.0320  0.8074
 1883TIP3   OH227063   1.599   1.304  15.602  0.4576 -0.2942 -0.8240
 1883TIP3    H127064   1.669   1.294  15.666  0.5230 -1.1200 -1.0069
 1883TIP3    H227065   1.553   1.220  15.604 -0.3552  0.1435 -0.9099
 1884TIP3   OH227066   5.544   5.697   1.358  0.4383 -0.5015 -0.4263
 1884TIP3    H127067   5.515   5.728   1.444  0.1032 -1.0407 -0.3413
 1884TIP3    H227068   5.581   5.610   1.375  0.9671 -0.3379 -0.7276
 1885TIP3   OH227069   5.120   1.512  11.470  0.3087 -0.0129  0.0673
 1885TIP3    H127070   5.053   1.518  11.402 -0.5519  0.1018  0.8957
 1885TIP3    H227071   5.120   1.420  11.497  1.4714 -0.3143 -0.8637
 1886TIP3   OH227072   2.365   2.872   3.377  0.1075 -0.0689  0.2373
 1886TIP3    H127073   2.317   2.790   3.387  2.8314 -1.6812  1.4357
 1886TIP3    H227074   2.447   2.846   3.333  0.9802  2.0264  0.5285
 1887TIP3   OH227075   5.583   2.954  10.461  0.1415  0.3891  0.4442
 1887TIP3    H127076   5.556   2.935  10.551  0.2685  1.0881  0.6355
 1887TIP3    H227077   5.510   3.006  10.426  0.3461  0.5936  0.3243
 1888TIP3   OH227078   0.566   5.461   6.114  0.5699 -0.0813 -0.1313
 1888TIP3    H127079   0.641   5.486   6.060  1.0134 -0.3075  0.3625
 1888TIP3    H227080   0.602   5.398   6.176 -0.1829 -0.7253 -0.3338
 1889TIP3   OH227081   5.388   3.113  11.002 -0.0313  0.6062 -0.4214
 1889TIP3    H127082   5.470   3.080  10.965 -0.3329 -0.0500 -0.5046
 1889TIP3    H227083   5.320   3.068  10.953 -0.4844 -2.1549  2.4787
 1890TIP3   OH227084   4.226   5.535  16.878  0.0682 -0.0428 -0.4910
 1890TIP3    H127085   4.277   5.612  16.854 -1.2667  1.2650  0.7012
 1890TIP3    H227086   4.170   5.519  16.802 -1.4437  1.7701  0.1532
 1891TIP3   OH227087   2.278   3.373   6.216 -0.0766 -0.0671  0.2452
 1891TIP3    H127088   2.184   3.368   6.232 -0.0555 -1.0888  0.1297
 1891TIP3    H227089   2.297   3.467   6.214 -1.2403  0.1773 -0.6073
 1892TIP3   OH227090   3.174   6.358   0.867 -0.4155  0.1079  0.4420
 1892TIP3    H127091   3.211   6.273   0.845  1.8694  0.1353  3.4661
 1892TIP3    H227092   3.085   6.339   0.896 -0.5592 -0.9617 -0.6502
 1893TIP3   OH227093   2.946   0.838   1.446 -0.5884  0.0814 -0.4364
 1893TIP3    H127094   2.882   0.865   1.380 -0.7065  0.3628 -0.2063
 1893TIP3    H227095   2.938   0.903   1.516 -0.4192 -0.1801 -0.1721
 1894TIP3   OH227096   4.175   3.003  17.315  0.3346  1.7103 -0.2964
 1894TIP3    H127097   4.126   2.949  17.253  2.3243  0.1907 -0.6744
 1894TIP3    H227098   4.117   3.014  17.390 -0.5269 -0.1516 -0.6432
 1895TIP3   OH227099   1.695   5.426  12.301  0.5280  0.1896  0.3838
 1895TIP3    H127100   1.687   5.436  12.396 -0.7772 -1.1158  0.4457
 1895TIP3    H227101   1.640   5.497  12.265 -1.9325 -1.4284  0.7015
 1896TIP3   OH227102   4.566   2.330  13.871  0.3705  0.1214 -0.1812
 1896TIP3    H127103   4.562   2.237  13.850  0.1459  0.1042 -0.0664
 1896TIP3    H227104   4.503   2.371  13.813  0.9450  0.2905 -0.6937
 1897TIP3   OH227105   3.175   5.468  16.624 -0.1167  0.1030 -0.5503
 1897TIP3    H127106   3.133   5.441  16.706  1.7424  0.6016  0.6261
 1897TIP3    H227107   3.184   5.563  16.632  1.3708 -0.0063 -0.6523
 1898TIP3   OH227108   2.044   4.352   4.078  0.1546 -1.0227 -0.3783
 1898TIP3    H127109   1.988   4.358   4.001 -0.5421 -1.4271  0.0955
 1898TIP3    H227110   2.066   4.443   4.098 -0.6403 -0.8321 -0.3419
 1899TIP3   OH227111   1.670   1.115   5.270 -0.8175  0.0745 -0.3016
 1899TIP3    H127112   1.656   1.142   5.179 -0.6368  1.9765  0.2047
 1899TIP3    H227113   1.759   1.080   5.272 -0.9807 -0.3906 -0.9370
 1900TIP3   OH227114   2.421   0.878   0.045 -0.1431  0.2039  0.1521
 1900TIP3    H127115   2.420   0.958  -0.008  2.1391  0.4033  0.3283
 1900TIP3    H227116   2.335   0.838   0.029  0.3851  0.2434 -3.7595
 1901TIP3   OH227117   1.735   1.912   3.008  0.7557 -0.7211 -0.1353
 1901TIP3    H127118   1.780   1.829   2.996 -0.9660 -1.7013 -0.1300
 1901TIP3    H227119   1.673   1.917   2.936  0.1545  0.0954  0.4146
 1902TIP3   OH227120   0.889   1.950   4.182  0.5376 -0.1402 -0.3860
 1902TIP3    H127121   0.948   2.024   4.173  0.8527 -0.3991 -0.4964
 1902TIP3    H227122   0.947   1.874   4.189  0.2310 -0.3360  0.1142
 1903TIP3   OH227123   5.617   1.427  14.898 -0.3019 -0.8096  0.1209
 1903TIP3    H127124   5.646   1.477  14.822 -1.3160  0.4613  0.5304
 1903TIP3    H227125   5.578   1.347  14.862  0.0074 -0.6249 -0.6319
 1904TIP3   OH227126   5.756   4.100   1.013  0.4067 -0.4861 -0.1370
 1904TIP3    H127127   5.670   4.074   1.046  0.2088  1.7068  1.2767
 1904TIP3    H227128   5.807   4.120   1.091  0.6085  2.8685 -0.9975
 1905TIP3   OH227129   6.738   1.268  16.027  0.5576  0.1774  0.0888
 1905TIP3    H127130   6.677   1.267  15.953 -0.6266  0.6680  1.0161
 1905TIP3    H227131   6.705   1.199  16.085 -0.9557  2.3690  1.9854
 1906TIP3   OH227132   4.932   4.769  13.356 -0.9477 -0.9982 -0.3647
 1906TIP3    H127133   4.947   4.844  13.300 -1.6311  0.5778  1.4551
 1906TIP3    H227134   5.014   4.720  13.354  0.1151  0.7185 -0.2446
 1907TIP3   OH227135   1.665   5.478   5.355  0.2671  0.0390  0.2863
 1907TIP3    H127136   1.698   5.449   5.440 -1.8890 -1.5691  0.6506
 1907TIP3    H227137   1.614   5.404   5.322 -0.7524  1.4191 -1.4114
 1908TIP3   OH227138   3.597   6.677  15.099  0.4604  0.2434 -0.1262
 1908TIP3    H127139   3.688   6.706  15.111  0.0726  1.4215  0.0361
 1908TIP3    H227140   3.598   6.631  15.015  0.9432  1.3838 -0.7695
 1909TIP3   OH227141   2.085   1.150  11.773  0.2316 -0.4202 -0.0443
 1909TIP3    H127142   2.005   1.129  11.726 -0.2965 -0.5785  0.8961
 1909TIP3    H227143   2.142   1.075  11.760 -0.0359 -0.6021 -0.1692
 1910TIP3   OH227144   5.347   0.387   2.991  0.0704  0.1321 -0.8272
 1910TIP3    H127145   5.438   0.382   3.021 -0.2785 -1.8828  0.0155
 1910TIP3    H227146   5.353   0.377   2.896  0.7631  0.6309 -0.8425
 1911TIP3   OH227147   2.275   5.525  12.886 -0.2189  0.3085 -0.4026
 1911TIP3    H127148   2.290   5.620  12.880  1.2262  0.0595 -1.5716
 1911TIP3    H227149   2.209   5.508  12.819 -1.5400  0.6509  0.7753
 1912TIP3   OH227150   6.382   0.996  15.952 -0.0856 -0.1930  0.2874
 1912TIP3    H127151   6.458   0.943  15.978 -0.4988 -1.1158 -0.3291
 1912TIP3    H227152   6.368   1.055  16.026  0.4060 -0.9360  1.0016
 1913TIP3   OH227153   0.366   5.878  11.449 -0.6287  0.0788 -0.2357
 1913TIP3    H127154   0.398   5.821  11.379 -0.7029 -0.9096  0.5157
 1913TIP3    H227155   0.310   5.822  11.502  0.3182  0.4788  1.2742
 1914TIP3   OH227156   2.546   0.857  11.974 -0.0414  0.2317 -0.3940
 1914TIP3    H127157   2.615   0.824  11.916 -0.8469 -0.2758 -1.0871
 1914TIP3    H227158   2.545   0.952  11.960  0.5154  0.2415 -0.3709
 1915TIP3   OH227159   1.989   0.766  14.586 -0.6304  0.6702  0.0971
 1915TIP3    H127160   2.037   0.839  14.548  1.2734 -0.3532  0.3942
 1915TIP3    H227161   1.900   0.774  14.551 -0.3389  2.7978 -0.2665
 1916TIP3   OH227162   3.654   1.641   4.731  0.0144 -0.0878  0.3223
 1916TIP3    H127163   3.573   1.643   4.782 -0.1413  0.3330  0.0592
 1916TIP3    H227164   3.627   1.656   4.641  0.4816  1.0156  0.3505
 1917TIP3   OH227165   4.231   1.139  13.750 -0.3186 -0.0191  0.0756
 1917TIP3    H127166   4.172   1.214  13.756  0.4242  0.5935 -0.1085
 1917TIP3    H227167   4.175   1.063  13.764 -1.5077  0.4066 -1.9541
 1918TIP3   OH227168   1.993   5.346  11.522 -0.8575 -0.5999 -0.0488
 1918TIP3    H127169   2.052   5.364  11.595 -2.7614 -0.4896  1.5425
 1918TIP3    H227170   2.049   5.308  11.455  1.3680  1.3466  0.5815
 1919TIP3   OH227171   3.057   1.399  12.281 -0.1995  0.5442 -0.1032
 1919TIP3    H127172   3.149   1.407  12.254 -0.7523  2.6939 -1.6063
 1919TIP3    H227173   3.059   1.415  12.376  1.1029 -0.8342  0.1392
 1920TIP3   OH227174   0.844   1.419  15.624  0.3222 -0.2655  0.6391
 1920TIP3    H127175   0.861   1.465  15.542 -1.5595  0.6160  0.6994
 1920TIP3    H227176   0.857   1.326  15.602 -1.5097 -0.1906 -1.0902
 1921TIP3   OH227177   5.635   1.153  12.385 -0.6880  0.1270  0.3957
 1921TIP3    H127178   5.640   1.058  12.371 -0.1942  0.2744 -0.5149
 1921TIP3    H227179   5.613   1.189  12.299 -3.1549  0.6994  1.1846
 1922TIP3   OH227180   6.135   4.047   3.973 -0.1821  0.7610 -0.0233
 1922TIP3    H127181   6.094   4.129   4.000  0.6783  0.4680  2.4402
 1922TIP3    H227182   6.137   3.994   4.052  2.6002 -0.1971 -0.6070
 1923TIP3   OH227183   1.459   1.519   3.493 -0.2835  0.6520  0.2135
 1923TIP3    H127184   1.546   1.480   3.498 -1.2143 -1.4345  1.3025
 1923TIP3    H227185   1.450   1.546   3.402  1.3022  0.5117 -0.0194
 1924TIP3   OH227186   5.678   2.302   1.677  0.3489  0.1906  0.1527
 1924TIP3    H127187   5.752   2.352   1.641 -1.0513  1.3048 -1.3831
 1924TIP3    H227188   5.619   2.370   1.711 -0.6560 -0.5704 -0.0536
 1925TIP3   OH227189   5.809   4.646   3.364  0.0396  0.6475 -0.4328
 1925TIP3    H127190   5.849   4.676   3.445  1.3471 -2.2283  0.1353
 1925TIP3    H227191   5.848   4.700   3.295  1.1621  1.1669  0.5842
 1926TIP3   OH227192   6.259   6.501  11.576  0.7125  0.1692 -0.1437
 1926TIP3    H127193   6.196   6.489  11.505 -0.8479 -0.2466  1.2326
 1926TIP3    H227194   6.217   6.462  11.652  2.0244  1.1861  1.1761
 1927TIP3   OH227195   4.529   4.049  15.983 -0.1326  0.1310 -0.3727
 1927TIP3    H127196   4.578   4.076  16.060  0.8924 -2.3851 -0.0467
 1927TIP3    H227197   4.546   4.117  15.918  3.0767 -0.1531  0.0261
 1928TIP3   OH227198   1.685   2.656  12.013 -0.1780  0.2122 -0.1067
 1928TIP3    H127199   1.670   2.575  11.965  0.3171 -1.0258  1.7152
 1928TIP3    H227200   1.753   2.634  12.076 -1.8980  1.2448  2.2592
 1929TIP3   OH227201   5.136   2.191  16.889  0.2198 -0.0370  0.5965
 1929TIP3    H127202   5.089   2.229  16.814  0.0009 -1.6990 -0.1632
 1929TIP3    H227203   5.103   2.239  16.965 -3.5097 -1.6644  0.2487
 1930TIP3   OH227204   3.969   2.635  15.582 -0.5883 -0.6946  0.3952
 1930TIP3    H127205   3.903   2.690  15.624 -1.2417 -2.0969  1.3102
 1930TIP3    H227206   3.975   2.558  15.640  1.7731 -0.6545  0.2857
 1931TIP3   OH227207   3.727   0.041  11.008 -0.6276  0.0724  0.9869
 1931TIP3    H127208   3.715  -0.050  11.034  0.7548  0.1586  2.0320
 1931TIP3    H227209   3.657   0.057  10.944 -1.4449 -1.4376  1.4544
 1932TIP3   OH227210   4.883   5.747  16.959  0.1125  0.8418 -0.1967
 1932TIP3    H127211   4.862   5.788  17.043  1.6487  0.1228  0.5775
 1932TIP3    H227212   4.800   5.746  16.912 -1.1676 -0.1200  1.9132
 1933TIP3   OH227213   6.654   1.997  15.694 -0.3025 -0.0233 -0.1037
 1933TIP3    H127214   6.714   1.973  15.765 -1.1323 -3.9672 -0.5209
 1933TIP3    H227215   6.570   2.012  15.738  0.1186  2.0397  0.1069
 1934TIP3   OH227216   1.694   3.281   5.551 -0.2685 -0.3331 -0.4193
 1934TIP3    H127217   1.788   3.289   5.570 -0.0481 -0.0771 -1.5827
 1934TIP3    H227218   1.658   3.238   5.629  0.3969  1.7454  1.1588
 1935TIP3   OH227219   3.043   6.388   3.671 -0.6126 -0.5031 -0.8873
 1935TIP3    H127220   3.114   6.427   3.621  1.0419 -3.0979 -0.7177
 1935TIP3    H227221   2.986   6.348   3.606 -1.5033  0.8156 -0.9623
 1936TIP3   OH227222   4.751   4.463   5.243  0.2856  0.2341 -0.6011
 1936TIP3    H127223   4.822   4.400   5.231 -0.1259 -0.6145  1.0264
 1936TIP3    H227224   4.671   4.410   5.241 -0.1906  0.9491 -0.8627
 1937TIP3   OH227225   5.990   2.622  10.624  0.1305 -0.0802 -0.1972
 1937TIP3    H127226   5.906   2.664  10.605 -0.5789  1.0675  4.3038
 1937TIP3    H227227   6.055   2.691  10.611  0.0585 -0.1819 -1.1231
 1938TIP3   OH227228   6.032   1.825  16.175  0.2245 -0.2752  0.1089
 1938TIP3    H127229   6.028   1.792  16.085 -0.5021  1.2619 -0.4383
 1938TIP3    H227230   6.079   1.908  16.169 -0.7342  0.3558  0.9977
 1939TIP3   OH227231   0.996   1.684   3.397  0.0597 -0.3469  0.4869
 1939TIP3    H127232   1.042   1.642   3.324  1.6215  0.8347  0.7335
 1939TIP3    H227233   1.058   1.749   3.430 -0.4230 -1.1484  3.1662
 1940TIP3   OH227234   6.761   5.558   2.821 -0.0889 -0.0430  0.3778
 1940TIP3    H127235   6.817   5.491   2.783 -0.3366  0.8114 -1.6540
 1940TIP3    H227236   6.822   5.618   2.864  0.6710  0.8258 -1.7248
 1941TIP3   OH227237   4.272   5.618   1.806 -0.6849  0.0778 -0.8375
 1941TIP3    H127238   4.268   5.539   1.752  1.3545  0.5551 -1.8063
 1941TIP3    H227239   4.333   5.596   1.877 -1.7574  0.1166  0.1147
 1942TIP3   OH227240   1.661   3.092  11.336  0.3668  0.2463 -0.0234
 1942TIP3    H127241   1.596   3.030  11.369 -0.0683  0.7990  0.1736
 1942TIP3    H227242   1.733   3.037  11.304 -0.2596 -0.3793 -0.3893
 1943TIP3   OH227243   2.201   1.914  16.804 -0.0364 -0.1042  0.2413
 1943TIP3    H127244   2.149   1.994  16.814 -2.3186 -1.3323 -1.0660
 1943TIP3    H227245   2.290   1.941  16.826 -0.7831  2.7068  0.2014
 1944TIP3   OH227246   6.619   6.475   5.798 -0.3816 -0.2557  0.3672
 1944TIP3    H127247   6.614   6.380   5.808 -2.1599 -0.1413  0.8464
 1944TIP3    H227248   6.618   6.509   5.887 -2.8410  0.2928  0.1893
 1945TIP3   OH227249   4.623   1.464   1.555  0.6140  0.1312 -0.1558
 1945TIP3    H127250   4.580   1.466   1.640  0.2734 -2.8013 -0.1354
 1945TIP3    H227251   4.713   1.436   1.573  0.2070 -1.7458 -0.7665
 1946TIP3   OH227252   2.404   0.033  14.505 -0.2747  0.0236  0.3618
 1946TIP3    H127253   2.346  -0.036  14.473 -1.0486  0.9977 -0.3980
 1946TIP3    H227254   2.428   0.082  14.426  0.7520  0.2679  0.8102
 1947TIP3   OH227255   2.969   0.918  13.891 -0.1523 -0.2438  0.3197
 1947TIP3    H127256   2.899   0.856  13.870 -0.9767  1.2697 -1.7653
 1947TIP3    H227257   3.047   0.864  13.899 -0.9995 -1.6609 -0.5623
 1948TIP3   OH227258   0.669   6.454  16.689 -0.1345  0.1724  0.1946
 1948TIP3    H127259   0.676   6.532  16.634 -0.9852  1.6076  2.0366
 1948TIP3    H227260   0.586   6.414  16.664 -0.4434  0.7283  0.3213
 1949TIP3   OH227261   1.161   2.504   0.562  0.0688  0.3241 -0.0447
 1949TIP3    H127262   1.184   2.573   0.500  0.2086 -0.5066 -0.9373
 1949TIP3    H227263   1.086   2.539   0.610  0.6469  1.4221  0.0981
 1950TIP3   OH227264   6.424   4.924  11.730  0.8307  0.7049 -0.5342
 1950TIP3    H127265   6.497   4.862  11.733 -0.3546 -0.8414 -1.9877
 1950TIP3    H227266   6.346   4.869  11.728 -0.5529  2.3113  2.6183
 1951TIP3   OH227267   1.205   5.198  12.239 -0.1392  0.3418  0.3199
 1951TIP3    H127268   1.283   5.233  12.282 -0.3208  0.1724  0.7975
 1951TIP3    H227269   1.179   5.124  12.294 -0.9256  0.7085  0.4415
 1952TIP3   OH227270   4.002   1.125  15.110 -0.4761 -0.0444 -0.4888
 1952TIP3    H127271   3.997   1.168  15.196 -2.0481  0.1075 -0.6329
 1952TIP3    H227272   3.948   1.180  15.053 -0.7440 -1.0165 -1.1937
 1953TIP3   OH227273   1.994   1.353   6.279  0.1929  0.8040 -0.0363
 1953TIP3    H127274   2.060   1.384   6.341  0.4103 -0.1574  0.2267
 1953TIP3    H227275   2.043   1.336   6.198  0.2095  0.4275  0.0519
 1954TIP3   OH227276   3.300   4.019   4.888 -0.2931 -0.6350  0.0293
 1954TIP3    H127277   3.262   4.008   4.975 -0.0515  1.1160  0.3988
 1954TIP3    H227278   3.238   4.077   4.843  0.7262  0.3485 -0.1499
 1955TIP3   OH227279   5.801   5.615  16.532  0.2068  0.2540 -0.3166
 1955TIP3    H127280   5.746   5.677  16.580 -1.7813 -1.0974 -0.7230
 1955TIP3    H227281   5.877   5.602  16.589 -0.5445  1.1333  0.9488
 1956TIP3   OH227282   4.115   0.123   0.341 -0.1535 -0.6097  0.1001
 1956TIP3    H127283   4.083   0.189   0.279 -1.0506 -2.3585 -1.4189
 1956TIP3    H227284   4.045   0.057   0.344  0.3693 -1.1574  2.1268
 1957TIP3   OH227285   3.650   0.353  12.032  0.2433 -0.1082  0.2330
 1957TIP3    H127286   3.574   0.343  11.974 -0.7681  1.1604  1.2734
 1957TIP3    H227287   3.723   0.372  11.973 -0.3952 -0.5510 -0.7336
 1958TIP3   OH227288   4.014   2.254   2.759  0.2003  0.4457  0.5026
 1958TIP3    H127289   3.950   2.196   2.717 -0.1115  1.2446 -0.1434
 1958TIP3    H227290   4.010   2.335   2.708  1.3307  0.7028  0.7947
 1959TIP3   OH227291   1.391   2.151  15.002  0.5022  0.4952  0.6625
 1959TIP3    H127292   1.469   2.207  14.994  0.2417  0.7585 -0.0249
 1959TIP3    H227293   1.410   2.075  14.948  0.6784  0.0992  1.2650
 1960TIP3   OH227294   4.067   1.114   5.516 -0.4616  0.4011  0.9232
 1960TIP3    H127295   4.152   1.119   5.472 -0.9171  0.0386 -0.0236
 1960TIP3    H227296   4.043   1.205   5.535 -0.9046  0.6947 -0.8750
 1961TIP3   OH227297   1.613   4.318  17.004  0.5420 -0.4297 -0.0514
 1961TIP3    H127298   1.680   4.287  17.065  1.3519 -0.1629 -0.8039
 1961TIP3    H227299   1.577   4.237  16.966  0.1350 -0.5907  0.6532
 1962TIP3   OH227300   4.712   4.394  14.773  0.1257 -0.3066 -0.2079
 1962TIP3    H127301   4.748   4.306  14.784  1.2607  0.3458  1.7561
 1962TIP3    H227302   4.623   4.379  14.740 -0.3180 -2.2705  1.6579
 1963TIP3   OH227303   3.526   0.772   0.793  0.2037  0.6191  0.0615
 1963TIP3    H127304   3.457   0.784   0.727  0.2944 -0.4834 -0.2548
 1963TIP3    H227305   3.602   0.819   0.758  0.6400 -0.9886 -1.2711
 1964TIP3   OH227306   5.598   0.775   4.795  0.3136 -0.2883  0.5457
 1964TIP3    H127307   5.547   0.752   4.873  0.5755 -2.5548  0.1212
 1964TIP3    H227308   5.532   0.796   4.729  0.0818  1.2423  1.2177
 1965TIP3   OH227309   3.396   6.714   2.778  0.5455 -0.6328  0.4569
 1965TIP3    H127310   3.416   6.790   2.723  0.3868  0.4184  1.8114
 1965TIP3    H227311   3.335   6.662   2.725  1.1841 -0.1894 -0.7679
 1966TIP3   OH227312   5.466   6.062  16.107 -0.2519  0.0616 -0.0394
 1966TIP3    H127313   5.383   6.089  16.147  0.7378 -0.1514  2.2859
 1966TIP3    H227314   5.522   6.037  16.180  1.1268 -2.0603 -1.6727
 1967TIP3   OH227315   0.160   2.258   2.973 -0.1812 -0.6921  0.0667
 1967TIP3    H127316   0.166   2.309   2.892  0.9210 -0.1001  0.5000
 1967TIP3    H227317   0.222   2.301   3.033 -1.1340 -0.9841  1.2965
 1968TIP3   OH227318   1.028   0.948  13.978 -0.5989 -0.3015  0.3281
 1968TIP3    H127319   1.029   0.973  13.886 -1.4181  0.7096  0.5696
 1968TIP3    H227320   1.098   1.001  14.018  0.2659 -1.2920  0.1776
 1969TIP3   OH227321   3.329   3.721   3.974  0.3597 -0.2562 -0.2179
 1969TIP3    H127322   3.374   3.637   3.967 -0.5103 -0.8414  0.9457
 1969TIP3    H227323   3.374   3.766   4.045 -0.7921 -0.8168  0.9057
 1970TIP3   OH227324   1.227   6.204   2.036  0.2691 -0.1703 -0.0753
 1970TIP3    H127325   1.319   6.231   2.038 -0.0498  0.9498  0.0054
 1970TIP3    H227326   1.206   6.184   2.127  0.4198 -0.3740 -0.0856
 1971TIP3   OH227327   4.812   5.339   6.188  0.4046  0.7715 -0.7987
 1971TIP3    H127328   4.890   5.305   6.231 -0.1244 -2.3408 -2.0791
 1971TIP3    H227329   4.764   5.384   6.258  0.5149 -2.3604  1.4818
 1972TIP3   OH227330   6.747   3.920  13.649  0.0153 -0.2033  0.5770
 1972TIP3    H127331   6.661   3.879  13.656 -0.1989 -0.6629 -2.9789
 1972TIP3    H227332   6.809   3.847  13.652 -0.1147 -0.4760 -1.8072
 1973TIP3   OH227333   4.400   2.599  11.394  0.2637 -0.9557  0.0714
 1973TIP3    H127334   4.335   2.668  11.379  0.1183 -0.9636  0.6535
 1973TIP3    H227335   4.484   2.640  11.369  0.0503 -0.9200 -0.5980
 1974TIP3   OH227336   1.031   3.209  16.317 -0.0078  0.6967  0.4724
 1974TIP3    H127337   1.088   3.135  16.295  0.3191  0.9063  0.5971
 1974TIP3    H227338   0.970   3.173  16.381  1.1242  0.8972  1.7278
 1975TIP3   OH227339   0.831   3.783   6.561  0.2688 -0.5083 -0.5121
 1975TIP3    H127340   0.861   3.698   6.529  0.3830 -0.4020 -0.6897
 1975TIP3    H227341   0.909   3.823   6.600 -0.2792 -1.4381  1.6847
 1976TIP3   OH227342   0.338   2.370   1.533 -0.3526  0.0994 -0.6487
 1976TIP3    H127343   0.326   2.323   1.615 -1.9731  0.0906 -0.8646
 1976TIP3    H227344   0.313   2.460   1.553  0.1121  0.2963 -0.9264
 1977TIP3   OH227345   1.909   1.897   4.653  0.2543  0.1195 -0.2083
 1977TIP3    H127346   1.813   1.892   4.653  0.2479  0.0994  0.6623
 1977TIP3    H227347   1.938   1.806   4.662  0.3265  0.2489  1.0178
 1978TIP3   OH227348   6.041   4.843  15.046  0.7225 -0.1903 -0.6302
 1978TIP3    H127349   6.106   4.788  15.002  0.8883  0.0666 -0.7108
 1978TIP3    H227350   6.094   4.899  15.104  0.6156  0.3960 -1.0989
 1979TIP3   OH227351   3.956   6.564   4.365  0.4647  0.1955  1.2776
 1979TIP3    H127352   3.878   6.510   4.366 -0.0865  0.9383  0.4999
 1979TIP3    H227353   3.954   6.612   4.448  0.2883 -0.0447  1.4119
 1980TIP3   OH227354   5.146   5.898  13.427  0.1377 -0.0852  0.2047
 1980TIP3    H127355   5.159   5.851  13.345  2.1485 -0.7989  0.8720
 1980TIP3    H227356   5.227   5.884  13.476 -0.3834  1.6218  1.6784
 1981TIP3   OH227357   0.315   3.389   5.795 -0.5394  0.6114 -0.0727
 1981TIP3    H127358   0.379   3.337   5.844 -0.2725  1.1632  0.1607
 1981TIP3    H227359   0.258   3.426   5.862 -1.6352 -0.5456 -0.3114
 1982TIP3   OH227360   2.516   5.140  10.583 -0.0968 -0.2710 -0.0829
 1982TIP3    H127361   2.588   5.093  10.540  0.9251 -0.2389  1.5210
 1982TIP3    H227362   2.559   5.212  10.630 -0.8918 -1.3904  2.5134
 1983TIP3   OH227363   2.006   4.595  14.292  0.0731  0.3428 -0.3772
 1983TIP3    H127364   1.942   4.666  14.294 -0.6220 -0.2784  0.0169
 1983TIP3    H227365   2.065   4.614  14.364 -1.1451 -0.3937  0.8629
 1984TIP3   OH227366   1.946   3.961   2.711 -0.4019 -0.8218 -0.1397
 1984TIP3    H127367   1.902   4.036   2.670  0.3768 -0.6891 -0.7581
 1984TIP3    H227368   1.888   3.887   2.692 -1.4241 -0.3254  0.8856
 1985TIP3   OH227369   4.927   5.224   2.509  0.4097 -0.5648 -0.4099
 1985TIP3    H127370   4.898   5.248   2.597  0.9093  0.1950 -0.4457
 1985TIP3    H227371   4.874   5.147   2.487  1.0349 -1.4502  0.9894
 1986TIP3   OH227372   5.453   3.871   5.180 -0.2685 -0.2101 -0.0306
 1986TIP3    H127373   5.519   3.802   5.178 -2.2380 -2.2313  0.2528
 1986TIP3    H227374   5.435   3.884   5.273  0.5604  1.2345 -0.0441
 1987TIP3   OH227375   1.090   5.153   5.826  0.1445  0.6672 -0.9194
 1987TIP3    H127376   1.123   5.069   5.794 -1.5726 -0.4240  0.0318
 1987TIP3    H227377   1.033   5.130   5.899  0.2540  2.7398 -0.1114
 1988TIP3   OH227378   1.079   3.217   4.493  0.0092  0.3607  0.1149
 1988TIP3    H127379   1.002   3.257   4.532  0.2500 -0.4223  1.4350
 1988TIP3    H227380   1.121   3.287   4.443 -0.9840  1.0504  0.2363
 1989TIP3   OH227381   3.376   2.477   2.597  0.1203  0.2705  0.4643
 1989TIP3    H127382   3.466   2.496   2.624  0.5361 -0.8662 -0.0515
 1989TIP3    H227383   3.348   2.555   2.550  0.3174  1.2130  1.8554
 1990TIP3   OH227384   0.638   5.590   5.668  0.6142  0.6078  0.6701
 1990TIP3    H127385   0.710   5.527   5.662  0.2131  0.2062 -0.0657
 1990TIP3    H227386   0.648   5.630   5.755  1.2732  0.0156  0.8753
 1991TIP3   OH227387   4.113   5.142  14.508  0.3063  0.0523  0.1062
 1991TIP3    H127388   4.128   5.047  14.501 -0.0566  0.1172 -3.2994
 1991TIP3    H227389   4.199   5.181  14.490 -0.0762  0.3387 -1.1943
 1992TIP3   OH227390   4.967   3.627   9.984 -0.1002 -0.2547  0.1710
 1992TIP3    H127391   5.052   3.595  10.016 -0.2184 -1.2805 -0.4788
 1992TIP3    H227392   4.962   3.717  10.016  1.7326  0.2186 -0.6947
 1993TIP3   OH227393   1.514   0.421  16.119 -0.3266 -0.7295  0.1803
 1993TIP3    H127394   1.529   0.494  16.178 -1.3243 -0.0593 -0.3770
 1993TIP3    H227395   1.442   0.449  16.062 -0.2650 -1.8644 -0.5007
 1994TIP3   OH227396   1.822   6.378  13.655 -0.1711 -0.1918  0.1180
 1994TIP3    H127397   1.881   6.342  13.721 -1.1536  0.4467  1.3855
 1994TIP3    H227398   1.735   6.363  13.690 -0.7514 -0.3108 -1.3084
 1995TIP3   OH227399   4.316   6.243   6.774 -1.0557 -0.0915  0.2012
 1995TIP3    H127400   4.352   6.154   6.772  0.4818  0.4648  1.1045
 1995TIP3    H227401   4.390   6.298   6.799 -2.5221  1.1533  2.0701
 1996TIP3   OH227402   4.352   2.116  11.982 -0.0749 -0.0614 -0.3687
 1996TIP3    H127403   4.424   2.057  11.958 -2.2423 -2.9322 -0.3356
 1996TIP3    H227404   4.298   2.120  11.903 -0.3394  1.3730 -0.1321
 1997TIP3   OH227405   1.687   4.158   0.713 -0.6389  0.2940  0.0679
 1997TIP3    H127406   1.659   4.176   0.803  1.3531 -0.4386  0.8922
 1997TIP3    H227407   1.616   4.105   0.676 -1.2567  0.1595  1.3758
 1998TIP3   OH227408   0.594   3.035  13.821 -0.4220  0.7208 -0.6059
 1998TIP3    H127409   0.681   3.011  13.787  0.2089  2.0459 -0.0192
 1998TIP3    H227410   0.558   3.093  13.754 -1.6093 -1.1511 -1.6548
 1999TIP3   OH227411   1.596   0.421   4.563  0.0603  0.3717  0.3391
 1999TIP3    H127412   1.626   0.476   4.490  0.8346  0.1340  0.4705
 1999TIP3    H227413   1.674   0.405   4.615 -0.1122 -0.9724  0.2338
 2000TIP3   OH227414   1.662   3.320   3.483 -0.5100 -0.1213  0.5910
 2000TIP3    H127415   1.701   3.232   3.476 -0.9932 -0.3821  1.1179
 2000TIP3    H227416   1.737   3.377   3.499  0.0477 -0.1695 -1.4595
 2001TIP3   OH227417   4.748   1.216  14.154  0.2632 -0.4712  0.2659
 2001TIP3    H127418   4.707   1.176  14.231 -1.2054 -0.5780 -0.5299
 2001TIP3    H227419   4.676   1.230  14.093  1.6644 -2.7433 -2.1508
 2002TIP3   OH227420   5.259   3.282   1.069 -0.4846  0.2605 -0.4125
 2002TIP3    H127421   5.214   3.246   0.993  0.2735  0.6761 -1.0671
 2002TIP3    H227422   5.189   3.295   1.134 -1.0534 -0.5749 -0.8442
 2003TIP3   OH227423   3.295   1.276   1.613 -0.0884  0.3429 -0.4897
 2003TIP3    H127424   3.227   1.261   1.679  0.8184 -1.0659  0.1645
 2003TIP3    H227425   3.364   1.322   1.661 -0.4444  1.5262 -1.0857
 2004TIP3   OH227426   2.551   1.755  12.484 -0.4370  0.9124 -0.3382
 2004TIP3    H127427   2.463   1.739  12.448 -1.2108  0.7334  1.5072
 2004TIP3    H227428   2.596   1.671  12.474 -1.1647  0.4043  0.4646
 2005TIP3   OH227429   3.440   2.248   6.575  0.2804 -0.4082  0.3736
 2005TIP3    H127430   3.358   2.200   6.570  0.1542 -0.0849 -0.8371
 2005TIP3    H227431   3.497   2.206   6.511 -0.2081  1.7299 -1.5859
 2006TIP3   OH227432   6.056   2.386   3.799 -0.1582  0.3441  0.0039
 2006TIP3    H127433   6.025   2.445   3.867  0.5522  1.6521 -0.7853
 2006TIP3    H227434   6.144   2.416   3.779  1.0364 -2.2047  0.9493
 2007TIP3   OH227435   4.795   2.124  16.224 -0.2226 -0.4303 -0.5165
 2007TIP3    H127436   4.732   2.184  16.184  0.9039  1.8724  0.9229
 2007TIP3    H227437   4.742   2.053  16.260 -1.7115  0.1254 -1.5208
 2008TIP3   OH227438   2.652   2.914  16.076  0.2221  0.0709  0.1336
 2008TIP3    H127439   2.641   2.846  16.142 -0.9601 -1.3744 -1.4356
 2008TIP3    H227440   2.666   2.866  15.994  0.7151  1.7532 -0.8234
 2009TIP3   OH227441   0.426   3.678  10.970 -0.6730  0.2529 -0.0556
 2009TIP3    H127442   0.359   3.615  10.999 -0.2431  0.7208  2.1556
 2009TIP3    H227443   0.509   3.633  10.983 -0.4596  0.2043 -1.4130
 2010TIP3   OH227444   6.587   0.636  14.969  0.5234  0.0960  0.4332
 2010TIP3    H127445   6.604   0.727  14.944 -1.4308  0.4277  0.1627
 2010TIP3    H227446   6.670   0.591  14.954  1.7611  1.9609  1.2864
 2011TIP3   OH227447   1.334   6.390  12.897 -0.2756  0.1041  0.0285
 2011TIP3    H127448   1.286   6.384  12.815 -0.7608  1.7705  0.1564
 2011TIP3    H227449   1.424   6.411  12.871 -0.0804 -0.8738 -0.1205
 2012TIP3   OH227450   5.278   4.221  14.004 -0.2512 -0.3217  0.8212
 2012TIP3    H127451   5.324   4.164  13.942 -1.9425 -1.6499  0.7066
 2012TIP3    H227452   5.282   4.308  13.963  3.6495  0.0989  1.7066
 2013TIP3   OH227453   2.697   3.044   0.364 -0.3118  0.1042 -0.0725
 2013TIP3    H127454   2.612   3.048   0.407  0.2915  1.4834  1.0565
 2013TIP3    H227455   2.753   2.998   0.425 -0.0912 -0.3282 -0.5870
 2014TIP3   OH227456   1.919   4.283   4.445 -0.2436 -0.1416  0.5412
 2014TIP3    H127457   1.885   4.198   4.472 -1.1213 -0.1667 -0.5735
 2014TIP3    H227458   1.854   4.316   4.383  0.8447  0.6638 -0.2087
 2015TIP3   OH227459   4.046   1.197  15.375  0.2366  0.2631 -0.3311
 2015TIP3    H127460   4.113   1.265  15.366  1.0615 -0.3145  1.1462
 2015TIP3    H227461   4.049   1.173  15.468 -0.3935 -1.4358 -0.7266
 2016TIP3   OH227462   4.735   0.143  15.165  0.5687 -0.3790  0.0214
 2016TIP3    H127463   4.753   0.210  15.099  2.1442  0.2862  1.0546
 2016TIP3    H227464   4.640   0.129  15.160  0.7303 -0.9811 -2.9117
 2017TIP3   OH227465   3.621   6.098   5.947  0.4215 -0.0577  0.1616
 2017TIP3    H127466   3.571   6.175   5.975 -0.9123 -0.7706 -0.1984
 2017TIP3    H227467   3.712   6.122   5.964 -0.0540  1.0958  1.2852
 2018TIP3   OH227468   0.650   1.858  15.184 -0.6007  0.2445  0.4598
 2018TIP3    H127469   0.626   1.769  15.156  0.0969 -0.1468  1.0744
 2018TIP3    H227470   0.581   1.883  15.246  0.1478 -0.5920  1.6701
 2019TIP3   OH227471   0.580   4.271   3.715  0.5129  0.5428  0.3709
 2019TIP3    H127472   0.584   4.364   3.695  1.6182  0.7675  1.5250
 2019TIP3    H227473   0.582   4.228   3.630  0.0279  1.5574 -0.1748
 2020TIP3   OH227474   5.316   6.422   0.572 -0.3457  0.3457 -0.2270
 2020TIP3    H127475   5.305   6.486   0.502 -0.3615  1.4943  0.7916
 2020TIP3    H227476   5.410   6.425   0.592 -0.4576  0.5586  0.2809
 2021TIP3   OH227477   6.466   2.113  11.683  0.3956  0.6878 -0.3267
 2021TIP3    H127478   6.387   2.094  11.633  0.4074  1.8334 -0.7979
 2021TIP3    H227479   6.526   2.151  11.619  0.9677  0.7532  0.2417
 2022TIP3   OH227480   0.840   0.796  12.601 -0.7854 -0.1632  0.2036
 2022TIP3    H127481   0.836   0.762  12.511 -1.0459  0.0514  0.1341
 2022TIP3    H227482   0.756   0.773  12.639  0.0082 -1.9413  1.0105
 2023TIP3   OH227483   5.000   3.145  13.124 -0.1253 -0.8844 -0.5739
 2023TIP3    H127484   4.926   3.122  13.181 -0.5563 -0.1581 -0.8315
 2023TIP3    H227485   4.961   3.156  13.037  0.0637  0.7577 -0.4713
 2024TIP3   OH227486   2.223   0.830  11.414  0.0241  0.4226 -0.1435
 2024TIP3    H127487   2.309   0.870  11.402  0.0790  0.3782  0.0984
 2024TIP3    H227488   2.198   0.800  11.326 -0.5675  2.0883 -0.5859
 2025TIP3   OH227489   2.732   1.756  12.763  0.1395 -1.1775  0.3061
 2025TIP3    H127490   2.673   1.819  12.722  2.0605  0.4405 -0.1189
 2025TIP3    H227491   2.701   1.750  12.853 -1.1467 -1.0086 -0.1034
 2026TIP3   OH227492   4.727   2.388  15.029 -0.5018  0.4743  0.1317
 2026TIP3    H127493   4.808   2.339  15.041 -1.6310 -0.9470  2.4372
 2026TIP3    H227494   4.713   2.388  14.934  1.1867 -0.8762 -0.1610
 2027TIP3   OH227495   2.679   1.566  16.414  0.3858 -0.3089  0.4450
 2027TIP3    H127496   2.669   1.650  16.370 -2.1208 -0.7147  0.0763
 2027TIP3    H227497   2.760   1.574  16.463  0.5582  2.0781 -0.1156
 2028TIP3   OH227498   1.861   3.655   5.649  0.3595  0.0386  0.2565
 2028TIP3    H127499   1.849   3.743   5.611 -0.1885  0.9371  2.3620
 2028TIP3    H227500   1.943   3.661   5.698 -0.9004  0.2123  2.4602
 2029TIP3   OH227501   5.371   0.949  16.314 -0.0078  0.5959 -0.2423
 2029TIP3    H127502   5.278   0.955  16.338 -0.5027  0.7689 -2.0052
 2029TIP3    H227503   5.376   0.995  16.230  1.1656 -1.5013 -1.4166
 2030TIP3   OH227504   4.856   1.550   0.351  0.6118 -0.6261 -0.5039
 2030TIP3    H127505   4.926   1.495   0.384  1.0411  0.1929 -0.0191
 2030TIP3    H227506   4.777   1.518   0.394  1.0202 -0.1817  0.6197
 2031TIP3   OH227507   6.598   0.837   5.500 -0.2373 -0.8942  0.9298
 2031TIP3    H127508   6.693   0.845   5.507 -0.3343 -0.2961  1.6215
 2031TIP3    H227509   6.580   0.850   5.407  0.2211  0.6328  1.0236
 2032TIP3   OH227510   0.251   1.752   2.429 -0.1418 -0.1663 -0.1637
 2032TIP3    H127511   0.311   1.678   2.435 -0.3548 -0.4275 -1.0593
 2032TIP3    H227512   0.288   1.808   2.361 -0.3136  0.2371  0.0720
 2033TIP3   OH227513   0.066   3.438  11.596  0.2631 -0.6650 -0.2139
 2033TIP3    H127514   0.152   3.478  11.605 -0.1641  0.6631 -1.6853
 2033TIP3    H227515   0.005   3.504  11.631 -0.2480 -1.1703 -0.1327
 2034TIP3   OH227516   4.588   1.964  10.974  0.8007 -0.5089 -0.1378
 2034TIP3    H127517   4.508   1.923  11.008  1.2936  0.3696  2.3213
 2034TIP3    H227518   4.558   2.044  10.932  0.3504 -0.1413  0.8373
 2035TIP3   OH227519   0.577   0.938   5.319  0.1246  0.0864 -0.3189
 2035TIP3    H127520   0.587   0.843   5.326 -2.2092 -0.1396  1.3082
 2035TIP3    H227521   0.587   0.956   5.226  0.6553 -1.7512 -0.6663
 2036TIP3   OH227522   5.013   3.100   2.294 -0.4025 -0.4177 -0.1816
 2036TIP3    H127523   4.994   3.016   2.335 -1.6320 -0.4096 -0.7063
 2036TIP3    H227524   4.935   3.120   2.242 -0.1276  1.0394 -0.0738
 2037TIP3   OH227525   5.793   3.945   2.818  0.5642  0.1485  0.2674
 2037TIP3    H127526   5.749   3.997   2.886  1.6568 -0.7127  1.7012
 2037TIP3    H227527   5.820   3.865   2.864 -0.2643 -1.3093 -1.6419
 2038TIP3   OH227528   4.174   0.570   3.895  0.1510  0.3622 -0.7225
 2038TIP3    H127529   4.136   0.576   3.807 -1.0078 -0.0974 -0.2690
 2038TIP3    H227530   4.255   0.520   3.882  0.4804  1.0939 -1.6595
 2039TIP3   OH227531   5.177   3.280  13.727  0.2459 -0.6879  0.1356
 2039TIP3    H127532   5.255   3.324  13.691  1.6619 -2.3620  1.0112
 2039TIP3    H227533   5.132   3.246  13.649  1.7729 -1.8504 -0.3076
 2040TIP3   OH227534   1.359   3.814  16.081 -0.1182  0.8298  0.0224
 2040TIP3    H127535   1.364   3.755  16.005  0.4491 -1.3829  1.6701
 2040TIP3    H227536   1.380   3.900  16.045  0.0054 -0.0960 -2.3485
 2041TIP3   OH227537   5.766   6.525   5.547 -0.1280 -0.2887  0.2154
 2041TIP3    H127538   5.833   6.593   5.554 -1.2106  0.6497  2.9629
 2041TIP3    H227539   5.691   6.569   5.508 -0.1639 -0.4716  0.0779
 2042TIP3   OH227540   5.873   4.346   2.404  0.0595 -0.0773 -0.2577
 2042TIP3    H127541   5.820   4.421   2.377  1.6238  0.8648 -0.8866
 2042TIP3    H227542   5.919   4.377   2.482  1.1769 -0.1280 -0.8713
 2043TIP3   OH227543   4.406   2.560  16.700 -0.4927  0.2145 -0.7096
 2043TIP3    H127544   4.370   2.476  16.727 -0.5963 -0.2106 -2.0932
 2043TIP3    H227545   4.419   2.608  16.782 -0.0118 -1.2949  0.1343
 2044TIP3   OH227546   6.458   5.155   2.945  0.0184  0.0428 -0.5003
 2044TIP3    H127547   6.367   5.163   2.914 -0.0588 -0.4365 -0.4055
 2044TIP3    H227548   6.481   5.243   2.973 -0.3779  0.1960 -0.6408
 2045TIP3   OH227549   2.672   4.777   2.778 -0.1895 -0.2575  0.5126
 2045TIP3    H127550   2.767   4.787   2.768 -0.1983  0.9398  1.3693
 2045TIP3    H227551   2.649   4.707   2.718  1.0138  0.4347 -0.8217
 2046TIP3   OH227552   6.490   0.092  14.044 -0.5837  0.0781  0.2269
 2046TIP3    H127553   6.415   0.067  13.990  0.1724  0.9777 -1.2841
 2046TIP3    H227554   6.565   0.049  14.003 -0.1978 -0.6466  1.6036
 2047TIP3   OH227555   0.435   3.508   0.328  0.5736 -0.5319 -0.2968
 2047TIP3    H127556   0.497   3.459   0.381  0.0389 -0.2679  0.5885
 2047TIP3    H227557   0.489   3.557   0.266  1.1481 -1.6887 -0.7422
 2048TIP3   OH227558   4.273   1.935  11.635  0.2813 -0.0874 -0.7805
 2048TIP3    H127559   4.310   1.946  11.547  3.9655  0.7371  0.6738
 2048TIP3    H227560   4.233   2.019  11.656  1.3705  0.4709 -0.8880
 2049TIP3   OH227561   6.424   4.702  12.499  0.7349  0.1468  0.3090
 2049TIP3    H127562   6.377   4.655  12.430  0.1855  0.7053  0.2887
 2049TIP3    H227563   6.515   4.677  12.487  0.5468 -0.3603 -0.1386
 2050TIP3   OH227564   5.485   2.800   3.505  0.3613  0.1557  0.3516
 2050TIP3    H127565   5.488   2.710   3.475  2.9439 -0.7627  2.8054
 2050TIP3    H227566   5.431   2.797   3.584  1.0139  0.5571  0.8297
 2051TIP3   OH227567   1.459   6.111  13.340  0.5150 -0.5251 -0.2541
 2051TIP3    H127568   1.441   6.063  13.260  0.5403  0.7190 -1.0299
 2051TIP3    H227569   1.374   6.144  13.368  0.7013  0.2901 -0.6082
 2052TIP3   OH227570   0.320   0.940  11.778 -1.1070  0.5150  0.4164
 2052TIP3    H127571   0.338   0.925  11.685 -0.4955  1.2904  0.3983
 2052TIP3    H227572   0.264   1.018  11.779  0.0090  1.3380  0.7525
 2053TIP3   OH227573   1.167   5.961   3.019  0.4815  0.0920 -0.4173
 2053TIP3    H127574   1.166   5.868   2.996  0.1839 -0.2693  0.9605
 2053TIP3    H227575   1.105   6.002   2.959  2.3093 -0.1458 -2.6566
 2054TIP3   OH227576   5.681   0.440  13.555  0.4389  0.3270 -0.0436
 2054TIP3    H127577   5.765   0.402  13.528  1.0089  0.5680  1.3251
 2054TIP3    H227578   5.693   0.534  13.544  0.3435  0.3595  0.1291
 2055TIP3   OH227579   3.710   1.978  13.578  0.5332 -0.6852 -0.1040
 2055TIP3    H127580   3.715   1.918  13.652  0.7577 -0.8437 -0.2470
 2055TIP3    H227581   3.792   1.964  13.530  0.5455 -0.3336 -0.1895
 2056TIP3   OH227582   5.763   5.411  13.489 -0.9014 -0.0851 -0.0586
 2056TIP3    H127583   5.781   5.332  13.438 -0.8162 -0.9586  1.2710
 2056TIP3    H227584   5.784   5.483  13.430 -1.4973 -1.0409 -1.4856
 2057TIP3   OH227585   1.160   2.124   0.931 -0.3709 -0.6645  0.0679
 2057TIP3    H127586   1.199   2.043   0.899 -1.2608 -0.3249 -2.0669
 2057TIP3    H227587   1.110   2.157   0.856 -2.3073  0.4234  1.7461
 2058TIP3   OH227588   6.666   5.494  12.505 -0.0893  0.2476 -0.0689
 2058TIP3    H127589   6.689   5.540  12.586  2.8631  0.3152 -0.8298
 2058TIP3    H227590   6.664   5.563  12.438 -1.1467 -0.0081 -0.3223
 2059TIP3   OH227591   5.281   3.269   0.237 -0.1145 -0.3986  0.0038
 2059TIP3    H127592   5.272   3.303   0.326  0.0669  0.6527 -0.3644
 2059TIP3    H227593   5.350   3.203   0.244 -0.6571 -0.9028  0.7863
 2060TIP3   OH227594   3.596   2.037   1.902 -0.1988 -0.5587 -0.2678
 2060TIP3    H127595   3.673   1.983   1.922  2.2669  2.7913  0.1554
 2060TIP3    H227596   3.587   2.031   1.807 -1.0121 -2.8369 -0.1129
 2061TIP3   OH227597   2.050   2.104  15.920  0.0372  0.0634 -0.6158
 2061TIP3    H127598   2.060   2.198  15.904 -0.5424 -0.2651 -3.5838
 2061TIP3    H227599   2.135   2.067  15.898  0.0255 -0.1856 -0.2481
 2062TIP3   OH227600   1.796   1.260  16.790 -0.4653  0.1835 -0.1439
 2062TIP3    H127601   1.862   1.208  16.742  0.5357  1.3109 -0.0325
 2062TIP3    H227602   1.715   1.210  16.780  0.7732 -2.3095  1.3971
 2063TIP3   OH227603   6.601   4.093  14.180 -0.3642 -0.0194  0.2302
 2063TIP3    H127604   6.515   4.130  14.200  0.2398  3.1101 -2.2405
 2063TIP3    H227605   6.582   4.014  14.129 -1.7198 -0.3599  1.2102
 2064TIP3   OH227606   5.955   4.854  10.509  0.0026  0.1237  0.0448
 2064TIP3    H127607   6.033   4.907  10.490 -0.2605  1.7044  2.7939
 2064TIP3    H227608   5.987   4.786  10.568 -0.4362 -0.1914 -0.0803
 2065TIP3   OH227609   5.006   6.393   0.876 -1.0086  0.3722  0.5395
 2065TIP3    H127610   4.989   6.364   0.786 -0.2798  1.1903  0.1176
 2065TIP3    H227611   5.076   6.457   0.867  0.2871 -0.7962  1.9007
 2066TIP3   OH227612   2.472   3.712  11.338 -0.3904 -0.4643  0.5657
 2066TIP3    H127613   2.524   3.634  11.317  0.8586  0.3484  0.5332
 2066TIP3    H227614   2.537   3.779  11.360 -1.3542  0.9566 -0.6920
 2067TIP3   OH227615   2.155   1.254   2.114 -0.2257  0.1894 -0.2152
 2067TIP3    H127616   2.180   1.307   2.038 -1.7716 -0.5611 -1.3111
 2067TIP3    H227617   2.234   1.206   2.137  1.3108  3.0224  0.9525
 2068TIP3   OH227618   6.632   2.103   2.025  0.4248  0.1192  0.0496
 2068TIP3    H127619   6.614   2.109   1.932  0.1444  0.0529  0.1012
 2068TIP3    H227620   6.572   2.165   2.066  1.3582  1.0291  0.0831
 2069TIP3   OH227621   2.286   5.024   3.074  0.2774 -0.7626  0.0850
 2069TIP3    H127622   2.286   5.105   3.126  0.6149 -0.5318 -0.2682
 2069TIP3    H227623   2.366   4.979   3.100  0.5640 -0.5389 -0.3915
 2070TIP3   OH227624   3.299   0.365  12.634 -0.5559 -0.2005  0.3452
 2070TIP3    H127625   3.369   0.407  12.584  0.4300 -1.3514  0.6969
 2070TIP3    H227626   3.303   0.405  12.720  0.9165 -1.4965  0.9334
 2071TIP3   OH227627   2.932   0.780  14.943 -0.6144 -0.2869 -0.3239
 2071TIP3    H127628   2.998   0.782  15.013 -1.3603  0.8154  0.3817
 2071TIP3    H227629   2.859   0.831  14.978 -2.7367 -3.1687 -0.2142
 2072TIP3   OH227630   2.081   0.123  16.155  0.0131 -0.4923  0.4158
 2072TIP3    H127631   1.995   0.154  16.127  0.0241 -1.5558 -0.8700
 2072TIP3    H227632   2.142   0.159  16.091  0.4266 -0.4369  0.8352
 2073TIP3   OH227633   4.742   0.972   2.069  0.4659  0.2368 -0.3337
 2073TIP3    H127634   4.823   1.017   2.043 -0.0326  0.7779 -0.9816
 2073TIP3    H227635   4.687   1.041   2.106  0.8454 -0.3795  1.4714
 2074TIP3   OH227636   3.882   5.555  17.225 -0.0886 -0.2719  0.1913
 2074TIP3    H127637   3.842   5.591  17.304  1.2500  1.0665  0.2945
 2074TIP3    H227638   3.882   5.460  17.239 -0.5040 -0.0969  1.4759
 2075TIP3   OH227639   6.491   6.097  13.974 -0.4871 -0.1356  0.4438
 2075TIP3    H127640   6.423   6.087  14.040 -0.1289  0.5566  0.9227
 2075TIP3    H227641   6.549   6.023  13.988 -1.7226 -1.3787 -0.6934
 2076TIP3   OH227642   4.986   5.379  15.141  0.0417  0.0987  0.2105
 2076TIP3    H127643   4.952   5.456  15.186 -1.0596 -0.4424  0.3442
 2076TIP3    H227644   5.041   5.414  15.071  2.9473  1.0077  2.6806
 2077TIP3   OH227645   4.464   4.549  12.419 -0.3643 -0.1113 -0.1264
 2077TIP3    H127646   4.505   4.527  12.502 -2.1492  1.1063  1.1646
 2077TIP3    H227647   4.462   4.645  12.418  1.5623  0.0299 -2.6366
 2078TIP3   OH227648   4.943   4.526   5.525 -0.0142 -0.5614  0.8814
 2078TIP3    H127649   4.875   4.466   5.556 -1.3261  0.4142 -0.0023
 2078TIP3    H227650   4.907   4.563   5.444  1.3169  0.4435  0.7136
 2079TIP3   OH227651   2.372   0.965  14.585 -0.5537 -0.3103 -0.2649
 2079TIP3    H127652   2.281   0.989  14.569 -0.3769 -0.2794 -1.3025
 2079TIP3    H227653   2.376   0.947  14.678 -1.2413  1.3790  0.1333
 2080TIP3   OH227654   1.876   4.332   2.340 -0.1895  0.7539  0.3160
 2080TIP3    H127655   1.802   4.390   2.323 -0.1259  0.6595 -0.3089
 2080TIP3    H227656   1.898   4.296   2.255  1.9340  2.4041  0.0675
 2081TIP3   OH227657   2.605   4.614   2.984  0.4859 -0.1901 -0.4818
 2081TIP3    H127658   2.511   4.630   2.975  0.2354 -0.9538  0.5458
 2081TIP3    H227659   2.645   4.671   2.919 -0.6824  0.2172 -0.8794
 2082TIP3   OH227660   0.369   3.177  15.011 -0.5239  0.3981 -0.6292
 2082TIP3    H127661   0.392   3.100  15.063 -1.2030  1.0818  0.7306
 2082TIP3    H227662   0.302   3.146  14.950  0.6875 -0.5459 -1.5603
 2083TIP3   OH227663   0.273   3.993  15.550  0.0322  0.3627 -0.4245
 2083TIP3    H127664   0.326   3.981  15.471 -0.6164 -1.7753 -0.5861
 2083TIP3    H227665   0.182   3.988  15.519 -0.2715  1.6123  0.1900
 2084TIP3   OH227666   2.894   6.032   5.510 -0.8837  1.3097 -0.2944
 2084TIP3    H127667   2.946   6.018   5.590  1.2316  1.7397 -1.5119
 2084TIP3    H227668   2.895   5.947   5.466 -1.0051  1.3828 -0.4349
 2085TIP3   OH227669   0.279   0.585  10.925  0.1783 -0.4555 -0.0233
 2085TIP3    H127670   0.341   0.653  10.898 -0.0909 -0.4524 -0.6494
 2085TIP3    H227671   0.194   0.628  10.924  0.2391 -0.2469  1.6021
 2086TIP3   OH227672   4.407   1.653   1.427 -0.2541 -0.5029 -0.3587
 2086TIP3    H127673   4.493   1.618   1.451 -0.2502 -0.1944  0.0942
 2086TIP3    H227674   4.412   1.746   1.448 -0.4606 -0.3426 -1.0058
 2087TIP3   OH227675   1.072   0.632   5.136  0.1952 -0.1886  0.0247
 2087TIP3    H127676   1.065   0.726   5.147 -0.5612 -0.4457  2.2505
 2087TIP3    H227677   0.983   0.599   5.150  0.0719 -1.1435 -2.4681
 2088TIP3   OH227678   5.733   6.619  13.744  0.3880 -0.1932  0.9023
 2088TIP3    H127679   5.762   6.662  13.664  0.0677  0.5304  1.1640
 2088TIP3    H227680   5.682   6.544  13.715 -0.6246  0.6673  0.4178
 2089TIP3   OH227681   5.771   3.416  13.836  0.2769 -0.2247 -0.3911
 2089TIP3    H127682   5.687   3.446  13.871  0.6686  1.1512 -0.5604
 2089TIP3    H227683   5.776   3.456  13.749  1.0499 -0.4103 -0.4411
 2090TIP3   OH227684   6.774   5.116   3.548 -0.0472  0.0120  0.0980
 2090TIP3    H127685   6.845   5.147   3.604 -0.5857  0.2121  0.6700
 2090TIP3    H227686   6.811   5.039   3.503  0.5485  0.1501  0.3433
 2091TIP3   OH227687   2.283   0.165  15.285 -0.4399 -0.2502  0.4609
 2091TIP3    H127688   2.229   0.145  15.209  0.6090 -1.6392  0.0473
 2091TIP3    H227689   2.226   0.217  15.342 -1.4917  0.1513 -0.9119
 2092TIP3   OH227690   4.101   0.080   4.041  0.0119 -0.2108  0.1768
 2092TIP3    H127691   4.182   0.030   4.048  0.7652  1.2099  2.8091
 2092TIP3    H227692   4.123   0.168   4.073 -2.2732  0.5932 -0.2153
 2093TIP3   OH227693   5.597   0.139  11.987 -0.4805  0.2146 -0.0362
 2093TIP3    H127694   5.600   0.224  12.031 -1.9533 -0.3871  1.3028
 2093TIP3    H227695   5.659   0.084  12.035 -2.0252 -0.4171  1.3102
 2094TIP3   OH227696   2.701   0.250  15.912 -0.4524  0.3354  0.5507
 2094TIP3    H127697   2.615   0.292  15.910 -0.4616  0.3149  0.5144
 2094TIP3    H227698   2.727   0.244  15.820 -1.0543 -0.9802  0.4448
 2095TIP3   OH227699   1.847   4.490   0.051 -0.3247  0.8782  0.8094
 2095TIP3    H127700   1.926   4.534   0.083  0.5946 -0.6623  0.7660
 2095TIP3    H227701   1.834   4.526  -0.037 -0.3878  2.0061  1.2543
 2096TIP3   OH227702   5.576   5.208  15.764  0.4569  0.6508  0.1710
 2096TIP3    H127703   5.576   5.175  15.854  0.4458  1.5015  0.4923
 2096TIP3    H227704   5.499   5.167  15.724  1.9107 -1.8871 -0.3055
 2097TIP3   OH227705   2.756   3.529   1.491 -0.1464  0.3383  0.2168
 2097TIP3    H127706   2.679   3.553   1.438  1.3012 -0.1501 -2.2688
 2097TIP3    H227707   2.800   3.612   1.507 -0.8582  0.5519  1.1702
 2098TIP3   OH227708   4.155   2.279  12.452  0.6516  0.1644 -0.3037
 2098TIP3    H127709   4.148   2.222  12.529  1.4507  0.6911  0.1795
 2098TIP3    H227710   4.205   2.228  12.389  0.3907 -0.0973 -0.3015
 2099TIP3   OH227711   5.217   3.446   4.103  0.1021 -0.1097  0.0611
 2099TIP3    H127712   5.186   3.358   4.119 -2.0312  0.5713 -0.0139
 2099TIP3    H227713   5.301   3.434   4.059 -0.6445 -2.1162 -0.9399
 2100TIP3   OH227714   4.971   2.120   1.763  0.2504 -0.2739 -0.0284
 2100TIP3    H127715   4.944   2.198   1.812  1.6377  0.0464  0.2882
 2100TIP3    H227716   4.909   2.114   1.691 -1.4233 -0.3365  1.3528
 2101TIP3   OH227717   2.164   3.928   4.415 -0.3194  0.6053  0.3331
 2101TIP3    H127718   2.174   3.995   4.347  1.0897 -0.0403 -0.1291
 2101TIP3    H227719   2.160   3.978   4.497 -4.0329  1.5602 -0.2225
 2102TIP3   OH227720   5.448   0.762   0.367  0.4391  0.5217 -0.2268
 2102TIP3    H127721   5.516   0.709   0.325 -0.5182  0.7786 -2.2547
 2102TIP3    H227722   5.405   0.703   0.428  0.7950 -0.3993 -0.8512
 2103TIP3   OH227723   4.140   2.776   2.755  0.1944 -0.1518  0.1699
 2103TIP3    H127724   4.090   2.722   2.694  0.5349 -0.1381 -0.1195
 2103TIP3    H227725   4.089   2.856   2.764  0.3878  0.0522 -0.4806
 2104TIP3   OH227726   2.283   6.020  15.170 -0.1840 -0.1986  0.2749
 2104TIP3    H127727   2.272   6.082  15.242 -0.8670  1.1597 -0.9360
 2104TIP3    H227728   2.378   6.011  15.160 -0.0224  1.8115 -0.4341
 2105TIP3   OH227729   2.800   1.500   0.149  0.3061  0.3720  0.2333
 2105TIP3    H127730   2.750   1.495   0.067  0.0919  0.8022  0.3334
 2105TIP3    H227731   2.748   1.557   0.205 -0.4878 -1.3557  1.3380
 2106TIP3   OH227732   3.320   5.175   3.770 -0.0053  0.1733  0.2179
 2106TIP3    H127733   3.283   5.142   3.688  0.8391 -0.1681 -0.0365
 2106TIP3    H227734   3.309   5.102   3.832  0.6047 -0.0941  0.0256
 2107TIP3   OH227735   1.436   4.656   1.207  0.5615  0.2074  0.8219
 2107TIP3    H127736   1.354   4.693   1.175  1.8643  2.3784 -0.2031
 2107TIP3    H227737   1.480   4.624   1.129  0.1506 -2.2758  1.5205
 2108TIP3   OH227738   2.654   1.632  16.875  0.0415 -0.6081 -0.2177
 2108TIP3    H127739   2.736   1.682  16.869 -0.3531  0.0194 -0.3857
 2108TIP3    H227740   2.598   1.686  16.931 -0.6278 -0.5324 -0.9523
 2109TIP3   OH227741   5.735   0.504  15.616 -0.0926 -0.2286  1.0862
 2109TIP3    H127742   5.676   0.468  15.549  0.3256 -0.5080  0.8660
 2109TIP3    H227743   5.821   0.470  15.592 -0.2805 -2.5913  3.2895
 2110TIP3   OH227744   2.688   5.805  15.070  0.1093 -0.4380 -0.6869
 2110TIP3    H127745   2.619   5.808  15.003 -0.7358  0.3750  0.1784
 2110TIP3    H227746   2.640   5.799  15.153  1.1097 -0.4514 -0.0940
 2111TIP3   OH227747   0.245   5.922   6.123 -0.4396 -0.6768 -0.5282
 2111TIP3    H127748   0.183   5.911   6.194 -0.3839 -0.1173 -0.3899
 2111TIP3    H227749   0.207   5.990   6.068  0.5554  0.4492  0.1345
 2112TIP3   OH227750   2.008   4.504  17.057 -0.3126  0.0581  0.1865
 2112TIP3    H127751   1.918   4.522  17.029  0.0500 -1.3608 -2.1658
 2112TIP3    H227752   2.052   4.589  17.047 -0.8903  0.2605 -0.9119
 2113TIP3   OH227753   2.893   3.747  16.982 -0.0652  0.5282  0.6186
 2113TIP3    H127754   2.860   3.812  16.920  0.0693 -0.8256 -0.9511
 2113TIP3    H227755   2.986   3.738  16.960 -0.5327 -1.7743 -0.7655
 2114TIP3   OH227756   3.125   2.429   5.162  0.2963 -0.5796 -0.8368
 2114TIP3    H127757   3.076   2.498   5.207  0.1194  0.0395 -1.9326
 2114TIP3    H227758   3.067   2.353   5.164  0.3009 -0.5745 -0.0273
 2115TIP3   OH227759   5.084   2.102  10.966  0.2042 -0.0833  0.2913
 2115TIP3    H127760   5.079   2.037  11.037  2.6494 -0.7468 -0.0521
 2115TIP3    H227761   5.078   2.050  10.886  2.7518 -0.0505  0.0024
 2116TIP3   OH227762   5.049   0.024   0.491 -0.4463 -0.0399  0.3680
 2116TIP3    H127763   5.108   0.098   0.510  0.3169 -0.8508  1.2712
 2116TIP3    H227764   4.994   0.017   0.569  0.4052 -1.2466  0.9030
 2117TIP3   OH227765   3.930   0.792  15.665  0.5983 -0.0064 -0.1249
 2117TIP3    H127766   3.900   0.827  15.749  0.8805 -0.5904  0.2292
 2117TIP3    H227767   4.025   0.783  15.675  0.7409  0.6380 -0.7839
 2118TIP3   OH227768   2.467   5.654   2.305  0.2295 -0.0858 -0.9399
 2118TIP3    H127769   2.457   5.652   2.400 -2.0808 -0.8304 -1.1154
 2118TIP3    H227770   2.559   5.676   2.290  0.9378 -1.0749  1.4631
 2119TIP3   OH227771   4.281   5.965   2.515 -0.0074 -0.2850  0.5241
 2119TIP3    H127772   4.363   6.010   2.534 -0.1474 -0.0630  0.5987
 2119TIP3    H227773   4.271   5.973   2.420 -0.3905  0.4602  0.6189
 2120TIP3   OH227774   1.190   3.221   2.172  0.0754  0.0946 -0.0024
 2120TIP3    H127775   1.173   3.143   2.225 -1.3869  1.3521  1.4838
 2120TIP3    H227776   1.265   3.197   2.118  0.4089 -1.9360  1.2480
 2121TIP3   OH227777   6.611   1.597   4.785  0.1314 -0.0074 -0.0731
 2121TIP3    H127778   6.535   1.619   4.731 -0.0545  1.1455  0.6161
 2121TIP3    H227779   6.573   1.572   4.870  0.5232  2.5333  0.9465
 2122TIP3   OH227780   5.046   6.699   1.021  0.5606 -0.4690  0.4707
 2122TIP3    H127781   5.086   6.733   1.101  0.3000  0.0155  0.3934
 2122TIP3    H227782   5.096   6.620   1.002  1.4026  0.0570  0.4516
 2123TIP3   OH227783   0.036   3.111  13.568  0.3379 -0.4503 -0.2868
 2123TIP3    H127784  -0.005   3.179  13.622  1.2557 -0.9469  1.0970
 2123TIP3    H227785   0.123   3.101  13.606  0.0047 -2.8607 -0.0220
 2124TIP3   OH227786   0.886   2.122  12.036 -0.2743  0.5370 -0.2906
 2124TIP3    H127787   0.913   2.097  11.947 -1.5493  0.0344 -0.5678
 2124TIP3    H227788   0.965   2.156  12.077  1.5294 -3.3386 -0.1079
 2125TIP3   OH227789   0.393   1.775  16.981  0.3298  0.0151  0.5087
 2125TIP3    H127790   0.455   1.800  16.912 -1.7986 -0.6623 -1.7961
 2125TIP3    H227791   0.336   1.852  16.992  0.2982 -0.0858  1.1240
 2126TIP3   OH227792   5.814   3.799  11.961 -0.2719  0.2272  0.4387
 2126TIP3    H127793   5.774   3.757  12.037  0.6175 -2.0903 -0.3041
 2126TIP3    H227794   5.798   3.739  11.888 -0.9999  2.3218 -1.2383
 2127TIP3   OH227795   2.847   1.968   0.625  0.2425 -0.3585 -0.4118
 2127TIP3    H127796   2.927   2.011   0.598 -0.5921  2.0413  0.6257
 2127TIP3    H227797   2.797   2.037   0.670 -2.1624 -1.8907 -0.5679
 2128TIP3   OH227798   5.208   2.843   0.326  0.0807  0.3506 -0.7696
 2128TIP3    H127799   5.115   2.823   0.322  0.2918 -0.5478 -1.4158
 2128TIP3    H227800   5.252   2.758   0.323  0.8887  0.5785  1.7700
 2129TIP3   OH227801   4.462   1.163  13.272 -0.0270  0.0146 -0.5590
 2129TIP3    H127802   4.437   1.086  13.322  0.4104 -0.1981 -0.6698
 2129TIP3    H227803   4.549   1.144  13.238  0.5672  1.0095  0.3477
 2130TIP3   OH227804   5.518   1.682  16.929 -0.1370  0.7672  0.4860
 2130TIP3    H127805   5.434   1.704  16.889  0.1484  1.5413  0.2836
 2130TIP3    H227806   5.583   1.716  16.868  0.3282  0.1001  0.5970
 2131TIP3   OH227807   5.109   4.799  11.488 -0.5005 -0.4744  0.0352
 2131TIP3    H127808   5.064   4.858  11.428 -0.5611 -0.7291 -0.1695
 2131TIP3    H227809   5.201   4.803  11.462 -0.6186 -1.0869 -0.5029
 2132TIP3   OH227810   6.344   1.754  15.785  0.5257 -0.7151  0.0709
 2132TIP3    H127811   6.433   1.724  15.805  0.6881  0.4698  1.1980
 2132TIP3    H227812   6.354   1.847  15.764 -0.6626 -0.0604  2.1104
 2133TIP3   OH227813   1.293   1.680   3.636  0.2350 -0.3416  0.4768
 2133TIP3    H127814   1.354   1.751   3.659 -0.2748  0.6975 -1.1829
 2133TIP3    H227815   1.349   1.610   3.603  0.6004  0.2159 -0.1016
 2134TIP3   OH227816   1.247   3.509  15.710  0.1748 -0.0860 -0.1707
 2134TIP3    H127817   1.200   3.521  15.627  0.0012 -1.7224 -0.3385
 2134TIP3    H227818   1.192   3.553  15.775 -1.9531 -2.3825 -0.2774
 2135TIP3   OH227819   2.350   3.284   5.962  0.8576  0.1888  0.0026
 2135TIP3    H127820   2.313   3.304   6.048 -0.7196  2.0323 -1.0210
 2135TIP3    H227821   2.424   3.343   5.954 -0.2153  1.5062 -0.6506
 2136TIP3   OH227822   2.489   5.449   2.134  0.3462  0.3777  0.1458
 2136TIP3    H127823   2.480   5.471   2.041  1.8667  2.1027  0.3592
 2136TIP3    H227824   2.468   5.530   2.180 -1.6414 -0.7751  1.4403
 2137TIP3   OH227825   6.631   6.008  15.950 -0.0006 -0.0397  0.4363
 2137TIP3    H127826   6.538   6.028  15.955  0.2309  0.7402  2.3458
 2137TIP3    H227827   6.645   5.940  16.015  1.0083  0.9729  1.3329
 2138TIP3   OH227828   3.620   3.578   0.923  0.6918 -0.4924  0.7764
 2138TIP3    H127829   3.659   3.603   1.007 -0.8554  0.7805  1.1603
 2138TIP3    H227830   3.563   3.651   0.900 -1.6055 -2.3128  0.3488
 2139TIP3   OH227831   6.025   4.964  10.915  0.3876  0.0686 -0.6009
 2139TIP3    H127832   6.080   5.031  10.874  0.7921  2.0091  2.7664
 2139TIP3    H227833   6.085   4.916  10.973 -0.5001 -1.2343 -0.7131
 2140TIP3   OH227834   0.718   0.802  13.657 -0.3745  0.5239 -0.1339
 2140TIP3    H127835   0.642   0.771  13.607  0.0612 -1.3518  0.2919
 2140TIP3    H227836   0.772   0.848  13.592 -1.4813  1.2373 -0.5938
 2141TIP3   OH227837   4.126   4.052  16.971 -0.3769  0.2853 -0.1850
 2141TIP3    H127838   4.196   4.020  16.914 -0.7720  0.0907 -0.5654
 2141TIP3    H227839   4.153   4.026  17.059  0.1207  0.3757 -0.3084
 2142TIP3   OH227840   2.148   3.611  11.471 -0.1072 -0.4447 -0.5504
 2142TIP3    H127841   2.151   3.686  11.412 -0.5399  0.7531  0.8843
 2142TIP3    H227842   2.227   3.619  11.524 -0.7671 -0.2868  0.4294
 2143TIP3   OH227843   1.861   0.735   2.950  0.4954  0.7385  0.0091
 2143TIP3    H127844   1.834   0.725   3.042  2.7961  0.1129  0.6900
 2143TIP3    H227845   1.854   0.829   2.933  0.0897  0.8677  0.8388
 2144TIP3   OH227846   2.495   5.511  11.943 -0.5801 -0.9213  0.1689
 2144TIP3    H127847   2.477   5.417  11.953 -2.2805 -0.9029 -1.8885
 2144TIP3    H227848   2.516   5.521  11.850 -1.3637  0.8530  0.1512
 2145TIP3   OH227849   1.006   1.879  15.505 -0.4034  0.2845 -0.3145
 2145TIP3    H127850   1.098   1.887  15.529 -0.8478  2.8655  0.8672
 2145TIP3    H227851   0.999   1.924  15.421 -0.5214 -0.3070 -0.6259
 2146TIP3   OH227852   1.167   2.220   4.554 -0.3226 -0.2236 -0.1042
 2146TIP3    H127853   1.187   2.313   4.560  0.0950 -0.3493  0.5130
 2146TIP3    H227854   1.149   2.194   4.644 -1.3688 -0.5401 -0.3912
 2147TIP3   OH227855   1.988   6.747   4.771  0.5202  0.0480 -0.2112
 2147TIP3    H127856   1.932   6.673   4.747 -1.2779  1.3244 -0.1559
 2147TIP3    H227857   1.933   6.824   4.758  2.6629  1.5025 -1.3106
 2148TIP3   OH227858   2.516   6.067  11.495 -0.1830  0.2624 -0.6384
 2148TIP3    H127859   2.473   6.137  11.545  1.7695  0.1345  1.3331
 2148TIP3    H227860   2.473   5.987  11.525  1.8963  0.0233  2.1104
 2149TIP3   OH227861   3.489   2.884  15.109 -0.0025 -0.1161  0.5249
 2149TIP3    H127862   3.494   2.903  15.015  1.7160 -0.2647  0.5693
 2149TIP3    H227863   3.403   2.844  15.120 -1.0645  1.6757 -0.6422
 2150TIP3   OH227864   0.385   4.531   3.826 -0.3198  0.8269  0.4081
 2150TIP3    H127865   0.397   4.599   3.893  0.9488  1.4583 -0.4210
 2150TIP3    H227866   0.468   4.529   3.778 -1.0599  0.1263 -0.9116
 2151TIP3   OH227867   2.224   0.592  11.811 -0.3899  0.5619  0.3487
 2151TIP3    H127868   2.311   0.577  11.848 -1.1850 -1.7175  1.4786
 2151TIP3    H227869   2.237   0.587  11.716  0.3396 -2.7222  0.5201
 2152TIP3   OH227870   2.973   1.086   1.614 -0.3118  0.1007  0.3359
 2152TIP3    H127871   2.944   1.148   1.548 -1.7143 -0.7929  0.0820
 2152TIP3    H227872   3.036   1.135   1.667  2.2557  0.3693 -2.6497
 2153TIP3   OH227873   1.365   0.828   1.611  0.4870 -0.2025 -0.6573
 2153TIP3    H127874   1.327   0.752   1.655  0.9545  0.3360  0.7285
 2153TIP3    H227875   1.375   0.800   1.520 -1.0311 -1.1623 -0.5642
 2154TIP3   OH227876   1.459   5.043  15.116  0.0286 -0.0681  0.4607
 2154TIP3    H127877   1.433   5.135  15.102 -0.2561 -0.2397 -0.1929
 2154TIP3    H227878   1.496   5.017  15.032  0.1839 -0.5291  0.6749
 2155TIP3   OH227879   4.041   3.325  15.517 -0.1819  0.0469 -0.7399
 2155TIP3    H127880   4.066   3.233  15.527 -1.0036  0.0493  2.3337
 2155TIP3    H227881   4.020   3.334  15.424 -1.2436 -3.1742 -0.9348
 2156TIP3   OH227882   2.871   3.119  15.161  0.6747  0.3511 -0.1218
 2156TIP3    H127883   2.833   3.032  15.174  1.4987 -0.1534 -0.9997
 2156TIP3    H227884   2.965   3.107  15.174  1.1279  0.5361 -2.7794
 2157TIP3   OH227885   2.724   0.367  14.649  0.6255 -0.2787 -0.8243
 2157TIP3    H127886   2.672   0.441  14.681  2.2321  0.8816 -0.7612
 2157TIP3    H227887   2.813   0.387  14.676  1.0448 -2.5226 -0.3650
 2158TIP3   OH227888   2.262   0.087  11.345 -0.5123  0.1187  0.3518
 2158TIP3    H127889   2.171   0.116  11.357 -0.4037  1.6702 -1.9431
 2158TIP3    H227890   2.315   0.152  11.391 -0.4409  1.8195 -1.9428
 2159TIP3   OH227891   2.695   4.476   1.420 -0.1932 -0.2205 -0.4347
 2159TIP3    H127892   2.760   4.497   1.354 -0.5324  1.4887 -0.2632
 2159TIP3    H227893   2.733   4.403   1.469  0.2904 -1.1619 -2.1535
 2160TIP3   OH227894   5.755   5.226   4.463 -0.6750 -0.0907 -0.1311
 2160TIP3    H127895   5.816   5.208   4.534  0.1064  3.5588  0.2944
 2160TIP3    H227896   5.671   5.192   4.495  0.4901 -2.8412  0.3637
 2161TIP3   OH227897   4.813   3.434  11.561  0.1175  0.2595 -1.1308
 2161TIP3    H127898   4.789   3.404  11.473  1.4163 -1.6612 -0.8965
 2161TIP3    H227899   4.771   3.370  11.620 -0.0861  1.0629 -0.3836
 2162TIP3   OH227900   4.478   5.928   4.672 -0.2706 -0.4534  0.0089
 2162TIP3    H127901   4.564   5.897   4.642 -0.4508 -1.2903  0.3320
 2162TIP3    H227902   4.497   6.008   4.721  0.4649 -1.2113  1.0059
 2163TIP3   OH227903   3.129   1.507   1.885 -0.0535 -0.1193 -0.4062
 2163TIP3    H127904   3.045   1.551   1.896  0.0925  0.1301 -0.2827
 2163TIP3    H227905   3.160   1.534   1.799 -0.2964 -0.5486 -0.6328
 2164TIP3   OH227906   4.146   2.571  13.154 -0.0849 -0.4013 -0.6463
 2164TIP3    H127907   4.103   2.655  13.137  0.8343  0.3044  0.3746
 2164TIP3    H227908   4.239   2.589  13.140  0.0480 -1.4879 -1.2539
 2165TIP3   OH227909   1.881   5.413   1.888 -0.2410  0.4765 -0.3229
 2165TIP3    H127910   1.854   5.324   1.865 -0.8814  0.3193  0.9526
 2165TIP3    H227911   1.964   5.426   1.842 -0.0339 -0.8513 -0.3445
 2166TIP3   OH227912   3.209   3.076   3.648 -0.0215  0.3893  0.3403
 2166TIP3    H127913   3.180   3.017   3.717  0.9764  0.0918  0.5203
 2166TIP3    H227914   3.178   3.035   3.567  1.1315 -0.7084  0.4182
 2167TIP3   OH227915   3.228   4.503  17.157  0.2567  0.0193  0.8007
 2167TIP3    H127916   3.170   4.441  17.113  2.4627 -2.5320  1.1978
 2167TIP3    H227917   3.244   4.463  17.243  0.9050  1.7292  1.5134
 2168TIP3   OH227918   2.532   1.537   2.547 -0.3417  0.7854 -0.2470
 2168TIP3    H127919   2.548   1.576   2.461  0.6194  0.3540 -0.2773
 2168TIP3    H227920   2.506   1.447   2.529  0.0315  0.6418 -0.0905
 2169TIP3   OH227921   5.387   2.981   3.317  0.5865  0.1496 -0.2011
 2169TIP3    H127922   5.422   2.918   3.381  0.0471 -0.1726 -0.2159
 2169TIP3    H227923   5.335   3.042   3.370 -0.9338 -0.8692 -0.4539
 2170TIP3   OH227924   3.155   1.838   6.520 -0.0245 -0.0849 -0.3208
 2170TIP3    H127925   3.104   1.840   6.439  0.0448 -1.3963 -0.4110
 2170TIP3    H227926   3.109   1.774   6.575  1.4095 -1.1696 -0.3422
 2171TIP3   OH227927   5.846   1.722  12.865 -0.1322 -0.2275 -0.5428
 2171TIP3    H127928   5.813   1.633  12.873 -2.2408  0.5917  0.9909
 2171TIP3    H227929   5.798   1.758  12.789  1.6229 -0.7079 -1.9342
 2172TIP3   OH227930   2.339   5.028  12.014  0.4998 -0.1523 -0.2723
 2172TIP3    H127931   2.292   4.972  11.952 -0.8232 -1.2044  1.5654
 2172TIP3    H227932   2.281   5.103  12.026  0.3310 -0.3644  0.2936
 2173TIP3   OH227933   3.034   5.452   5.505  0.0815  0.3225 -0.0888
 2173TIP3    H127934   3.113   5.400   5.492 -0.0273 -0.0638  0.7068
 2173TIP3    H227935   2.971   5.414   5.444  1.0236  1.8462 -2.0983
 2174TIP3   OH227936   3.904   0.286  12.243  0.0179  0.7119 -0.5228
 2174TIP3    H127937   3.998   0.269  12.248  0.3067  1.9802 -1.1473
 2174TIP3    H227938   3.879   0.255  12.156 -0.4159 -0.7667  0.1039
 2175TIP3   OH227939   5.038   0.772  12.961  0.3373 -0.0795  0.0001
 2175TIP3    H127940   5.036   0.738  12.871 -0.7081 -0.3685  0.1197
 2175TIP3    H227941   5.074   0.701  13.013 -2.6288 -1.4615  0.3867
 2176TIP3   OH227942   3.107   4.526   5.270 -0.0565 -0.0004 -0.5538
 2176TIP3    H127943   3.030   4.469   5.274 -0.7507  0.9583  1.6952
 2176TIP3    H227944   3.071   4.613   5.253  0.4851  0.4815  0.6759
 2177TIP3   OH227945   5.973   4.904   2.229 -0.2538  0.5451 -0.1836
 2177TIP3    H127946   6.013   4.849   2.161 -1.1600  1.6336 -1.6518
 2177TIP3    H227947   5.946   4.842   2.297  1.3298 -0.5024 -0.4511
 2178TIP3   OH227948   3.292   5.312   2.386 -0.1719 -0.2677  0.2620
 2178TIP3    H127949   3.297   5.230   2.338 -1.1384 -1.1880  1.6732
 2178TIP3    H227950   3.217   5.358   2.348 -1.7354 -1.5487  1.6333
 2179TIP3   OH227951   2.680   6.357  11.313 -0.9821  0.3656  0.4414
 2179TIP3    H127952   2.631   6.412  11.375 -0.5586  0.0255  1.0915
 2179TIP3    H227953   2.725   6.294  11.368 -0.0323  0.4978 -0.1705
 2180TIP3   OH227954   1.097   5.556   4.849  0.0925 -0.1070  0.4628
 2180TIP3    H127955   1.102   5.651   4.841 -1.8285  0.0308  0.3246
 2180TIP3    H227956   1.031   5.530   4.785  1.7307 -1.7564 -0.6695
 2181TIP3   OH227957   6.559   6.253   3.009 -0.7965 -0.5906  0.2379
 2181TIP3    H127958   6.602   6.246   3.094  1.6816  1.8819 -0.6601
 2181TIP3    H227959   6.564   6.164   2.973  1.4589 -0.9312  1.2105
 2182TIP3   OH227960   3.520   4.019  15.676  0.0844  0.4193  0.4530
 2182TIP3    H127961   3.458   4.045  15.744  1.5153 -1.0476  2.4443
 2182TIP3    H227962   3.507   3.925  15.666  0.0175  0.5835 -1.2233
 2183TIP3   OH227963   3.267   5.117  15.312 -0.0310  0.2232  0.1136
 2183TIP3    H127964   3.332   5.151  15.373  0.1867 -1.4266  0.8548
 2183TIP3    H227965   3.199   5.079  15.367 -1.3170  1.3041 -0.6632
 2184TIP3   OH227966   5.424   2.632   5.052 -0.3741  0.3728  0.6446
 2184TIP3    H127967   5.387   2.545   5.067  1.6809 -1.2897 -2.7795
 2184TIP3    H227968   5.491   2.641   5.119  0.7158 -1.6098 -0.1078
 2185TIP3   OH227969   3.152   5.464  17.163 -0.1330 -0.4274 -0.1653
 2185TIP3    H127970   3.190   5.377  17.160 -0.5696 -0.6193 -0.2670
 2185TIP3    H227971   3.201   5.514  17.097 -1.4824 -1.2689 -1.9124
 2186TIP3   OH227972   1.077   1.566  12.149  0.1327 -0.4457  0.3709
 2186TIP3    H127973   1.099   1.477  12.176  0.9955 -0.0611  1.0170
 2186TIP3    H227974   0.986   1.561  12.121  0.4941 -1.7516 -0.6756
 2187TIP3   OH227975   6.038   2.324  11.551 -0.1468  0.2794 -0.4660
 2187TIP3    H127976   6.041   2.234  11.582 -1.0604 -0.5984 -2.6927
 2187TIP3    H227977   6.006   2.375  11.625  2.1141 -0.8909  1.4254
 2188TIP3   OH227978   6.167   2.278  15.225 -0.0459 -0.3028  0.3488
 2188TIP3    H127979   6.108   2.331  15.170 -0.4801 -0.6185  0.5040
 2188TIP3    H227980   6.251   2.324  15.221 -0.6488  0.9447  1.2626
 2189TIP3   OH227981   1.226   0.789   0.426 -0.2945  0.6324 -0.1337
 2189TIP3    H127982   1.260   0.791   0.336  1.0978 -0.1223  0.3380
 2189TIP3    H227983   1.144   0.739   0.420 -0.5724  1.1800 -1.0801
 2190TIP3   OH227984   0.800   0.958  13.160 -0.0185 -0.7122 -0.1583
 2190TIP3    H127985   0.839   1.028  13.212 -1.2856 -0.1657  0.0860
 2190TIP3    H227986   0.829   0.975  13.071 -1.5904  1.1074 -0.3876
 2191TIP3   OH227987   1.815   4.874  12.138 -0.1464  0.0829 -0.0719
 2191TIP3    H127988   1.719   4.873  12.139 -0.1685 -0.6669 -1.0414
 2191TIP3    H227989   1.838   4.966  12.151 -0.9406  0.0442  1.7950
 2192TIP3   OH227990   1.942   3.404   4.322 -0.1316  0.3560  0.1642
 2192TIP3    H127991   2.019   3.414   4.266 -0.3318 -0.6592 -0.3240
 2192TIP3    H227992   1.962   3.327   4.376 -0.2826  0.8449  0.9350
 2193TIP3   OH227993   6.588   4.884   0.940  0.6440  0.1224  0.0698
 2193TIP3    H127994   6.634   4.906   0.859  0.2442  1.1664  0.1156
 2193TIP3    H227995   6.652   4.900   1.009  1.1696 -1.2974 -0.0492
 2194TIP3   OH227996   5.687   0.931  16.280 -0.2494 -0.1275  0.2693
 2194TIP3    H127997   5.707   1.014  16.236  1.2553 -0.9589 -0.6820
 2194TIP3    H227998   5.603   0.904  16.243 -0.8937  1.0506  0.7730
 2195TIP3   OH227999   2.817   2.635  15.409 -0.3469  0.1523 -0.0751
 2195TIP3    H128000   2.864   2.647  15.492 -0.1016 -0.0909 -0.1786
 2195TIP3    H228001   2.882   2.597  15.350 -1.1987 -2.0552  0.3441
 2196TIP3   OH228002   3.946   1.345   0.014 -0.1167 -0.3248  0.3353
 2196TIP3    H128003   3.864   1.321   0.056  0.7860 -1.3317  1.6208
 2196TIP3    H228004   3.992   1.262  -0.000  0.3612  0.1473 -1.0766
 2197TIP3   OH228005   5.651   1.447  11.094  0.6393 -0.5316 -0.9353
 2197TIP3    H128006   5.606   1.523  11.055  1.0514  0.9082  1.2057
 2197TIP3    H228007   5.585   1.378  11.095 -0.5032  0.5192 -0.8744
 2198TIP3   OH228008   4.377   3.033  17.046  0.3511 -0.4369 -0.7156
 2198TIP3    H128009   4.436   3.099  17.012 -0.7987  1.1805  0.2701
 2198TIP3    H228010   4.289   3.069  17.032 -0.2585 -1.0850  1.1077
 2199TIP3   OH228011   0.658   2.942   5.068  0.2839 -0.4174 -0.2552
 2199TIP3    H128012   0.732   2.894   5.031  0.9981  1.0313 -0.8073
 2199TIP3    H228013   0.679   3.034   5.052 -0.8788  0.1050  1.0344
 2200TIP3   OH228014   4.189   1.278   4.125  0.6519  1.0580  0.2499
 2200TIP3    H128015   4.223   1.366   4.142  0.6766  1.1898 -0.4327
 2200TIP3    H228016   4.117   1.292   4.063  1.4195  0.5022 -0.7976
 2201TIP3   OH228017   4.074   6.728  14.525  0.0705  0.0791 -0.3274
 2201TIP3    H128018   4.091   6.821  14.512 -1.6046  0.6385  1.2271
 2201TIP3    H228019   4.006   6.707  14.461  0.1637  0.0082 -0.4043
 2202TIP3   OH228020   4.329   4.225   1.002 -0.1925 -0.3541 -0.3800
 2202TIP3    H128021   4.296   4.292   1.062  1.9486  0.1256  0.3699
 2202TIP3    H228022   4.336   4.270   0.918  0.0850  0.0160 -0.1631
 2203TIP3   OH228023   2.159   0.411   3.397  0.0738  0.0170  0.6240
 2203TIP3    H128024   2.206   0.412   3.314 -1.9160  1.0254 -0.5731
 2203TIP3    H228025   2.124   0.500   3.406 -0.4339 -0.3010  2.1344
 2204TIP3   OH228026   5.394   5.987   2.806 -0.1658  0.2415  0.0885
 2204TIP3    H128027   5.329   5.934   2.759 -0.5769  1.0113 -0.2204
 2204TIP3    H228028   5.478   5.950   2.780 -0.4287  0.0734 -0.5390
 2205TIP3   OH228029   2.942   4.630   1.700  0.2592 -0.0278  0.4264
 2205TIP3    H128030   2.888   4.551   1.708  1.8028 -0.9928  2.1302
 2205TIP3    H228031   2.899   4.682   1.632 -1.6198 -1.6672  0.2775
 2206TIP3   OH228032   0.000   4.312   5.407 -0.2804  0.4961  0.4266
 2206TIP3    H128033  -0.033   4.228   5.375  1.4619  1.0143 -3.1485
 2206TIP3    H228034   0.063   4.288   5.475 -2.1396 -0.8362  1.7878
 2207TIP3   OH228035   1.281   5.516  16.613  0.6346  0.3875  0.1919
 2207TIP3    H128036   1.281   5.421  16.624 -0.5881  0.2524 -0.8249
 2207TIP3    H228037   1.363   5.545  16.655  2.4604 -1.3708 -1.9233
 2208TIP3   OH228038   4.200   6.436   3.512  0.1839 -0.9993 -0.3396
 2208TIP3    H128039   4.213   6.345   3.486  0.5087 -0.4016 -2.4852
 2208TIP3    H228040   4.276   6.482   3.477  0.1342  0.0867  0.9097
 2209TIP3   OH228041   6.571   1.296  15.761 -0.3292 -0.0378  0.4427
 2209TIP3    H128042   6.540   1.212  15.727  1.3125 -0.2024 -0.7605
 2209TIP3    H228043   6.593   1.346  15.683  0.3152  0.8735  1.1943
 2210TIP3   OH228044   1.682   3.547   5.450  0.0606 -0.4997 -0.0317
 2210TIP3    H128045   1.666   3.456   5.476 -0.0657 -0.3854  0.3059
 2210TIP3    H228046   1.723   3.586   5.527  0.6313 -0.4151 -0.3801
 2211TIP3   OH228047   1.062   3.502   3.811 -0.5531  0.3423 -0.0847
 2211TIP3    H128048   1.080   3.409   3.799 -0.6704  0.5080 -1.8695
 2211TIP3    H228049   1.148   3.543   3.814 -0.4700  0.1053  1.7137
 2212TIP3   OH228050   2.625   6.718   4.938 -0.3282 -0.0266  0.1413
 2212TIP3    H128051   2.546   6.718   4.992  0.7394 -0.9786  1.7960
 2212TIP3    H228052   2.602   6.664   4.863 -1.6932  0.9264 -0.1849
 2213TIP3   OH228053   0.770   0.898  14.596  0.2826 -0.0779 -0.0270
 2213TIP3    H128054   0.675   0.900  14.605  0.4611 -0.8346  3.1685
 2213TIP3    H228055   0.795   0.810  14.623  1.9963  0.7646  1.3592
 2214TIP3   OH228056   2.273   6.160   2.395  0.2624  0.5696  0.1952
 2214TIP3    H128057   2.285   6.066   2.412  3.4698  0.2190 -2.8677
 2214TIP3    H228058   2.241   6.164   2.305 -0.9980  2.4648  0.6689
 2215TIP3   OH228059   3.544   3.984   1.521 -0.5001 -0.1635  0.2341
 2215TIP3    H128060   3.468   4.006   1.574 -1.8182 -4.4165  0.4630
 2215TIP3    H228061   3.516   4.000   1.431 -0.5093  1.1747  0.4607
 2216TIP3   OH228062   5.056   3.741  13.778  0.2023  0.7313 -0.1709
 2216TIP3    H128063   5.132   3.731  13.834 -1.0626 -0.0834  1.5062
 2216TIP3    H228064   5.002   3.808  13.821  0.2517  1.7870 -1.6864
 2217TIP3   OH228065   1.551   2.929   5.476 -0.3904 -0.2371  0.1802
 2217TIP3    H128066   1.573   2.993   5.409 -0.8877 -1.0709 -0.8188
 2217TIP3    H228067   1.624   2.867   5.475  0.1420  0.3514  1.2181
 2218TIP3   OH228068   5.709   1.903   4.348  0.7026 -0.0228 -0.2130
 2218TIP3    H128069   5.780   1.843   4.327  1.2232 -0.2433  1.9599
 2218TIP3    H228070   5.749   1.971   4.401 -0.1391  1.5890 -1.5292
 2219TIP3   OH228071   3.245   2.947  11.797  0.4432  0.1344  0.4246
 2219TIP3    H128072   3.300   2.958  11.874  0.8549  1.6775 -0.0559
 2219TIP3    H228073   3.185   2.876  11.820  2.1964 -1.1669  1.2043
 2220TIP3   OH228074   1.215   1.342   0.798 -0.3768  0.1552  0.6566
 2220TIP3    H128075   1.131   1.313   0.762 -0.2265  0.8595 -0.3205
 2220TIP3    H228076   1.224   1.432   0.767  0.3143  0.3932  1.5269
 2221TIP3   OH228077   2.428   0.399   4.224  0.1506 -0.4759 -0.4829
 2221TIP3    H128078   2.429   0.422   4.317 -0.5399  0.5262 -0.7041
 2221TIP3    H228079   2.449   0.306   4.222  4.0906  0.1870  0.4317
 2222TIP3   OH228080   2.270   3.099   6.274 -0.2972 -0.2035  0.7976
 2222TIP3    H128081   2.280   3.192   6.255 -1.3147 -0.2299  0.0117
 2222TIP3    H228082   2.176   3.083   6.266 -0.3043 -1.0370  2.2380
 2223TIP3   OH228083   4.789   5.084   4.193  0.1240  0.2566  0.1714
 2223TIP3    H128084   4.756   5.041   4.272 -0.0438 -0.9669 -0.5513
 2223TIP3    H228085   4.737   5.164   4.186  0.3300  0.5319  1.4397
 2224TIP3   OH228086   1.446   0.304  16.815 -0.1618  0.0700  0.2745
 2224TIP3    H128087   1.530   0.258  16.805 -0.2980 -0.3188  0.8466
 2224TIP3    H228088   1.437   0.355  16.734  1.2625  1.1837  0.7669
 2225TIP3   OH228089   0.234   2.039   0.279  0.6447 -0.4993 -0.4208
 2225TIP3    H128090   0.146   2.022   0.245 -0.2703 -0.7725  1.9649
 2225TIP3    H228091   0.281   2.076   0.204 -1.6450  0.1713 -1.6229
 2226TIP3   OH228092   5.740   2.800  13.296  0.1181  0.4238  0.3755
 2226TIP3    H128093   5.786   2.858  13.357 -0.1533 -0.0411  1.0424
 2226TIP3    H228094   5.656   2.843  13.281  0.7835  1.3122 -0.9049
 2227TIP3   OH228095   2.515   5.958  15.326  0.3197  0.2877 -0.5983
 2227TIP3    H128096   2.552   5.869  15.326  0.4279  0.3222 -1.4202
 2227TIP3    H228097   2.447   5.955  15.393  0.0033 -0.5564 -0.9383
 2228TIP3   OH228098   1.613   3.617   0.564  0.6574  0.2769  0.1386
 2228TIP3    H128099   1.691   3.566   0.587  0.1329 -1.1930 -1.1807
 2228TIP3    H228100   1.540   3.557   0.578 -0.1300  1.1753 -0.0039
 2229TIP3   OH228101   0.114   2.174  14.209 -0.7362 -0.6431 -0.0363
 2229TIP3    H128102   0.178   2.245  14.214 -1.3621 -0.0551 -0.1512
 2229TIP3    H228103   0.036   2.209  14.252 -0.5595 -1.8512  1.3554
 2230TIP3   OH228104   5.711   2.192   5.097  0.2080 -0.9494 -0.3276
 2230TIP3    H128105   5.633   2.155   5.055 -0.1176  1.0880 -1.6891
 2230TIP3    H228106   5.681   2.219   5.183 -1.2890  1.7035 -1.5493
 2231TIP3   OH228107   4.092   2.664   1.190  0.5870  0.1896  0.0632
 2231TIP3    H128108   4.034   2.588   1.193 -2.3472  2.3027  2.2555
 2231TIP3    H228109   4.063   2.713   1.113  0.2785  0.6394  0.4601
 2232TIP3   OH228110   1.460   0.081   6.493 -0.1584 -0.2006 -0.0637
 2232TIP3    H128111   1.521   0.115   6.427  1.2045 -1.5183  0.4605
 2232TIP3    H228112   1.479  -0.013   6.497 -1.2475 -0.3979  1.1568
 2233TIP3   OH228113   3.272   2.608  16.092  0.5181  0.4172  0.3619
 2233TIP3    H128114   3.339   2.613  16.160  1.2333  1.6388 -0.3791
 2233TIP3    H228115   3.292   2.682  16.034 -0.0723 -0.5672 -1.1650
 2234TIP3   OH228116   1.396   1.328  14.978 -0.2847 -0.1557  0.1825
 2234TIP3    H128117   1.442   1.409  14.999 -0.8441 -0.0488  1.0594
 2234TIP3    H228118   1.339   1.350  14.905 -0.5262  0.2757  0.5000
 2235TIP3   OH228119   1.602   5.829  16.565 -0.6558 -0.3754  0.0863
 2235TIP3    H128120   1.691   5.862  16.580 -0.3942 -1.0838  0.1772
 2235TIP3    H228121   1.575   5.869  16.483  0.0937 -0.8240 -0.3970
 2236TIP3   OH228122   4.096   2.614  11.985 -0.2983 -0.3227 -0.3612
 2236TIP3    H128123   4.003   2.590  11.982 -0.7473  1.2904 -0.9467
 2236TIP3    H228124   4.113   2.652  11.899  0.6833  0.1492  0.0238
 2237TIP3   OH228125   5.873   5.626  13.766 -0.4144  0.8410 -0.1707
 2237TIP3    H128126   5.917   5.555  13.815  0.6873  0.3633 -1.7657
 2237TIP3    H228127   5.940   5.694  13.758  0.3762 -0.1342 -3.1575
 2238TIP3   OH228128   1.481   3.975   3.222  0.2454 -0.2083 -0.3235
 2238TIP3    H128129   1.544   4.026   3.171 -1.3079 -0.0504 -2.2186
 2238TIP3    H228130   1.426   4.041   3.265  0.6832 -0.3370  0.4488
 2239TIP3   OH228131   0.835   3.080  13.382 -0.1730 -0.1253  0.5236
 2239TIP3    H128132   0.808   3.031  13.304 -1.5009 -1.2297  1.6308
 2239TIP3    H228133   0.930   3.090  13.372  0.0566 -2.3820 -0.0750
 2240TIP3   OH228134   4.697   0.046  11.703  0.2267  0.7548  0.5619
 2240TIP3    H128135   4.656   0.001  11.629  0.6169  0.3151  0.6020
 2240TIP3    H228136   4.789   0.053  11.678  0.3730  0.5494  1.0241
 2241TIP3   OH228137   2.089   1.813   5.014 -0.0989 -0.0023  0.3287
 2241TIP3    H128138   2.147   1.888   5.027 -0.7265  0.4345  0.6540
 2241TIP3    H228139   2.001   1.850   5.013 -0.4034 -0.7049  0.2614
 2242TIP3   OH228140   0.910   4.829   1.136  0.1092 -0.1382  0.0685
 2242TIP3    H128141   0.890   4.825   1.042  0.3955 -0.2162  0.0094
 2242TIP3    H228142   1.005   4.839   1.140  0.0817  0.0268  0.3489
 2243TIP3   OH228143   2.936   3.009   6.067 -0.7840 -0.2331  0.0293
 2243TIP3    H128144   2.951   3.075   5.998 -0.6543 -1.5628 -1.2763
 2243TIP3    H228145   2.999   2.939   6.046  1.0892  0.3769  3.0171
 2244TIP3   OH228146   2.888   5.468  16.696  0.5387 -0.0969  0.3836
 2244TIP3    H128147   2.832   5.523  16.751 -1.6597 -2.3833  0.6066
 2244TIP3    H228148   2.936   5.414  16.758 -1.8383 -2.5784  0.2750
 2245TIP3   OH228149   2.224   1.465  15.354 -0.6586 -0.3078 -0.1872
 2245TIP3    H128150   2.242   1.479  15.261 -1.1066 -1.7297 -0.5174
 2245TIP3    H228151   2.129   1.476  15.363 -0.6722 -0.5617  0.0186
 2246TIP3   OH228152   3.644   0.495   3.429 -0.7037  0.2891  0.3506
 2246TIP3    H128153   3.595   0.462   3.354 -0.3382  0.6652 -0.0579
 2246TIP3    H228154   3.582   0.551   3.475 -0.9469  0.0096  0.3665
 2247TIP3   OH228155   1.513   3.495  15.479 -0.4655  0.0383 -0.2405
 2247TIP3    H128156   1.471   3.576  15.506 -0.4803 -0.0709  0.0768
 2247TIP3    H228157   1.500   3.436  15.554 -0.5711 -0.2969 -0.5192
 2248TIP3   OH228158   2.167   4.843  11.874  0.5036 -0.6938 -0.1182
 2248TIP3    H128159   2.086   4.893  11.865  0.1838 -1.1250  0.2915
 2248TIP3    H228160   2.190   4.819  11.784 -0.2373 -1.2011 -0.1856
 2249TIP3   OH228161   6.206   2.923   0.751  0.1463 -0.1668  0.5361
 2249TIP3    H128162   6.241   2.843   0.712 -1.4456 -0.2262 -0.8978
 2249TIP3    H228163   6.167   2.895   0.834 -1.5793 -1.1862 -0.5577
 2250TIP3   OH228164   0.040   0.996   4.724  0.0882  0.1104  0.0877
 2250TIP3    H128165  -0.024   1.067   4.721 -1.0238 -0.8614  0.4353
 2250TIP3    H228166  -0.010   0.918   4.747  1.3885 -0.6853  0.3648
 2251TIP3   OH228167   2.949   1.508  13.159  0.2511  0.1496  0.0778
 2251TIP3    H128168   2.916   1.421  13.140  0.8651 -0.4853  1.7257
 2251TIP3    H228169   2.884   1.547  13.217  2.1213 -1.0772  3.2721
 2252TIP3   OH228170   3.905   6.517  11.665 -0.0963  0.3064  1.2259
 2252TIP3    H128171   3.998   6.506  11.645 -0.5740 -1.7343 -0.2385
 2252TIP3    H228172   3.903   6.554  11.753  2.0864  2.7568  0.3846
 2253TIP3   OH228173   5.366   1.040   4.946 -0.3448 -0.1330  0.0557
 2253TIP3    H128174   5.313   1.059   4.868  0.3823 -0.6071 -0.5706
 2253TIP3    H228175   5.409   1.123   4.966  0.3425 -0.2789 -0.7427
 2254TIP3   OH228176   4.117   1.346  17.031  0.5233 -0.1753 -0.1102
 2254TIP3    H128177   4.029   1.332  17.065  0.5907  0.5339  0.3859
 2254TIP3    H228178   4.164   1.265  17.049 -0.2660 -0.8996 -1.1929
 2255TIP3   OH228179   4.152   1.624  14.199  0.5881  0.1587  0.4348
 2255TIP3    H128180   4.111   1.607  14.284  0.4024  1.0780  0.5367
 2255TIP3    H228181   4.221   1.688  14.218 -1.9198  3.4735 -0.6053
 2256TIP3   OH228182   0.310   4.132   0.505 -0.0776 -0.6590  0.5408
 2256TIP3    H128183   0.282   4.046   0.535 -1.7686 -0.3667 -0.1249
 2256TIP3    H228184   0.241   4.192   0.534  0.4198  0.2778 -0.1447
 2257TIP3   OH228185   0.673   4.124   1.436 -0.3944 -0.1261 -0.7737
 2257TIP3    H128186   0.720   4.129   1.519 -1.5376 -1.3019 -0.0197
 2257TIP3    H228187   0.678   4.031   1.412  0.2290  0.2449 -2.2326
 2258TIP3   OH228188   3.500   4.614   2.468 -0.0282  0.5045  0.0626
 2258TIP3    H128189   3.536   4.675   2.533  2.5807 -1.3367  0.5093
 2258TIP3    H228190   3.472   4.539   2.520  0.8455 -0.4402 -0.7934
 2259TIP3   OH228191   2.495   0.535  11.827 -0.0251  0.0780  0.1048
 2259TIP3    H128192   2.549   0.609  11.798 -0.0340 -0.1764 -0.5535
 2259TIP3    H228193   2.536   0.506  11.908  1.0313 -0.3357 -0.5727
 2260TIP3   OH228194   5.662   3.867  15.892 -0.1430  0.4047 -0.2833
 2260TIP3    H128195   5.633   3.884  15.802  0.7201 -0.2845 -0.7132
 2260TIP3    H228196   5.753   3.837  15.882 -0.8112 -2.1461  0.5542
 2261TIP3   OH228197   5.792   3.766   2.182  0.5718 -0.0665  0.8503
 2261TIP3    H128198   5.723   3.710   2.218 -0.7521  0.3330 -0.9419
 2261TIP3    H228199   5.757   3.855   2.190  0.2879  0.0476 -1.2011
 2262TIP3   OH228200   3.454   3.156  13.520 -0.1629 -0.3849 -0.1746
 2262TIP3    H128201   3.361   3.133  13.515 -0.7632  1.4718  1.1688
 2262TIP3    H228202   3.462   3.236  13.468  1.4571 -2.2609 -3.1094
 2263TIP3   OH228203   3.480   0.847   6.499  0.2308 -0.3858 -0.2381
 2263TIP3    H128204   3.487   0.791   6.576  0.6988  0.8141  0.6238
 2263TIP3    H228205   3.570   0.855   6.467  0.4259  1.0901  0.5777
 2264TIP3   OH228206   5.608   3.805  15.636 -0.0294  0.5489  0.2950
 2264TIP3    H128207   5.669   3.763  15.576 -0.1437  1.3603 -0.4202
 2264TIP3    H228208   5.584   3.886  15.591 -0.1747  1.1387  1.4118
 2265TIP3   OH228209   0.899   4.117   3.163 -0.4047  0.3687 -0.2956
 2265TIP3    H128210   0.804   4.111   3.177 -0.4230  0.4844 -0.3643
 2265TIP3    H228211   0.920   4.042   3.108 -0.4576  0.3470 -0.2861
 2266TIP3   OH228212   5.701   0.401   4.590  0.3373  0.7239 -0.3428
 2266TIP3    H128213   5.614   0.434   4.614  1.0729  1.1746  1.9898
 2266TIP3    H228214   5.754   0.480   4.578  1.0101  0.4829  0.8197
 2267TIP3   OH228215   0.441   4.734   3.990 -0.3043  0.5208 -0.2411
 2267TIP3    H128216   0.490   4.716   4.071 -0.9264  1.9611  0.4858
 2267TIP3    H228217   0.491   4.802   3.946 -0.7265  0.7598 -0.3564
 2268TIP3   OH228218   2.088   1.710   1.510  0.3369 -0.3901 -0.0063
 2268TIP3    H128219   2.180   1.700   1.532  1.1783  1.4326 -2.2877
 2268TIP3    H228220   2.086   1.710   1.414 -1.7839  1.2380 -0.0354
 2269TIP3   OH228221   4.987   1.315   3.409 -0.3668  0.2595  0.3143
 2269TIP3    H128222   5.057   1.255   3.383 -1.1831 -0.3319 -0.5679
 2269TIP3    H228223   4.906   1.269   3.387 -1.0209  1.3976  0.2584
 2270TIP3   OH228224   5.172   5.009   5.523  0.5318 -0.3107 -0.1287
 2270TIP3    H128225   5.262   5.001   5.493  0.2201  1.2532 -1.6503
 2270TIP3    H228226   5.126   4.936   5.482  0.8534 -0.3048 -0.5045
 2271TIP3   OH228227   2.639   2.384   2.758 -0.3124  0.4539  0.5898
 2271TIP3    H128228   2.670   2.472   2.735 -1.8339  0.9963  0.4792
 2271TIP3    H228229   2.712   2.326   2.736  0.3682  1.5896 -0.2511
 2272TIP3   OH228230   4.812   2.311  11.942  0.0036 -0.4357 -0.3934
 2272TIP3    H128231   4.831   2.403  11.928 -1.1691  0.1299  1.3455
 2272TIP3    H228232   4.720   2.309  11.968  0.8933 -1.5610  3.4075
 2273TIP3   OH228233   2.517   2.592  14.224 -0.1168  0.0622  0.4436
 2273TIP3    H128234   2.498   2.633  14.140 -0.2971  0.4992  0.6924
 2273TIP3    H228235   2.520   2.665  14.286  0.3224 -0.2221  0.7635
 2274TIP3   OH228236   4.593   4.744   2.444 -0.4638 -1.0997 -0.2666
 2274TIP3    H128237   4.579   4.713   2.355 -2.2928 -1.2237  0.0410
 2274TIP3    H228238   4.630   4.832   2.433 -2.2633 -0.4166 -1.1694
 2275TIP3   OH228239   5.943   1.097   2.946  0.3595  0.2889  0.0450
 2275TIP3    H128240   6.027   1.120   2.905  1.3044  1.1755  2.3029
 2275TIP3    H228241   5.934   1.159   3.018 -1.6104 -0.6628  0.6869
 2276TIP3   OH228242   0.439   3.976   2.602 -0.1804  0.2928  0.1879
 2276TIP3    H128243   0.454   3.892   2.560  0.2449  0.0543  0.8046
 2276TIP3    H228244   0.496   4.037   2.554  2.8342 -0.5763  2.4027
 2277TIP3   OH228245   2.455   6.633   4.573  0.6098  0.0816 -0.0820
 2277TIP3    H128246   2.367   6.669   4.567  0.5156 -0.3613 -2.2933
 2277TIP3    H228247   2.453   6.578   4.651 -0.3876  1.7730  1.1470
 2278TIP3   OH228248   5.390   5.196  15.021  0.5010  0.0193  0.5410
 2278TIP3    H128249   5.408   5.152  15.104  0.5186 -0.4523  0.2931
 2278TIP3    H228250   5.303   5.165  14.996 -0.6120  2.0950  1.6065
 2279TIP3   OH228251   4.491   1.207  16.806 -0.3833 -0.6195  0.5331
 2279TIP3    H128252   4.469   1.114  16.799  2.1614 -1.2751  0.0274
 2279TIP3    H228253   4.527   1.230  16.720 -0.0409  0.5500  0.9677
 2280TIP3   OH228254   1.404   2.462   3.069 -0.2388  0.1975 -0.1473
 2280TIP3    H128255   1.384   2.414   2.989  1.3164 -0.3164 -0.2701
 2280TIP3    H228256   1.320   2.492   3.101 -0.8119  1.2561 -2.4826
 2281TIP3   OH228257   5.963   1.241   4.690  0.2879 -0.5164 -0.4496
 2281TIP3    H128258   5.989   1.284   4.772  2.1043 -0.7953 -0.8391
 2281TIP3    H228259   5.889   1.293   4.658 -1.6584 -1.4090  2.1931
 2282TIP3   OH228260   1.259   1.606  15.746  0.8421 -0.2804  0.3727
 2282TIP3    H128261   1.203   1.530  15.762 -0.0826  0.0527 -1.0714
 2282TIP3    H228262   1.348   1.573  15.757  0.4108 -0.8967  2.4166
 2283TIP3   OH228263   6.274   1.031  11.229  0.0112 -1.0146 -1.1286
 2283TIP3    H128264   6.289   1.064  11.141  0.2660  0.3056 -0.6116
 2283TIP3    H228265   6.335   1.080  11.284 -1.3127 -0.5819  0.0213
 2284TIP3   OH228266   0.015   5.980  15.713  0.2321  0.0431 -0.2679
 2284TIP3    H128267  -0.024   6.012  15.795  0.2044  1.6859 -0.8919
 2284TIP3    H228268   0.098   6.028  15.706  0.3381 -0.2504 -1.0845
 2285TIP3   OH228269   4.173   0.187   1.851 -1.1866 -0.4772 -0.1157
 2285TIP3    H128270   4.257   0.188   1.806 -1.2262  0.9127 -0.2144
 2285TIP3    H228271   4.108   0.194   1.782 -1.2968  0.2986  0.0516
 2286TIP3   OH228272   6.299   1.464   3.092  0.0870  0.4003  0.1564
 2286TIP3    H128273   6.258   1.550   3.084  0.6130  0.6715  0.2996
 2286TIP3    H228274   6.270   1.431   3.177  2.1925  1.7181  1.4821
 2287TIP3   OH228275   1.811   6.101  11.702 -0.5293  0.0310  0.0429
 2287TIP3    H128276   1.837   6.030  11.760 -0.8692 -0.8777 -0.8834
 2287TIP3    H228277   1.720   6.082  11.680 -1.4977  2.1731  1.7945
 2288TIP3   OH228278   0.607   4.092   4.684  0.2549  0.0940 -0.1201
 2288TIP3    H128279   0.596   3.999   4.703  0.0831  0.1435  0.0206
 2288TIP3    H228280   0.563   4.105   4.601 -0.4783  0.2242  0.2808
 2289TIP3   OH228281   3.409   1.425   3.602  0.3258  0.0071 -0.2618
 2289TIP3    H128282   3.464   1.473   3.665 -1.6077  2.2382 -0.1402
 2289TIP3    H228283   3.395   1.340   3.643  0.7095  0.7012  1.4092
 2290TIP3   OH228284   5.797   3.604   0.145 -0.0397  0.8904 -0.0827
 2290TIP3    H128285   5.766   3.671   0.083 -1.2770 -0.6942 -1.2460
 2290TIP3    H228286   5.839   3.655   0.215 -0.3750  2.8507 -1.2166
 2291TIP3   OH228287   3.437   2.525  15.091  0.6541 -0.3564 -0.0934
 2291TIP3    H128288   3.406   2.567  15.010 -1.3804  0.1428  0.8669
 2291TIP3    H228289   3.421   2.591  15.159 -2.3798 -2.4251  1.4274
 2292TIP3   OH228290   0.069   3.577  14.221 -0.3576  0.2667 -0.1888
 2292TIP3    H128291   0.014   3.649  14.254 -0.7367 -0.1476  0.1026
 2292TIP3    H228292   0.100   3.533  14.300 -0.1224  0.1122 -0.3676
 2293TIP3   OH228293   0.067   6.337   4.169 -0.5853  0.1364 -0.0170
 2293TIP3    H128294   0.093   6.313   4.080 -1.7728  0.6170 -0.5143
 2293TIP3    H228295   0.149   6.340   4.218  0.2011  0.7366 -1.3090
 2294TIP3   OH228296   5.807   5.830   2.289 -0.2843  0.0362 -0.0727
 2294TIP3    H128297   5.792   5.914   2.332  0.8879 -0.7296  1.9343
 2294TIP3    H228298   5.773   5.843   2.200 -0.2134  2.5894  0.1973
 2295TIP3   OH228299   2.771   3.254   1.655 -0.1330  0.0034  0.2875
 2295TIP3    H128300   2.755   3.345   1.633  2.8261  1.1930  2.4316
 2295TIP3    H228301   2.702   3.231   1.717 -0.7429  0.8434 -0.0662
 2296TIP3   OH228302   4.735   1.893   1.305 -0.8055  0.2020  0.7789
 2296TIP3    H128303   4.716   1.869   1.396 -0.4142  0.1257  0.8429
 2296TIP3    H228304   4.780   1.817   1.269 -2.0699 -0.2783  0.1388
 2297TIP3   OH228305   5.586   5.875  12.698 -0.5335  0.6670 -0.3505
 2297TIP3    H128306   5.654   5.934  12.732 -0.6354  0.1234  0.8688
 2297TIP3    H228307   5.625   5.835  12.621 -1.0313  3.4638 -2.1904
 2298TIP3   OH228308   1.663   3.673  13.301 -0.0337  0.2653  0.3235
 2298TIP3    H128309   1.582   3.633  13.270 -0.2163 -0.4919  1.6570
 2298TIP3    H228310   1.715   3.599  13.334  1.1434  0.7540 -0.3777
 2299TIP3   OH228311   6.307   4.050   6.170  0.3661 -0.3281 -0.0645
 2299TIP3    H128312   6.227   4.018   6.129 -0.2647  1.0598  0.0237
 2299TIP3    H228313   6.281   4.072   6.259  0.5170  1.2946 -0.3930
 2300TIP3   OH228314   3.851   4.042  13.034 -0.4226  0.1109 -0.0594
 2300TIP3    H128315   3.883   3.953  13.019  1.9078  0.6907  1.0690
 2300TIP3    H228316   3.805   4.037  13.117 -0.1512 -0.0167  0.0848
 2301TIP3   OH228317   5.949   5.552  13.024  0.3721 -0.2861  0.2991
 2301TIP3    H128318   5.888   5.569  12.952  2.1243 -1.2126 -1.4887
 2301TIP3    H228319   5.934   5.459  13.046 -0.1907  0.0034  1.2185
 2302TIP3   OH228320   4.763   1.018   6.678 -0.3490  0.7617 -0.1324
 2302TIP3    H128321   4.808   0.997   6.760  0.2786  0.4468 -0.5439
 2302TIP3    H228322   4.780   0.943   6.622 -0.7720  0.9767 -0.5522
 2303TIP3   OH228323   5.599   2.879   0.776  0.8108 -0.0937  0.1996
 2303TIP3    H128324   5.676   2.937   0.781  0.0639  0.9505  0.0370
 2303TIP3    H228325   5.535   2.919   0.834 -0.7504  0.9028 -2.0383
 2304TIP3   OH228326   4.797   3.101   2.560  0.0355  0.3615  0.3319
 2304TIP3    H128327   4.870   3.160   2.576 -0.0689  1.4224 -2.5866
 2304TIP3    H228328   4.722   3.158   2.544  0.0550 -0.4051 -3.1228
 2305TIP3   OH228329   2.777   3.375  13.470  0.4483  0.2033  0.0510
 2305TIP3    H128330   2.706   3.438  13.484 -0.4656 -0.8789  0.4317
 2305TIP3    H228331   2.768   3.349  13.378  0.1813 -0.1189  0.1651
 2306TIP3   OH228332   3.275   1.696  16.415 -0.0495  0.5925  0.3957
 2306TIP3    H128333   3.230   1.715  16.332  0.9053  0.4415 -0.1727
 2306TIP3    H228334   3.305   1.782  16.445 -0.4640  0.6581  0.6422
 2307TIP3   OH228335   5.710   1.379   0.248  0.4731 -0.6596  0.6896
 2307TIP3    H128336   5.795   1.368   0.205  0.1824 -0.1039 -0.0561
 2307TIP3    H228337   5.666   1.447   0.196 -0.8373 -1.6600  0.4554
 2308TIP3   OH228338   2.422   1.171   6.238  0.4382  0.1605 -0.0174
 2308TIP3    H128339   2.483   1.243   6.250 -0.1552  0.5758  0.5565
 2308TIP3    H228340   2.398   1.175   6.145 -0.1907  1.1964  0.1809
 2309TIP3   OH228341   0.017   1.986  13.793 -0.8812 -0.0765 -0.2755
 2309TIP3    H128342   0.054   2.074  13.791  0.0623 -0.4601 -0.5651
 2309TIP3    H228343   0.028   1.958  13.884 -0.3327 -0.2313 -0.3848
 2310TIP3   OH228344   5.739   5.436   1.155 -0.3140  0.7342 -0.4494
 2310TIP3    H128345   5.803   5.374   1.190 -0.7027 -1.3413 -3.1347
 2310TIP3    H228346   5.671   5.441   1.222  0.8342  0.0558  0.8069
 2311TIP3   OH228347   4.235   6.587   6.158 -0.5462 -0.2442 -0.2365
 2311TIP3    H128348   4.161   6.646   6.173  0.3808  0.6239  1.0801
 2311TIP3    H228349   4.248   6.589   6.063 -0.5693  1.6525 -0.2387
 2312TIP3   OH228350   1.837   3.060   2.673 -0.6670  0.1761  0.1929
 2312TIP3    H128351   1.928   3.063   2.700  0.0709 -1.0941 -1.8751
 2312TIP3    H228352   1.821   3.145   2.632 -0.5518  0.5523  0.9137
 2313TIP3   OH228353   3.254   4.646  14.679  0.2328  0.2519 -0.2965
 2313TIP3    H128354   3.241   4.590  14.755 -1.1521  0.8122 -0.0928
 2313TIP3    H228355   3.222   4.594  14.605  0.2178  0.2637 -0.2984
 2314TIP3   OH228356   1.159   3.910  13.881  0.2305 -0.2461  0.0009
 2314TIP3    H128357   1.187   3.824  13.913  1.0791  0.4659  1.2364
 2314TIP3    H228358   1.119   3.952  13.957 -2.0757 -0.2846 -1.0827
 2315TIP3   OH228359   3.725   3.349  15.935  0.2707 -0.1626  0.3036
 2315TIP3    H128360   3.742   3.405  16.010 -0.8614  0.6733 -0.0294
 2315TIP3    H228361   3.812   3.330  15.899  0.6893  2.1814 -0.1256
 2316TIP3   OH228362   2.124   0.494  14.545  0.0442  0.3655 -0.7849
 2316TIP3    H128363   2.187   0.511  14.615 -0.2892  1.6791 -0.7619
 2316TIP3    H228364   2.055   0.559  14.559 -1.3565 -1.0642 -0.7816
 2317TIP3   OH228365   0.487   3.972  11.728 -0.6909 -0.3072  0.3471
 2317TIP3    H128366   0.439   3.902  11.683 -1.4168 -0.7695  1.7839
 2317TIP3    H228367   0.480   3.951  11.821  0.9422  0.5166  0.7018
 2318TIP3   OH228368   0.740   4.658  13.286  0.4015  0.2867 -0.2800
 2318TIP3    H128369   0.783   4.714  13.351  5.7461 -1.6785 -1.6184
 2318TIP3    H228370   0.757   4.702  13.203 -1.7801  0.1405 -0.8754
 2319TIP3   OH228371   1.282   1.533  16.103  0.0831  0.0070 -0.2704
 2319TIP3    H128372   1.363   1.569  16.140  0.5007 -0.7058 -0.4585
 2319TIP3    H228373   1.278   1.570  16.015  1.1022 -1.2045 -0.8808
 2320TIP3   OH228374   0.495   0.970   0.976 -0.0032  0.5934  0.0002
 2320TIP3    H128375   0.450   1.037   0.925 -1.2376 -0.4106 -0.2896
 2320TIP3    H228376   0.518   1.013   1.058  0.5801  1.7841 -0.7554
 2321TIP3   OH228377   0.099   6.710  15.333  0.2617 -0.0876  0.5690
 2321TIP3    H128378   0.054   6.706  15.249  0.8226 -0.5865  0.2861
 2321TIP3    H228379   0.084   6.624  15.373  2.3512 -0.9345 -0.2822
 2322TIP3   OH228380   4.834   2.552  11.604 -0.2742 -0.9850 -0.0934
 2322TIP3    H128381   4.830   2.605  11.525  1.0283 -1.5633 -0.5639
 2322TIP3    H228382   4.861   2.613  11.673  0.3030 -0.8365 -0.4470
 2323TIP3   OH228383   3.846   3.473  16.196  0.5537 -0.4719  0.2675
 2323TIP3    H128384   3.931   3.445  16.164 -0.0708 -0.1922 -1.8072
 2323TIP3    H228385   3.856   3.567  16.212  0.1218  0.0529 -2.1191
 2324TIP3   OH228386   4.069   3.194   3.880 -0.1606  0.1300  0.1006
 2324TIP3    H128387   3.977   3.217   3.867 -0.2868  0.7169  1.7400
 2324TIP3    H228388   4.115   3.278   3.880  0.3916 -0.1562 -0.6894
 2325TIP3   OH228389   4.348   1.143  11.056 -0.2672 -0.5952 -0.1713
 2325TIP3    H128390   4.350   1.067  10.998 -0.6580  0.5523 -1.7492
 2325TIP3    H228391   4.258   1.175  11.050 -0.6602 -1.1225  2.0424
 2326TIP3   OH228392   2.118   0.362  11.636  0.4254 -0.4512  0.6425
 2326TIP3    H128393   2.134   0.353  11.730  1.6616 -1.7646  0.3359
 2326TIP3    H228394   2.167   0.440  11.610  0.9463 -0.6975  0.8918
 2327TIP3   OH228395   1.001   0.877   5.261  0.0582  0.1218  0.1563
 2327TIP3    H128396   0.916   0.893   5.303  0.8143 -2.1966  2.9019
 2327TIP3    H228397   1.050   0.958   5.275 -1.2135  1.0103 -0.3054
 2328TIP3   OH228398   3.972   2.702  14.306  0.1177  0.0416  0.1846
 2328TIP3    H128399   3.911   2.692  14.379  1.8731 -1.4426  1.5499
 2328TIP3    H228400   4.019   2.783  14.325  0.2515 -0.0998  0.4598
 2329TIP3   OH228401   1.652   3.945   1.454  0.4044 -0.4210  0.2882
 2329TIP3    H128402   1.559   3.966   1.449  1.0229  3.2715  1.2902
 2329TIP3    H228403   1.686   3.964   1.366  0.4179 -0.6735  0.2370
 2330TIP3   OH228404   2.792   5.724   2.629 -0.7319 -0.2525 -0.2158
 2330TIP3    H128405   2.810   5.636   2.597 -3.1159 -0.9665  0.1959
 2330TIP3    H228406   2.801   5.717   2.724  2.4341  0.8848 -0.3059
 2331TIP3   OH228407   2.838   3.504  15.199 -0.0762  0.2453  0.3502
 2331TIP3    H128408   2.859   3.590  15.234  1.2546 -0.5948  1.7706
 2331TIP3    H228409   2.874   3.504  15.110 -0.4770  1.2872  0.1834
 2332TIP3   OH228410   3.379   1.031   5.329 -0.3274  0.6491  0.8934
 2332TIP3    H128411   3.404   1.098   5.264  0.8755  0.1632  0.8311
 2332TIP3    H228412   3.376   0.950   5.279 -1.7893  0.6354  0.9698
 2333TIP3   OH228413   2.002   6.067   2.650  0.4132  0.0741  0.2904
 2333TIP3    H128414   2.006   6.051   2.744 -0.8930  1.0204  0.5436
 2333TIP3    H228415   1.995   6.162   2.643  1.6598  0.1100 -0.8348
 2334TIP3   OH228416   5.507   0.936  13.501  0.2854  0.1980 -0.4975
 2334TIP3    H128417   5.498   0.899  13.413 -0.8605  0.1298 -0.3679
 2334TIP3    H228418   5.576   1.001  13.493 -0.1564  0.5513 -1.5745
 2335TIP3   OH228419   2.177   2.964  15.517 -0.2668 -0.6952  0.1969
 2335TIP3    H128420   2.194   2.876  15.549  1.1394 -0.1200  1.1367
 2335TIP3    H228421   2.204   3.021  15.589 -2.7120  0.4824  0.2760
 2336TIP3   OH228422   5.296   2.228  15.289  0.5764  0.1308  1.0134
 2336TIP3    H128423   5.379   2.216  15.334  1.2341 -1.1962 -0.4409
 2336TIP3    H228424   5.313   2.297  15.225  0.1193  0.8574  1.6528
 2337TIP3   OH228425   5.585   4.252  12.910  0.4354  0.4143  0.0341
 2337TIP3    H128426   5.530   4.265  12.988 -0.1576  0.8663 -0.4446
 2337TIP3    H228427   5.672   4.232  12.945  0.1687  0.5711  0.8143
 2338TIP3   OH228428   3.447   5.663  15.668  0.1375  0.1540  0.8041
 2338TIP3    H128429   3.442   5.748  15.711 -0.8619 -0.0861  1.2028
 2338TIP3    H228430   3.499   5.609  15.728 -0.4070  0.1010  1.2416
 2339TIP3   OH228431   1.510   2.556  15.625 -0.0952 -0.8302  0.0598
 2339TIP3    H128432   1.560   2.573  15.705 -0.7280 -0.8608  0.4711
 2339TIP3    H228433   1.524   2.633  15.571 -0.6523 -0.2334  0.7257
 2340TIP3   OH228434   5.134   5.073   2.428 -0.5521 -0.1636 -0.3619
 2340TIP3    H128435   5.067   5.129   2.468 -2.4459 -1.7493 -1.0996
 2340TIP3    H228436   5.113   4.985   2.461  1.6531 -0.6241 -0.0708
 2341TIP3   OH228437   3.738   5.917  12.318 -0.3238 -0.1074 -0.6431
 2341TIP3    H128438   3.682   5.975  12.368 -1.0121 -2.3370  1.4088
 2341TIP3    H228439   3.734   5.834  12.366  3.6967 -0.7712 -1.1039
 2342TIP3   OH228440   5.876   1.998  15.184  0.6009 -0.4723  0.2671
 2342TIP3    H128441   5.814   1.925  15.190  0.2398 -0.1804  0.1354
 2342TIP3    H228442   5.841   2.053  15.114  0.6886 -0.0008  0.5891
 2343TIP3   OH228443   5.682   6.095   1.358  1.0576 -0.6245  0.2046
 2343TIP3    H128444   5.729   6.025   1.313  2.4049  0.1727  0.2926
 2343TIP3    H228445   5.595   6.095   1.320  1.6619 -1.0470 -1.2335
 2344TIP3   OH228446   0.964   5.911   4.158 -1.1774 -0.0106 -0.2049
 2344TIP3    H128447   0.931   5.964   4.085  1.0301 -0.4077 -1.6042
 2344TIP3    H228448   0.934   5.823   4.138  0.4558 -0.3523 -1.4181
 2345TIP3   OH228449   5.984   6.381  12.174  0.2703  0.3397 -0.1130
 2345TIP3    H128450   5.897   6.343  12.191 -0.8970  2.3112 -1.2838
 2345TIP3    H228451   6.008   6.423  12.256  0.0814 -0.1075  0.1799
 2346TIP3   OH228452   5.326   5.555  15.929 -0.0492 -0.0430 -0.4442
 2346TIP3    H128453   5.398   5.607  15.965  0.6297 -1.5532  0.4575
 2346TIP3    H228454   5.257   5.619  15.912  1.5685  1.5025 -1.6093
 2347TIP3   OH228455   3.714   5.012  11.200 -0.3433 -0.4180  0.2564
 2347TIP3    H128456   3.670   4.961  11.132 -1.4368  2.3617 -1.3219
 2347TIP3    H228457   3.787   5.055  11.155 -0.2766  0.4448  1.1400
 2348TIP3   OH228458   1.895   4.129  12.188 -0.0124  0.0268  0.1772
 2348TIP3    H128459   1.955   4.115  12.262 -0.2388 -1.7351  0.0765
 2348TIP3    H228460   1.810   4.143  12.230  0.2115  1.2105  0.2803
 2349TIP3   OH228461   5.132   5.296   5.536  0.1355 -0.0572 -0.2711
 2349TIP3    H128462   5.122   5.201   5.542 -2.1595  0.1895  3.5535
 2349TIP3    H228463   5.053   5.326   5.493 -0.9614  0.2104  1.8019
 2350TIP3   OH228464   6.640   3.902   1.904  0.0812 -0.0709 -0.2855
 2350TIP3    H128465   6.722   3.943   1.879 -0.4264  1.6792  0.7625
 2350TIP3    H228466   6.653   3.809   1.885  1.9298  0.2969 -1.0409
 2351TIP3   OH228467   5.455   2.496   4.398 -0.4529  0.6562 -0.2008
 2351TIP3    H128468   5.453   2.409   4.359 -3.1968  1.9991 -3.6485
 2351TIP3    H228469   5.516   2.545   4.343  0.7766  1.0794  1.4693
 2352TIP3   OH228470   6.488   0.227  15.224  0.2524  0.3516 -0.0295
 2352TIP3    H128471   6.438   0.274  15.157 -1.3582 -1.1065  0.0807
 2352TIP3    H228472   6.568   0.201  15.180  0.4515  1.7796 -0.5575
 2353TIP3   OH228473   6.221   1.483   2.120  0.0745 -0.0981 -0.1821
 2353TIP3    H128474   6.189   1.494   2.209 -0.5714 -1.6361 -0.1863
 2353TIP3    H228475   6.246   1.391   2.114  0.8823  0.1681 -1.3503
 2354TIP3   OH228476   4.456   6.474   0.480 -0.2019  0.1613  0.1036
 2354TIP3    H128477   4.423   6.562   0.463 -1.2297 -0.1913  0.2013
 2354TIP3    H228478   4.550   6.479   0.461 -0.6148  0.7313 -2.0539
 2355TIP3   OH228479   6.547   3.719   4.158 -0.3589  0.0512 -0.5351
 2355TIP3    H128480   6.592   3.781   4.215  1.1691 -1.0762 -0.4697
 2355TIP3    H228481   6.460   3.709   4.198  0.5868 -0.5676  1.5227
 2356TIP3   OH228482   2.607   5.425   2.542  0.4361  0.5335 -0.1111
 2356TIP3    H128483   2.701   5.437   2.549  0.3887  0.4426  0.9702
 2356TIP3    H228484   2.592   5.333   2.566 -0.1008  1.1294  2.0655
 2357TIP3   OH228485   4.747   3.602   2.166  0.9911  0.9427  0.2534
 2357TIP3    H128486   4.782   3.608   2.077  0.5132  0.3966  0.0169
 2357TIP3    H228487   4.687   3.527   2.162  2.2175 -0.1648  1.4473
 2358TIP3   OH228488   2.530   2.780   2.872  0.0645 -0.0628  0.1650
 2358TIP3    H128489   2.540   2.761   2.965  0.4009 -1.6229 -0.1623
 2358TIP3    H228490   2.506   2.696   2.833  2.6291 -0.1342 -1.5402
 2359TIP3   OH228491   4.997   1.311  11.911 -0.4350 -0.1270  0.3357
 2359TIP3    H128492   4.955   1.374  11.852 -1.1647  0.9959  2.0068
 2359TIP3    H228493   4.936   1.237  11.915 -1.2858  0.5935  1.1029
 2360TIP3   OH228494   0.456   5.548  17.088 -0.1446 -0.4047  0.0928
 2360TIP3    H128495   0.532   5.606  17.091 -1.7815  1.9455 -0.5962
 2360TIP3    H228496   0.473   5.491  17.012  1.2653 -0.4956  0.4445
 2361TIP3   OH228497   2.477   4.125  11.334  0.1162 -0.3831 -0.0424
 2361TIP3    H128498   2.447   4.149  11.422 -1.3840  1.6368 -1.0080
 2361TIP3    H228499   2.570   4.145  11.334  0.2128 -0.7505  1.1890
 2362TIP3   OH228500   5.923   1.833  14.359 -0.7756 -0.0139  0.2471
 2362TIP3    H128501   5.835   1.871  14.359 -0.3008  1.1903  1.7794
 2362TIP3    H228502   5.982   1.909  14.360  0.3397 -0.7849 -1.5207
 2363TIP3   OH228503   6.568   6.509  16.081  0.1163  0.5029 -0.4519
 2363TIP3    H128504   6.509   6.572  16.040 -0.9426  1.4264  2.3153
 2363TIP3    H228505   6.652   6.554  16.086  0.1896  0.4811 -1.2795
 2364TIP3   OH228506   5.139   4.228   4.028  0.3087  0.3701  0.1791
 2364TIP3    H128507   5.100   4.289   4.091 -0.0054 -0.5293  0.8844
 2364TIP3    H228508   5.124   4.269   3.943  1.0540  1.7811  0.6909
 2365TIP3   OH228509   5.052   1.768   1.182  0.0979  0.0590 -0.6141
 2365TIP3    H128510   5.103   1.700   1.226 -1.1825 -1.0678 -0.8130
 2365TIP3    H228511   5.066   1.847   1.235 -1.0053 -1.1311  1.5743
 2366TIP3   OH228512   3.746   3.205   4.124  0.2347  0.2064  0.0829
 2366TIP3    H128513   3.668   3.163   4.160 -0.1520  1.2413  0.4882
 2366TIP3    H228514   3.810   3.134   4.117 -0.7785 -0.6950 -0.3999
 2367TIP3   OH228515   3.156   3.786   4.729  0.0829  0.3531 -0.7146
 2367TIP3    H128516   3.064   3.789   4.702 -0.9368  1.7842  2.4158
 2367TIP3    H228517   3.190   3.872   4.705  0.1959  0.3224 -0.6631
 2368TIP3   OH228518   2.100   1.010  14.526  0.3010 -0.2509  0.0931
 2368TIP3    H128519   2.147   1.056  14.456 -0.3557  0.4757  0.1097
 2368TIP3    H228520   2.088   1.077  14.594  0.0513 -0.6789  0.4746
 2369TIP3   OH228521   2.563   1.867  14.473  0.0007  0.3546  0.0669
 2369TIP3    H128522   2.620   1.943  14.459 -0.4435  0.2501 -3.0899
 2369TIP3    H228523   2.623   1.797  14.501  0.9845  0.9543 -0.4815
 2370TIP3   OH228524   3.830   4.522  12.360 -0.1567 -0.0540 -0.0001
 2370TIP3    H128525   3.826   4.608  12.403 -1.7569  1.3350 -2.6792
 2370TIP3    H228526   3.741   4.487  12.368 -0.1154 -0.3962 -0.9310
 2371TIP3   OH228527   2.787   5.835   3.669  0.9870 -0.4080 -0.3251
 2371TIP3    H128528   2.856   5.865   3.728 -0.4607  1.9910  0.2382
 2371TIP3    H228529   2.812   5.870   3.583  0.6637  0.1211 -0.2011
 2372TIP3   OH228530   0.515   6.086  15.760  1.2245  0.1235 -0.1519
 2372TIP3    H128531   0.567   6.011  15.734 -1.1762 -1.7033 -0.0903
 2372TIP3    H228532   0.504   6.077  15.855 -2.7385 -2.2294 -0.5992
 2373TIP3   OH228533   3.233   6.258  15.200 -0.2181 -0.3129  0.3670
 2373TIP3    H128534   3.324   6.284  15.186  0.0833 -0.5122  1.8235
 2373TIP3    H228535   3.205   6.308  15.277 -1.5624  0.2394 -0.4483
 2374TIP3   OH228536   0.826   5.241   1.356 -0.2362 -0.1577 -0.2182
 2374TIP3    H128537   0.830   5.295   1.278 -0.7317 -0.8132 -0.7087
 2374TIP3    H228538   0.763   5.172   1.335  0.1553 -0.7548  0.4921
 2375TIP3   OH228539   5.734   3.786   1.291 -0.0239  0.0803 -0.2644
 2375TIP3    H128540   5.686   3.766   1.211  1.3162 -0.0206 -1.0578
 2375TIP3    H228541   5.822   3.752   1.276  0.4838  0.8105  0.9290
 2376TIP3   OH228542   6.319   2.341   1.060  0.3922  0.5511 -0.0413
 2376TIP3    H128543   6.328   2.259   1.109  0.0637  0.0736 -0.7477
 2376TIP3    H228544   6.311   2.313   0.969 -1.3350  1.2600 -0.1503
 2377TIP3   OH228545   1.772   1.302   3.054 -0.0903 -0.1315  0.1588
 2377TIP3    H128546   1.854   1.287   3.099 -1.3502  0.0641  2.6922
 2377TIP3    H228547   1.717   1.228   3.078 -1.2044  0.5856 -0.0955
 2378TIP3   OH228548   2.827   5.114   2.648  0.0568 -0.1387  0.4392
 2378TIP3    H128549   2.833   5.042   2.585  0.6414 -0.1956  0.5525
 2378TIP3    H228550   2.735   5.140   2.646  0.1820  0.2398 -0.8520
 2379TIP3   OH228551   3.026   5.362  13.889 -0.1484  0.4713  0.2468
 2379TIP3    H128552   3.107   5.410  13.872  0.0811 -0.7559 -2.6843
 2379TIP3    H228553   2.966   5.429  13.922  1.0750  2.1127 -0.6574
 2380TIP3   OH228554   5.377   5.486  11.673  0.3208  0.1090 -0.1160
 2380TIP3    H128555   5.289   5.455  11.693  1.4800 -2.7363  1.0205
 2380TIP3    H228556   5.412   5.516  11.757  0.9571 -0.2149 -0.2596
 2381TIP3   OH228557   4.828   4.727  13.597 -0.1785 -0.3508 -0.0759
 2381TIP3    H128558   4.775   4.648  13.586 -1.0158  0.4135 -2.1693
 2381TIP3    H228559   4.862   4.745  13.510 -1.2810  2.4087 -0.0444
 2382TIP3   OH228560   5.285   0.657   2.405  0.5494  0.1743  0.0969
 2382TIP3    H128561   5.194   0.626   2.413  0.4522 -0.4900 -2.6434
 2382TIP3    H228562   5.277   0.744   2.365  1.1043  0.2258  0.0893
 2383TIP3   OH228563   6.159   6.171  11.109  0.4305 -0.1497 -0.1188
 2383TIP3    H128564   6.217   6.096  11.097  1.0312 -0.2075  2.5265
 2383TIP3    H228565   6.074   6.133  11.129  0.8000 -0.1888  1.5087
 2384TIP3   OH228566   1.767   4.739  13.270  0.1469  0.3863 -0.5585
 2384TIP3    H128567   1.790   4.743  13.363 -0.6049 -2.0554 -0.2078
 2384TIP3    H228568   1.837   4.788  13.226  1.2175  0.4977  1.1759
 2385TIP3   OH228569   0.026   1.213   0.384 -0.0554 -0.6664  0.5286
 2385TIP3    H128570  -0.012   1.277   0.444 -1.0487 -0.3914 -0.3758
 2385TIP3    H228571  -0.036   1.208   0.311  0.1950 -2.3580  0.3856
 2386TIP3   OH228572   6.699   3.442  15.570  0.9511  0.1592 -0.0353
 2386TIP3    H128573   6.673   3.427  15.479  0.6129 -0.3898  0.1463
 2386TIP3    H228574   6.724   3.356  15.602  1.4728  0.4212  0.2726
 2387TIP3   OH228575   5.756   3.761   0.787  0.1991 -0.0021 -0.0622
 2387TIP3    H128576   5.714   3.757   0.873  0.6476  1.3794  0.2375
 2387TIP3    H228577   5.687   3.735   0.726 -0.2950 -0.4126  0.6599
 2388TIP3   OH228578   5.168   0.343  16.301 -0.0771 -0.0934 -0.3718
 2388TIP3    H128579   5.173   0.435  16.274  0.8477 -0.1740 -0.5183
 2388TIP3    H228580   5.202   0.342  16.390 -1.3603 -0.1096  0.1382
 2389TIP3   OH228581   0.928   4.495   2.979 -0.0180 -0.2383 -0.2904
 2389TIP3    H128582   0.934   4.591   2.973  0.5272 -0.2538 -0.0511
 2389TIP3    H228583   1.005   4.463   2.931 -0.8707 -0.5961 -1.4596
 2390TIP3   OH228584   6.531   3.393  15.273  0.0894  0.1464  0.7230
 2390TIP3    H128585   6.611   3.400  15.222 -1.1304  1.8145 -1.0934
 2390TIP3    H228586   6.483   3.320  15.233  0.0267  0.1394  0.8094
 2391TIP3   OH228587   5.926   2.962  13.419 -0.1972 -0.0957 -0.6159
 2391TIP3    H128588   5.992   3.025  13.390 -0.5081 -0.7352 -2.8749
 2391TIP3    H228589   5.976   2.895  13.466  0.5368  0.2891 -0.8280
 2392TIP3   OH228590   1.878   3.555   2.733  0.2368  0.3894  0.5922
 2392TIP3    H128591   1.868   3.626   2.797 -0.0121  1.4912 -0.6114
 2392TIP3    H228592   1.848   3.594   2.651  2.7504 -0.1927 -0.6850
 2393TIP3   OH228593   3.297   2.400   3.573 -0.3475  0.4340  0.3650
 2393TIP3    H128594   3.385   2.366   3.559 -0.0799  0.6041  1.4969
 2393TIP3    H228595   3.244   2.323   3.594 -0.3260  0.4023  0.3013
 2394TIP3   OH228596   4.240   5.866  14.506 -0.1095 -0.0931  0.1447
 2394TIP3    H128597   4.175   5.821  14.559 -1.1718  0.5058 -0.5851
 2394TIP3    H228598   4.295   5.912  14.569 -0.0188 -1.0809  0.8095
 2395TIP3   OH228599   5.299   2.087   4.436  0.0103 -0.6809 -0.0877
 2395TIP3    H128600   5.345   2.146   4.376  0.0689  0.3567  0.9181
 2395TIP3    H228601   5.239   2.037   4.381 -0.7284  1.0036 -0.8920
 2396TIP3   OH228602   2.527   1.817  11.233 -0.3442 -0.5177  0.2705
 2396TIP3    H128603   2.608   1.802  11.282 -0.3086  2.0428  1.1975
 2396TIP3    H228604   2.550   1.885  11.170 -1.7376  0.2553  0.5566
 2397TIP3   OH228605   4.175   2.498  14.934 -0.3376 -0.3775 -0.2277
 2397TIP3    H128606   4.218   2.577  14.968  0.1035 -0.7316  0.0455
 2397TIP3    H228607   4.243   2.431  14.936 -1.7303 -1.9057  3.4675
 2398TIP3   OH228608   3.457   2.128   0.493 -0.0175 -0.1020  0.1378
 2398TIP3    H128609   3.539   2.086   0.522 -0.2437  0.0295  0.9766
 2398TIP3    H228610   3.388   2.082   0.540 -0.2817  1.1384  1.0039
 2399TIP3   OH228611   4.935   5.647   6.519 -0.6712 -0.4419 -0.2850
 2399TIP3    H128612   4.951   5.709   6.590 -0.8981  1.0245 -1.4717
 2399TIP3    H228613   5.000   5.670   6.452 -1.5397 -0.6900 -1.2374
 2400TIP3   OH228614   5.110   1.829   5.543 -0.2241 -0.0246  0.3230
 2400TIP3    H128615   5.158   1.756   5.583 -1.0368 -0.4805  0.4957
 2400TIP3    H228616   5.027   1.790   5.516 -0.0428  0.4775 -1.0301
 2401TIP3   OH228617   0.880   3.712   2.617  0.0646 -0.2843 -0.0392
 2401TIP3    H128618   0.867   3.711   2.523 -0.4062 -0.0649  0.0197
 2401TIP3    H228619   0.975   3.704   2.629  0.4785  2.6079 -0.6121
 2402TIP3   OH228620   4.112   3.752   0.510  0.2439 -0.2898  0.0763
 2402TIP3    H128621   4.071   3.762   0.424  0.8744  1.1303 -0.0947
 2402TIP3    H228622   4.039   3.753   0.572 -0.1845 -0.8927 -0.4094
 2403TIP3   OH228623   5.226   1.203  15.798  0.1499  0.2351 -0.2811
 2403TIP3    H128624   5.216   1.108  15.805 -1.0164  0.2079 -1.7923
 2403TIP3    H228625   5.157   1.229  15.737 -0.7434  2.3090  1.5015
 2404TIP3   OH228626   5.263   2.833   0.680 -0.2744 -0.2147  0.5984
 2404TIP3    H128627   5.303   2.857   0.764  0.8411  0.0647  0.0097
 2404TIP3    H228628   5.189   2.894   0.671 -1.1342 -1.0105  1.9006
 2405TIP3   OH228629   1.356   0.126  12.050 -0.6209  0.1306  0.3858
 2405TIP3    H128630   1.281   0.185  12.053 -0.3356  0.5366 -0.3071
 2405TIP3    H228631   1.352   0.087  11.962  0.8296  1.2846 -0.2371
 2406TIP3   OH228632   3.413   4.289   2.369  0.3752 -0.3053  0.2772
 2406TIP3    H128633   3.422   4.304   2.463 -0.5996 -1.3266  0.5555
 2406TIP3    H228634   3.463   4.360   2.328  3.1162 -1.3320  1.5664
 2407TIP3   OH228635   2.240   6.753   0.611 -0.0327  0.3780 -0.1851
 2407TIP3    H128636   2.329   6.719   0.601  0.0642  0.5108  0.2135
 2407TIP3    H228637   2.185   6.675   0.619 -0.3529  0.1616 -3.3271
 2408TIP3   OH228638   4.688   0.361   4.726  0.0723  0.1372 -0.5376
 2408TIP3    H128639   4.718   0.452   4.733  1.5989 -0.1776 -2.2632
 2408TIP3    H228640   4.595   0.369   4.702 -0.0631  1.2118  0.2548
 2409TIP3   OH228641   5.092   4.192  14.396  0.4459 -0.0863 -0.5454
 2409TIP3    H128642   5.090   4.257  14.466  1.5645  0.0038 -0.5786
 2409TIP3    H228643   5.001   4.162  14.389  0.3027 -0.0930  0.9318
 2410TIP3   OH228644   1.980   5.785  17.206 -0.4090 -0.1282  0.7617
 2410TIP3    H128645   1.996   5.864  17.258 -2.0556 -0.0281  1.1650
 2410TIP3    H228646   2.066   5.745  17.197  0.1455  0.6032  2.3618
 2411TIP3   OH228647   2.437   1.389   1.744 -0.2280 -0.1444 -0.9348
 2411TIP3    H128648   2.530   1.375   1.725  0.2852 -0.3858  1.4936
 2411TIP3    H228649   2.402   1.302   1.761  0.2150  0.2239  2.5295
 2412TIP3   OH228650   6.408   3.744  12.634 -0.5868 -0.1597 -0.2477
 2412TIP3    H128651   6.448   3.775  12.715  0.1611 -2.0033  0.1288
 2412TIP3    H228652   6.328   3.796  12.626  1.1267  2.7055 -0.3282
 2413TIP3   OH228653   6.514   1.378  12.731 -0.2885 -0.0609  0.0473
 2413TIP3    H128654   6.540   1.368  12.823  2.6174 -0.9846 -0.7760
 2413TIP3    H228655   6.509   1.472  12.718  1.1291  0.1378  0.7371
 2414TIP3   OH228656   5.629   2.288  12.498  0.6274 -0.1873  0.0934
 2414TIP3    H128657   5.686   2.259  12.569 -1.9124 -0.4548  2.2116
 2414TIP3    H228658   5.606   2.378  12.521 -2.3978 -1.1138  1.3708
 2415TIP3   OH228659   6.519   2.577   3.930 -0.3430  0.0567 -0.1850
 2415TIP3    H128660   6.517   2.540   4.018  0.4003  1.3117  0.3933
 2415TIP3    H228661   6.609   2.609   3.919 -0.9522  1.7764 -0.5687
 2416TIP3   OH228662   5.858   3.536   3.390 -0.1444  0.1736 -0.3231
 2416TIP3    H128663   5.777   3.485   3.395 -0.4383  0.7271  1.1274
 2416TIP3    H228664   5.832   3.625   3.414  0.9685  0.2532  0.7087
 2417TIP3   OH228665   1.519   3.308  13.086 -0.7813  0.5341 -0.1428
 2417TIP3    H128666   1.562   3.250  13.149 -1.6494  0.0787  0.0448
 2417TIP3    H228667   1.514   3.393  13.130 -0.9903  0.3290  0.2268
 2418TIP3   OH228668   5.940   2.848  15.453  0.1981 -0.4008  0.9189
 2418TIP3    H128669   5.904   2.789  15.520  0.7863 -0.6576  1.0165
 2418TIP3    H228670   5.864   2.889  15.414 -0.3466 -2.3406 -0.1738
 2419TIP3   OH228671   0.862   1.000  12.122  0.2446  0.4095  0.1551
 2419TIP3    H128672   0.844   1.084  12.080 -1.8972  0.4024  0.9240
 2419TIP3    H228673   0.890   1.023  12.211 -0.6529  0.3255  0.4683
 2420TIP3   OH228674   5.602   6.459   1.350 -0.2585 -0.1359  0.0614
 2420TIP3    H128675   5.601   6.369   1.384  0.9128  0.2626  1.2102
 2420TIP3    H228676   5.528   6.502   1.395  0.0390 -0.1600  0.5849
 2421TIP3   OH228677   3.916   4.105  11.740  0.2918 -0.6989 -0.5251
 2421TIP3    H128678   3.946   4.088  11.830  2.1183  0.6034 -0.8373
 2421TIP3    H228679   3.840   4.047  11.729 -0.4994 -0.3029  2.1250
 2422TIP3   OH228680   3.509   4.841   3.995  0.0452  0.5878 -0.1666
 2422TIP3    H128681   3.578   4.885   3.945  1.6737  0.3494  1.7368
 2422TIP3    H228682   3.429   4.887   3.972  0.9660  1.4347 -1.8202
 2423TIP3   OH228683   3.030   0.847  16.888 -0.1766 -0.3992  0.1241
 2423TIP3    H128684   3.056   0.815  16.974  1.1598  0.0267 -0.0950
 2423TIP3    H228685   3.104   0.901  16.859  0.6934 -2.7705 -2.4910
 2424TIP3   OH228686   5.392   6.730  12.894 -0.2131  0.4800  0.5390
 2424TIP3    H128687   5.358   6.643  12.916 -0.6036  0.9802  2.0078
 2424TIP3    H228688   5.383   6.780  12.974  0.5735  1.7180 -0.1199
 2425TIP3   OH228689   2.205   0.828  10.568 -0.4579 -0.0163  0.0243
 2425TIP3    H128690   2.248   0.897  10.517  1.3563 -1.4729 -0.5114
 2425TIP3    H228691   2.178   0.764  10.503 -0.6797 -0.5663  0.6572
 2426TIP3   OH228692   4.750   3.028   5.542  0.3724 -0.2819  0.1619
 2426TIP3    H128693   4.690   2.955   5.525 -1.1791  0.9865 -0.0220
 2426TIP3    H228694   4.837   2.992   5.525 -0.3637 -2.0297 -0.1085
 2427TIP3   OH228695   3.373   2.763   5.675  0.4906 -0.8250 -0.4378
 2427TIP3    H128696   3.367   2.772   5.770 -0.0514  4.3554 -0.7168
 2427TIP3    H228697   3.467   2.765   5.657  0.5591 -0.1565 -0.0473
 2428TIP3   OH228698   0.903   2.013  11.794  0.3993 -0.0891  0.8693
 2428TIP3    H128699   0.876   1.930  11.756 -1.4402  1.6393 -2.0348
 2428TIP3    H228700   0.988   2.031  11.754  0.4563 -0.2572  0.9151
 2429TIP3   OH228701   1.288   3.381  12.644 -0.1005  0.0072  0.5224
 2429TIP3    H128702   1.199   3.406  12.668 -0.1395  0.1885  0.1934
 2429TIP3    H228703   1.343   3.451  12.679  0.3237 -1.8634  3.9860
 2430TIP3   OH228704   2.673   4.007   0.127 -0.1364 -0.4189  0.2401
 2430TIP3    H128705   2.709   4.086   0.168 -0.9029 -0.4344  0.9855
 2430TIP3    H228706   2.599   4.039   0.074  0.6304 -0.4435 -0.8790
 2431TIP3   OH228707   6.723   0.634   2.886  0.5126  0.5316  0.3822
 2431TIP3    H128708   6.750   0.617   2.796 -0.7455  0.3683  0.0097
 2431TIP3    H228709   6.628   0.626   2.884  0.4173  1.1110  1.6078
 2432TIP3   OH228710   0.741   2.994   1.179 -0.1291  0.0731  0.6511
 2432TIP3    H128711   0.719   2.901   1.184  0.4250 -0.0319  1.3673
 2432TIP3    H228712   0.734   3.025   1.269 -1.9050  1.1257  0.2078
 2433TIP3   OH228713   5.117   1.375  13.921 -0.6377 -0.3643  0.3624
 2433TIP3    H128714   5.208   1.345  13.923 -0.5313 -0.0672  2.5524
 2433TIP3    H228715   5.121   1.460  13.877  0.2982  0.0174  1.1385
 2434TIP3   OH228716   1.084   0.204  15.871  0.1776  0.1538  0.6360
 2434TIP3    H128717   1.034   0.137  15.917 -2.2991  1.0368 -0.5614
 2434TIP3    H228718   1.097   0.273  15.937  4.2158 -1.9754  2.3872
 2435TIP3   OH228719   5.284   3.773  14.607  0.0033 -0.0037  0.1503
 2435TIP3    H128720   5.378   3.758  14.617 -0.3514 -3.0310 -0.3441
 2435TIP3    H228721   5.265   3.746  14.518 -1.3759  0.4188  0.3039
 2436TIP3   OH228722   0.596   5.152   2.721  0.0869 -0.0044 -0.1920
 2436TIP3    H128723   0.634   5.134   2.807  0.3010 -1.1481 -0.5087
 2436TIP3    H228724   0.653   5.219   2.683  2.8207 -2.6753 -1.2434
 2437TIP3   OH228725   2.016   4.989   5.375  0.0011  0.2194  0.1207
 2437TIP3    H128726   2.043   4.943   5.295 -2.9734 -2.0839  0.2188
 2437TIP3    H228727   1.997   5.078   5.346 -0.5892 -0.4405 -1.7007
 2438TIP3   OH228728   3.451   3.358  11.543  0.0094 -0.0774  0.0481
 2438TIP3    H128729   3.402   3.301  11.602  1.2872 -0.2216  1.0156
 2438TIP3    H228730   3.495   3.299  11.483  0.3711 -0.0454  0.2810
 2439TIP3   OH228731   2.890   3.468  11.529  0.1068  0.3340 -0.1430
 2439TIP3    H128732   2.946   3.438  11.601 -1.0024  0.2549  0.7074
 2439TIP3    H228733   2.908   3.562  11.524  0.8121  0.2013 -0.3447
 2440TIP3   OH228734   4.499   6.549  12.247 -0.3917 -0.0787 -0.6507
 2440TIP3    H128735   4.453   6.599  12.179 -0.0105 -0.2578 -1.0508
 2440TIP3    H228736   4.443   6.473  12.262 -0.2767 -0.2529 -1.0761
 2441TIP3   OH228737   4.396   0.747   5.154  0.1658  0.3165  0.1394
 2441TIP3    H128738   4.322   0.807   5.165  0.3972  0.6437 -0.0677
 2441TIP3    H228739   4.359   0.671   5.111  0.3638  1.4256 -2.1526
 2442TIP3   OH228740   3.334   3.778   5.175  0.4174 -0.1799 -0.3145
 2442TIP3    H128741   3.414   3.732   5.147  0.1234 -0.6489 -0.3987
 2442TIP3    H228742   3.287   3.713   5.228  0.8950  0.6360  1.1773
 2443TIP3   OH228743   1.649   0.141  12.062  0.1302  0.1510  0.3133
 2443TIP3    H128744   1.634   0.078  11.991  0.5996  0.2354  0.1354
 2443TIP3    H228745   1.570   0.195  12.064 -0.4937 -0.7495  0.7886
 2444TIP3   OH228746   6.692   3.144  10.773  0.2348  0.2340  0.3428
 2444TIP3    H128747   6.663   3.078  10.710 -1.7034  2.0100 -0.7181
 2444TIP3    H228748   6.752   3.200  10.724 -1.3310  1.6622 -0.0276
 2445TIP3   OH228749   0.962   1.614  16.260  0.3039  0.3121  0.7603
 2445TIP3    H128750   1.032   1.572  16.309 -0.0611 -2.1676 -0.6856
 2445TIP3    H228751   0.895   1.633  16.326  0.8666 -0.5865  1.6160
 2446TIP3   OH228752   3.662   0.048   3.401  0.0913  0.4321 -0.1433
 2446TIP3    H128753   3.738  -0.007   3.418  0.4339  0.7993 -0.4818
 2446TIP3    H228754   3.638   0.029   3.310  0.4666  1.1504 -0.3937
 2447TIP3   OH228755   3.512   2.870   3.843  0.1705 -0.3080 -0.0314
 2447TIP3    H128756   3.437   2.852   3.900 -0.1544 -0.0291 -0.3637
 2447TIP3    H228757   3.574   2.916   3.899 -0.6692  1.1141 -0.2033
 2448TIP3   OH228758   2.497   5.535   5.671  0.2316  0.3142  0.1959
 2448TIP3    H128759   2.468   5.572   5.755  0.3514  0.2154  0.2820
 2448TIP3    H228760   2.554   5.462   5.696  0.2309  0.2559  0.0274
 2449TIP3   OH228761   1.184   2.981   1.973 -0.6247 -0.0566 -0.1659
 2449TIP3    H128762   1.265   3.002   2.019 -0.3335 -0.1195 -0.6400
 2449TIP3    H228763   1.189   3.031   1.891 -0.0809 -1.6424 -1.1520
 2450TIP3   OH228764   5.704   0.561   1.263  0.0127 -0.3082  0.1048
 2450TIP3    H128765   5.669   0.627   1.322 -0.2185 -1.4823  1.3175
 2450TIP3    H228766   5.732   0.490   1.320  0.4616 -1.1767 -1.1553
 2451TIP3   OH228767   3.538   3.098  14.126  0.5339  0.1721 -0.4561
 2451TIP3    H128768   3.483   3.175  14.145  1.5902  1.2096 -1.4340
 2451TIP3    H228769   3.553   3.102  14.032  2.3333 -0.0102 -0.2189
 2452TIP3   OH228770   1.285   3.793  11.166 -0.2604  0.2515 -0.4134
 2452TIP3    H128771   1.232   3.719  11.135  1.0461 -0.8058 -0.2124
 2452TIP3    H228772   1.291   3.851  11.090 -1.2165  0.1038 -0.6081
 2453TIP3   OH228773   5.106   1.775  12.508  0.3635 -0.7609  0.0996
 2453TIP3    H128774   5.129   1.837  12.578  0.3978  0.5930 -1.0631
 2453TIP3    H228775   5.108   1.690  12.551  0.6846 -0.0094  1.6832
 2454TIP3   OH228776   4.780   6.351   4.942  0.1166  0.3645 -0.8134
 2454TIP3    H128777   4.793   6.265   4.982 -0.4051  0.3845 -0.5940
 2454TIP3    H228778   4.723   6.397   5.003  0.4963  0.9145 -0.8654
 2455TIP3   OH228779   6.493   3.502  17.337 -0.4819  1.5420 -0.0006
 2455TIP3    H128780   6.464   3.414  17.359  0.9736  1.1439  0.4959
 2455TIP3    H228781   6.483   3.551  17.418  1.3231  1.0666  0.5615
 2456TIP3   OH228782   0.650   3.959  12.706  0.0773  0.1037 -0.3247
 2456TIP3    H128783   0.583   3.900  12.671 -0.4939  0.2653  0.4448
 2456TIP3    H228784   0.697   3.991  12.629 -2.2438  1.8151 -1.1870
 2457TIP3   OH228785   1.857   3.476   0.246 -0.0230 -0.0087 -0.3175
 2457TIP3    H128786   1.951   3.476   0.262  0.0668  1.1227 -0.6962
 2457TIP3    H228787   1.818   3.442   0.327  0.5407  3.1081  1.4429
 2458TIP3   OH228788   1.466   4.728  14.138  0.4121  0.0146  0.0705
 2458TIP3    H128789   1.385   4.765  14.174  0.2885  0.2365 -0.4213
 2458TIP3    H228790   1.530   4.800  14.144  0.6100 -0.1967  0.5654
 2459TIP3   OH228791   5.745   5.849  12.975  0.2045 -0.4617  0.3611
 2459TIP3    H128792   5.684   5.792  12.929  0.9259 -1.2681  0.3745
 2459TIP3    H228793   5.816   5.864  12.912 -0.5808  1.5244 -0.1300
 2460TIP3   OH228794   4.994   3.893   5.878  1.0163  0.2006  0.0974
 2460TIP3    H128795   5.024   3.928   5.962  0.5413 -1.9089  1.2242
 2460TIP3    H228796   4.900   3.884   5.888  0.9394  0.0434 -0.7206
 2461TIP3   OH228797   3.523   4.856  13.589  0.1007  0.4657 -0.0709
 2461TIP3    H128798   3.441   4.890  13.553  0.3320  0.2768 -0.7858
 2461TIP3    H228799   3.549   4.787  13.527  0.3000 -0.1366  0.6690
 2462TIP3   OH228800   1.799   5.714  15.788 -0.3866 -0.2735 -0.2878
 2462TIP3    H128801   1.853   5.658  15.732 -1.0214 -0.2644 -0.9278
 2462TIP3    H228802   1.781   5.660  15.865  2.5957  0.5967  1.1561
 2463TIP3   OH228803   2.876   0.313  13.144 -0.2637 -0.1308 -0.0125
 2463TIP3    H128804   2.927   0.340  13.068  0.4279 -1.1398  0.0775
 2463TIP3    H228805   2.883   0.218  13.145 -2.2960 -0.3368 -0.1007
 2464TIP3   OH228806   5.844   1.197   4.339 -0.2111 -1.1182 -0.7543
 2464TIP3    H128807   5.839   1.221   4.246 -0.4778  1.4330 -0.1597
 2464TIP3    H228808   5.774   1.247   4.381  0.6751 -1.2458  0.9896
 2465TIP3   OH228809   6.240   0.534  11.964 -0.1882  0.0029  0.5947
 2465TIP3    H128810   6.198   0.552  11.880 -0.5836  0.3883  0.8776
 2465TIP3    H228811   6.274   0.444  11.954  0.3586  0.2843 -0.2143
 2466TIP3   OH228812   4.490   2.982   0.848  0.3470  0.1353  0.0524
 2466TIP3    H128813   4.494   2.908   0.787 -1.8815  0.0867 -0.1045
 2466TIP3    H228814   4.420   2.959   0.909  0.9957  1.2294  1.2504
 2467TIP3   OH228815   4.367   3.357  14.539  0.1535  0.0537  0.3096
 2467TIP3    H128816   4.274   3.373  14.559 -0.7063 -1.6631 -1.8276
 2467TIP3    H228817   4.369   3.350  14.444  2.8153  1.5977  0.1783
 2468TIP3   OH228818   2.739   4.531   5.832  0.1023 -0.1744 -0.2050
 2468TIP3    H128819   2.823   4.530   5.878  0.8746  1.5361 -1.4735
 2468TIP3    H228820   2.756   4.490   5.748 -0.3250  0.1962 -0.4780
 2469TIP3   OH228821   5.175   5.356  12.052  0.9379 -0.4867  0.1639
 2469TIP3    H128822   5.107   5.292  12.035  0.4535 -0.2867  1.2645
 2469TIP3    H228823   5.256   5.315  12.021  0.6519 -1.6936  0.9600
 2470TIP3   OH228824   3.009   3.201   5.026  0.4765 -0.4196 -0.3044
 2470TIP3    H128825   2.956   3.261   4.975 -1.4469 -2.2122 -0.5297
 2470TIP3    H228826   2.996   3.116   4.985 -1.1315 -1.9779  3.0148
 2471TIP3   OH228827   2.496   5.125  10.878  0.0025  0.1975 -0.6341
 2471TIP3    H128828   2.473   5.161  10.792 -1.0427  0.1918 -0.3752
 2471TIP3    H228829   2.440   5.049  10.887 -0.3417  0.5574  0.3103
 2472TIP3   OH228830   5.911   3.561  15.255 -0.1775 -0.4945  0.1957
 2472TIP3    H128831   5.935   3.538  15.165  1.5156  0.3233  0.4091
 2472TIP3    H228832   5.991   3.548  15.306 -0.7637  0.2779  1.3625
 2473TIP3   OH228833   6.664   0.927  16.955 -0.2697 -0.3525 -0.7937
 2473TIP3    H128834   6.707   1.011  16.968 -0.7664 -0.3372  0.9738
 2473TIP3    H228835   6.580   0.949  16.914  0.5700 -0.2406 -2.5844
 2474TIP3   OH228836   1.596   5.560   0.796 -0.8540 -0.3458 -0.2580
 2474TIP3    H128837   1.503   5.539   0.806 -0.6360 -0.3363  2.3950
 2474TIP3    H228838   1.641   5.487   0.838  0.4031 -0.6234 -1.9967
 2475TIP3   OH228839   4.572   3.012  16.545 -0.6610  0.1210 -0.7826
 2475TIP3    H128840   4.568   2.932  16.492 -0.6913  0.3559 -1.1379
 2475TIP3    H228841   4.493   3.009  16.599 -0.6318 -0.1200 -0.7520
 2476TIP3   OH228842   6.525   0.439   5.249  0.6160  0.6870  0.8152
 2476TIP3    H128843   6.456   0.382   5.282  0.5575 -0.5097 -1.1990
 2476TIP3    H228844   6.479   0.501   5.191  1.1259  0.2358 -0.0980
 2477TIP3   OH228845   1.895   5.316  12.564 -0.4159 -0.0047  0.4954
 2477TIP3    H128846   1.884   5.221  12.564  0.3933 -0.1256  2.0186
 2477TIP3    H228847   1.810   5.350  12.590 -1.1000 -0.2116 -1.3127
 2478TIP3   OH228848   0.751   3.458  14.742 -0.4215 -1.0848 -0.1955
 2478TIP3    H128849   0.671   3.406  14.736 -1.1507  0.0842 -0.9842
 2478TIP3    H228850   0.821   3.394  14.750 -1.6054 -2.2201  4.6091
 2479TIP3   OH228851   0.700   3.597   1.683 -0.0355  0.2367  0.3085
 2479TIP3    H128852   0.778   3.641   1.649 -0.3621  0.2911 -0.3745
 2479TIP3    H228853   0.635   3.667   1.691 -0.4724 -0.0689 -0.5226
 2480TIP3   OH228854   2.710   2.977  11.516  0.1617  0.5220  0.0058
 2480TIP3    H128855   2.649   3.016  11.579 -0.9407 -1.0808 -0.0162
 2480TIP3    H228856   2.694   3.024  11.434 -0.7358  0.4140  0.1148
 2481TIP3   OH228857   4.500   0.154   6.060  0.2796  0.3499 -0.3970
 2481TIP3    H128858   4.434   0.102   6.015  0.6627  0.2596 -0.8691
 2481TIP3    H228859   4.452   0.203   6.126  0.2275 -2.6198  1.9644
 2482TIP3   OH228860   3.157   3.993   1.464  0.2710  0.4725 -0.0400
 2482TIP3    H128861   3.184   3.971   1.553  0.1430 -0.7633 -0.2761
 2482TIP3    H228862   3.220   4.059   1.435  0.2471  0.9674  0.9965
 2483TIP3   OH228863   3.313   3.925   0.116  0.1649 -0.3143 -0.4059
 2483TIP3    H128864   3.226   3.958   0.092 -0.6378 -3.0227 -1.6564
 2483TIP3    H228865   3.307   3.905   0.209 -0.0969  0.7335 -0.1890
 2484TIP3   OH228866   2.413   6.329   0.822 -0.4132  0.6721 -0.2466
 2484TIP3    H128867   2.397   6.238   0.799  0.0118  0.0567  1.6749
 2484TIP3    H228868   2.508   6.338   0.817 -0.4131  0.8573  0.0734
 2485TIP3   OH228869   3.836   0.313   5.796  0.3329  0.6725 -0.2174
 2485TIP3    H128870   3.750   0.344   5.826  0.0368 -0.0838 -0.2428
 2485TIP3    H228871   3.890   0.391   5.792 -0.7579  1.4093 -1.6050
 2486TIP3   OH228872   6.561   3.747   5.429 -0.5557 -0.3309  0.0951
 2486TIP3    H128873   6.474   3.787   5.432 -0.5981 -0.4608  1.0846
 2486TIP3    H228874   6.557   3.678   5.495  0.3874 -0.1496  0.3505
 2487TIP3   OH228875   1.435   0.362   1.169 -0.5625  0.6732  0.2139
 2487TIP3    H128876   1.381   0.331   1.096  0.5874  0.7178 -0.6744
 2487TIP3    H228877   1.522   0.328   1.151 -0.7933 -1.8808  3.1272
 2488TIP3   OH228878   3.915   3.542  14.247 -0.2418  0.1981  0.3082
 2488TIP3    H128879   3.990   3.489  14.220 -1.2830 -1.6523  0.8798
 2488TIP3    H228880   3.942   3.632  14.231  1.6766 -0.4831 -0.5280
 2489TIP3   OH228881   0.949   3.280  14.779 -0.9756  0.0073 -0.6306
 2489TIP3    H128882   0.961   3.262  14.873 -0.6375 -0.3372 -0.7374
 2489TIP3    H228883   0.929   3.195  14.741 -0.0790 -0.0349 -1.0291
 2490TIP3   OH228884   1.729   1.692  11.612 -0.3547 -0.3102 -0.6517
 2490TIP3    H128885   1.703   1.627  11.547 -0.3157 -0.9892 -0.0129
 2490TIP3    H228886   1.750   1.770  11.562 -1.3817 -0.4724 -1.3642
 2491TIP3   OH228887   6.475   2.786  11.704  0.2366  0.0664 -0.1620
 2491TIP3    H128888   6.558   2.829  11.684  0.8541 -0.2403  1.5877
 2491TIP3    H228889   6.434   2.772  11.619  1.9801  0.2298 -1.0721
 2492TIP3   OH228890   0.868   4.800  14.357 -0.9047  0.0809  0.2033
 2492TIP3    H128891   0.903   4.722  14.314  0.4326  2.2760 -3.0483
 2492TIP3    H228892   0.850   4.861  14.286  0.1464  3.5507  2.6486
 2493TIP3   OH228893   3.551   5.654   0.312 -0.9384  0.0217 -0.2963
 2493TIP3    H128894   3.526   5.747   0.311  0.3361  0.4202  1.1133
 2493TIP3    H228895   3.631   5.652   0.364 -2.8233 -2.3308  2.8798
 2494TIP3   OH228896   3.433   6.029  14.052  0.0848 -0.3726  0.6739
 2494TIP3    H128897   3.421   6.111  14.004  0.8698 -0.2505  0.6859
 2494TIP3    H228898   3.348   6.015  14.095 -0.1060  0.3515  0.5550
 2495TIP3   OH228899   3.521   5.914   6.359  0.4124 -0.3848 -0.8788
 2495TIP3    H128900   3.541   5.866   6.439  0.0065 -0.2050 -0.6658
 2495TIP3    H228901   3.604   5.956   6.335  0.2489  0.5798  0.1521
 2496TIP3   OH228902   0.333   2.597   3.278 -0.1425  0.1540 -0.2387
 2496TIP3    H128903   0.350   2.677   3.328  0.2868  0.1188 -0.3277
 2496TIP3    H228904   0.240   2.577   3.296  0.1100 -0.0902  0.8900
 2497TIP3   OH228905   2.836   1.705   1.175 -0.3614 -0.4755 -0.6956
 2497TIP3    H128906   2.909   1.648   1.149  0.3079 -0.2626  0.6210
 2497TIP3    H228907   2.808   1.670   1.260 -0.3740  0.7285 -0.1868
 2498TIP3   OH228908   4.809   4.107  16.172 -0.1014 -0.7282  0.3817
 2498TIP3    H128909   4.753   4.066  16.239  0.0568 -0.2990  0.7853
 2498TIP3    H228910   4.858   4.034  16.134 -0.2440 -0.9861  0.6847
 2499TIP3   OH228911   5.849   1.623   1.473  0.2994 -0.6648 -0.2768
 2499TIP3    H128912   5.880   1.576   1.395  0.8672 -0.1250 -0.3896
 2499TIP3    H228913   5.854   1.558   1.543  3.5115 -0.1701  0.1154
 2500TIP3   OH228914   1.931   3.436  10.773 -0.7049  0.5686 -0.0032
 2500TIP3    H128915   1.855   3.377  10.773 -1.8051  1.9115 -0.0319
 2500TIP3    H228916   1.979   3.413  10.852 -2.7615  1.6098  1.6579
 2501TIP3   OH228917   3.139   4.596  15.781 -0.1281  0.5144  0.4716
 2501TIP3    H128918   3.098   4.521  15.737  0.7269 -0.1127  0.7032
 2501TIP3    H228919   3.080   4.615  15.854 -1.8959  1.9776 -1.2362
 2502TIP3   OH228920   2.610   3.025  12.822 -0.3463 -0.5254 -0.0605
 2502TIP3    H128921   2.603   3.052  12.913  1.3130 -0.0319 -0.0452
 2502TIP3    H228922   2.530   2.976  12.805 -1.0968  0.1403  1.3906
 2503TIP3   OH228923   0.636   0.533  14.982 -0.1721 -0.3964 -0.1048
 2503TIP3    H128924   0.615   0.520  15.075 -0.9436  0.7805 -0.0892
 2503TIP3    H228925   0.571   0.482  14.935 -1.2450  0.8382 -0.0099
 2504TIP3   OH228926   0.876   0.589  14.322 -0.1485 -0.8081 -0.2541
 2504TIP3    H128927   0.792   0.622  14.352  0.2319  0.5799 -0.6333
 2504TIP3    H228928   0.903   0.651  14.254  1.7547 -0.4557  0.7484
 2505TIP3   OH228929   6.563   0.727   4.102 -0.4824 -0.2997 -0.1322
 2505TIP3    H128930   6.559   0.631   4.101 -1.0427 -0.3265 -2.8758
 2505TIP3    H228931   6.475   0.754   4.130 -0.8275 -0.6000 -0.9224
 2506TIP3   OH228932   3.510   0.704   3.583  0.3343 -0.0521  0.0981
 2506TIP3    H128933   3.445   0.636   3.599 -1.4801  1.9711  2.1006
 2506TIP3    H228934   3.503   0.762   3.659  2.1785  2.0529 -1.2191
 2507TIP3   OH228935   6.012   2.023  12.038 -0.4417  0.1674 -0.0942
 2507TIP3    H128936   6.046   1.988  11.956 -0.3924 -2.2333  0.8497
 2507TIP3    H228937   5.920   1.997  12.039 -0.1918 -0.7666  1.0242
 2508TIP3   OH228938   5.081   3.095   0.411 -0.1702 -0.0195  0.1544
 2508TIP3    H128939   5.131   3.033   0.359 -0.6077 -1.4007  1.3316
 2508TIP3    H228940   4.997   3.102   0.366  0.0280  0.0468 -0.2081
 2509TIP3   OH228941   2.290   3.308   1.290 -0.4019 -0.3896  0.1283
 2509TIP3    H128942   2.261   3.398   1.278  1.4935  0.1841 -0.3829
 2509TIP3    H228943   2.375   3.315   1.332  0.4459 -1.8812 -1.2437
 2510TIP3   OH228944   1.453   1.604   6.753 -0.5241  0.3735 -0.0337
 2510TIP3    H128945   1.373   1.646   6.723 -1.5755 -0.9251  0.8449
 2510TIP3    H228946   1.523   1.664   6.727 -1.8380  1.9613 -0.0388
 2511TIP3   OH228947   6.349   0.651   5.211  0.7885 -0.0093 -0.2459
 2511TIP3    H128948   6.261   0.681   5.232  0.2583 -0.3737 -1.8337
 2511TIP3    H228949   6.397   0.731   5.188  0.8705  0.1740  0.5077
 2512TIP3   OH228950   2.774   1.987   4.310  0.3875  0.0960 -0.0403
 2512TIP3    H128951   2.708   1.976   4.242 -0.1502  0.7962  0.3488
 2512TIP3    H228952   2.856   1.960   4.269 -0.1442 -0.8726 -0.5026
 2513TIP3   OH228953   1.066   2.512  12.012  0.3522 -0.3979 -0.5403
 2513TIP3    H128954   1.024   2.437  12.054  0.8454 -0.1879  0.3522
 2513TIP3    H228955   1.159   2.488  12.010  0.3004 -0.5594 -1.8606
 2514TIP3   OH228956   4.940   5.797  15.739  0.3978  0.7009  0.0899
 2514TIP3    H128957   4.914   5.814  15.829 -3.6566 -2.8100 -0.1191
 2514TIP3    H228958   4.903   5.870  15.689 -0.3024  0.9367  0.9449
 2515TIP3   OH228959   6.372   0.992   7.079  0.0488 -0.0870  0.0183
 2515TIP3    H128960   6.376   0.902   7.047 -0.3604  0.2445 -0.9973
 2515TIP3    H228961   6.307   0.990   7.149  0.7898 -0.7774  0.7027
 2516TIP3   OH228962   1.366   3.271   5.355 -0.0521 -0.1585 -0.2253
 2516TIP3    H128963   1.343   3.232   5.439 -0.3694  0.9974  0.2398
 2516TIP3    H228964   1.458   3.247   5.342  0.1440  0.0621  0.6854
 2517TIP3   OH228965   4.497   5.623   0.175  0.0224 -0.0221 -0.6093
 2517TIP3    H128966   4.474   5.644   0.084 -1.6136 -0.3278 -0.3056
 2517TIP3    H228967   4.523   5.707   0.213 -0.2922  0.2950 -1.0833
 2518TIP3   OH228968   2.985   1.748  12.167  0.0420 -0.2598  0.2283
 2518TIP3    H128969   2.894   1.762  12.195 -0.2850  3.0480 -1.8590
 2518TIP3    H228970   2.978   1.717  12.077  0.9754 -0.5199  0.2331
 2519TIP3   OH228971   2.916   3.271  13.013  0.0321 -0.1928 -0.2667
 2519TIP3    H128972   2.985   3.333  13.037  0.5128 -0.7791 -0.1052
 2519TIP3    H228973   2.960   3.209  12.954 -0.7760  0.4113 -1.5532
 2520TIP3   OH228974   3.672   0.437   4.195 -0.0061 -0.0858  0.1910
 2520TIP3    H128975   3.589   0.474   4.164  0.6325  2.0621  0.8482
 2520TIP3    H228976   3.660   0.342   4.189 -0.6775  0.0957 -4.4396
 2521TIP3   OH228977   3.473   1.760   2.927 -0.3821 -0.0376  0.0297
 2521TIP3    H128978   3.428   1.789   3.007  1.2779  1.4337  0.4917
 2521TIP3    H228979   3.507   1.673   2.949 -1.8913 -0.6430  0.0886
 2522TIP3   OH228980   6.432   5.794   5.556 -0.0809 -0.3290 -0.1525
 2522TIP3    H128981   6.348   5.774   5.514 -0.7692  0.4100  0.8046
 2522TIP3    H228982   6.481   5.712   5.552 -0.4701 -0.5267 -1.5573
 2523TIP3   OH228983   5.657   3.198   0.123  0.0001 -0.3100  0.5022
 2523TIP3    H128984   5.610   3.132   0.173 -0.0684 -0.3459  0.3895
 2523TIP3    H228985   5.607   3.278   0.136  0.9427  0.0984  1.9529
 2524TIP3   OH228986   1.701   0.501  16.373  0.2157 -0.2949 -0.4528
 2524TIP3    H128987   1.770   0.439  16.350 -0.0077 -1.0319  0.7803
 2524TIP3    H228988   1.687   0.489  16.467  0.2955  1.7856 -0.1214
 2525TIP3   OH228989   0.690   0.320   0.814 -1.0363  0.6932 -0.2063
 2525TIP3    H128990   0.624   0.252   0.828  0.3583 -0.5039  0.8711
 2525TIP3    H228991   0.677   0.380   0.888 -2.7398  2.0797 -1.5422
 2526TIP3   OH228992   2.368   1.756  11.601  0.1135  0.0155  0.1958
 2526TIP3    H128993   2.382   1.825  11.535 -0.8263  0.6389  0.6268
 2526TIP3    H228994   2.402   1.794  11.682  3.2411 -1.5313 -0.2237
 2527TIP3   OH228995   2.517   6.540  11.459 -0.6214 -0.0456  0.2363
 2527TIP3    H128996   2.508   6.625  11.416 -1.4894 -0.0449  0.4119
 2527TIP3    H228997   2.427   6.510  11.473 -0.3256 -1.1522 -0.1347
 2528TIP3   OH228998   1.278   0.212  13.830 -0.1798 -0.1801 -0.4123
 2528TIP3    H128999   1.258   0.166  13.911  0.9760  1.9591  1.1810
 2528TIP3    H229000   1.344   0.158  13.787 -4.2504 -4.0531 -2.6795
 2529TIP3   OH229001   6.371   1.746   3.258 -0.3333 -0.1052  0.2893
 2529TIP3    H129002   6.401   1.658   3.236 -0.2205  0.1379 -0.5832
 2529TIP3    H229003   6.276   1.737   3.266 -0.3575 -0.2530 -0.1154
 2530TIP3   OH229004   2.756   0.462   2.616 -0.2099 -0.6693 -0.4926
 2530TIP3    H129005   2.738   0.516   2.694 -1.0940  0.1279 -1.2271
 2530TIP3    H229006   2.688   0.395   2.617 -0.4611 -0.4219 -0.7827
 2531TIP3   OH229007   1.846   3.011  12.592  0.8047 -0.4402 -0.0810
 2531TIP3    H129008   1.870   3.083  12.534 -1.0599  0.9140  0.7109
 2531TIP3    H229009   1.760   2.983  12.562  1.0145 -1.5686  0.3353
 2532TIP3   OH229010   6.342   2.255   5.036 -0.0412  0.2632  0.3552
 2532TIP3    H129011   6.366   2.347   5.023 -1.5223  0.7374  0.6596
 2532TIP3    H229012   6.246   2.257   5.038 -0.0741 -1.2135  0.9501
 2533TIP3   OH229013   6.249   0.797  17.281 -0.1598  0.4583 -0.3260
 2533TIP3    H129014   6.325   0.816  17.226  0.7040 -0.5506  0.4820
 2533TIP3    H229015   6.250   0.702  17.291 -1.1047  0.5054  0.3086
 2534TIP3   OH229016   0.119   4.634  16.009  0.0845 -0.2471  0.0773
 2534TIP3    H129017   0.049   4.613  16.071 -0.9416  0.0099 -0.9741
 2534TIP3    H229018   0.184   4.682  16.061  0.0337 -1.4513  1.3255
 2535TIP3   OH229019   4.141   0.243   2.527  0.9357  0.0942 -0.4023
 2535TIP3    H129020   4.186   0.309   2.474  1.6380  1.0305  1.2913
 2535TIP3    H229021   4.204   0.171   2.535  1.9110  1.0854  1.3378
 2536TIP3   OH229022   2.556   6.101  12.553  0.1520  0.2442  0.3397
 2536TIP3    H129023   2.550   6.011  12.584  0.1516 -0.1629 -0.7850
 2536TIP3    H229024   2.468   6.123  12.523  0.8281 -0.6027 -2.5328
 2537TIP3   OH229025   0.853   1.611  14.945  0.4999  0.0335  0.0903
 2537TIP3    H129026   0.853   1.522  14.910 -1.4716 -0.5165  1.2927
 2537TIP3    H229027   0.917   1.658  14.892 -2.2394 -0.6487 -4.3273
 2538TIP3   OH229028   1.811   5.507   2.183  0.1775 -0.1714 -0.2492
 2538TIP3    H129029   1.870   5.576   2.151 -0.9557  0.8273 -0.2481
 2538TIP3    H229030   1.870   5.439   2.216  1.3700 -0.1215 -2.0988
 2539TIP3   OH229031   1.655   0.909  12.402 -0.0203 -0.0328 -0.0787
 2539TIP3    H129032   1.750   0.919  12.391  0.3505 -2.0322  0.8672
 2539TIP3    H229033   1.633   0.833  12.348 -0.8739 -0.3824  0.7473
 2540TIP3   OH229034   5.417   1.895   5.953 -0.3880  0.5031  0.7163
 2540TIP3    H129035   5.341   1.845   5.982 -1.2410  0.6835 -1.1129
 2540TIP3    H229036   5.487   1.831   5.945 -0.6025  0.1682  1.3981
 2541TIP3   OH229037   6.257   3.666  15.819  0.2329  0.5152  0.0545
 2541TIP3    H129038   6.284   3.754  15.846  1.0471  0.6130 -0.9863
 2541TIP3    H229039   6.181   3.681  15.763  0.0870  0.5231  0.2560
 2542TIP3   OH229040   1.556   2.059   0.577 -0.1576  0.5343  0.2061
 2542TIP3    H129041   1.526   1.970   0.560 -0.3716  0.6662 -0.1168
 2542TIP3    H229042   1.510   2.085   0.656  1.3561 -0.3270  1.4375
 2543TIP3   OH229043   5.084   0.561   1.146 -0.2845 -0.3851  0.0037
 2543TIP3    H129044   5.072   0.633   1.084 -1.8138 -1.9401 -1.6533
 2543TIP3    H229045   5.158   0.511   1.110 -0.8602 -1.0180 -0.3312
 2544TIP3   OH229046   1.893   5.464  15.703  0.0575 -0.6729  0.4328
 2544TIP3    H129047   1.955   5.444  15.632  0.5516 -0.1280  0.6999
 2544TIP3    H229048   1.945   5.458  15.783  0.2460  1.5375  0.5484
 2545TIP3   OH229049   2.338   2.335   4.285 -0.4566  0.2038  0.6337
 2545TIP3    H129050   2.307   2.247   4.264  0.3554  0.3198 -1.2511
 2545TIP3    H229051   2.420   2.321   4.333  0.3022 -0.1053 -0.7032
 2546TIP3   OH229052   3.852   1.190  10.958 -0.1231 -0.2277  0.3559
 2546TIP3    H129053   3.809   1.266  10.918  1.0703 -0.8266 -2.2593
 2546TIP3    H229054   3.788   1.119  10.948  0.1814 -0.3820 -0.5734
 2547TIP3   OH229055   6.493   2.904  13.808 -0.3073  0.7311 -0.1405
 2547TIP3    H129056   6.433   2.905  13.882  1.6149 -0.2190  1.5318
 2547TIP3    H229057   6.535   2.818  13.811 -0.6594  0.3686 -2.8149
 2548TIP3   OH229058   2.867   6.691  11.849  0.5871 -0.1637  0.3676
 2548TIP3    H129059   2.933   6.628  11.824  0.1240  0.2088 -2.0897
 2548TIP3    H229060   2.784   6.646  11.834  0.2656  0.7494 -0.7613
 2549TIP3   OH229061   1.429   2.130  11.216  0.1638 -0.4204  0.0924
 2549TIP3    H129062   1.382   2.193  11.270  0.7844 -0.4273  0.6436
 2549TIP3    H229063   1.441   2.175  11.132 -2.1750 -0.9723 -0.6235
 2550TIP3   OH229064   0.707   2.243   4.970  0.0164  0.0634 -0.3479
 2550TIP3    H129065   0.651   2.166   4.960  1.5333 -0.8725 -2.6463
 2550TIP3    H229066   0.693   2.293   4.889  0.8684  0.9304  0.0184
 2551TIP3   OH229067   3.239   4.370  13.858  0.1108  0.2214 -0.1390
 2551TIP3    H129068   3.325   4.407  13.878  0.8348 -2.1958  1.8365
 2551TIP3    H229069   3.258   4.293  13.804 -1.2348  1.8466 -3.1642
 2552TIP3   OH229070   5.918   5.782   1.582  0.1231  0.1451 -0.1758
 2552TIP3    H129071   5.975   5.757   1.510  0.0578 -0.5288 -0.0024
 2552TIP3    H229072   5.841   5.725   1.573  1.0376 -1.5188  1.6505
 2553TIP3   OH229073   3.542   4.952   4.839 -0.1119  1.1770  0.2601
 2553TIP3    H129074   3.536   4.923   4.930 -0.5932  1.2984  0.2694
 2553TIP3    H229075   3.635   4.941   4.817 -0.1503  0.2948  0.4803
 2554TIP3   OH229076   6.758   1.983   2.248  0.1154  0.4075  0.1913
 2554TIP3    H129077   6.811   1.934   2.185  0.0576 -0.5507  0.8671
 2554TIP3    H229078   6.695   2.030   2.194  1.0477  0.8276 -0.5638
 2555TIP3   OH229079   5.688   5.260   6.332 -0.0432  0.0044  0.2737
 2555TIP3    H129080   5.663   5.350   6.314  2.0190  0.7072  0.6519
 2555TIP3    H229081   5.748   5.265   6.406  0.1203 -1.6778  0.3140
 2556TIP3   OH229082   2.620   3.042   4.983  0.3560  0.2520 -0.1307
 2556TIP3    H129083   2.709   3.033   4.950 -0.0664  0.9203 -1.5408
 2556TIP3    H229084   2.628   3.094   5.063  1.2227  0.1931 -0.1755
 2557TIP3   OH229085   3.813   4.852   2.052  0.3856  0.0400 -0.7129
 2557TIP3    H129086   3.863   4.934   2.056 -1.3160  1.0833  0.5468
 2557TIP3    H229087   3.829   4.810   2.137 -1.1092  0.5726 -0.1412
 2558TIP3   OH229088   3.209   3.656  15.040  1.0650  0.7433 -0.6661
 2558TIP3    H129089   3.286   3.605  15.018 -1.0802 -2.4293 -1.5186
 2558TIP3    H229090   3.208   3.658  15.136  1.5532 -0.2795 -0.6328
 2559TIP3   OH229091   3.475   0.613  16.663 -0.3517  0.1872  1.2544
 2559TIP3    H129092   3.564   0.629  16.632 -1.2207 -1.2368 -2.4319
 2559TIP3    H229093   3.430   0.696  16.648 -0.0744  0.3773  1.4552
 2560TIP3   OH229094   3.384   6.686  12.318 -0.2300 -0.3946  0.1917
 2560TIP3    H129095   3.372   6.608  12.264  2.2867 -2.2697  2.0951
 2560TIP3    H229096   3.449   6.738  12.270  0.0161 -0.7510  0.1343
 2561TIP3   OH229097   2.101   6.493   0.932  0.1100 -0.4134 -0.3712
 2561TIP3    H129098   2.057   6.439   0.998  0.2186  1.8915  1.7238
 2561TIP3    H229099   2.194   6.490   0.956  0.3954 -0.8226 -1.4371
 2562TIP3   OH229100   4.991   2.916  12.323  0.2797  0.4338 -0.4295
 2562TIP3    H129101   4.935   2.961  12.260  0.0278  1.1448  0.2843
 2562TIP3    H229102   5.073   2.966  12.322 -0.0544  1.0123  0.4782
 2563TIP3   OH229103   6.098   6.678  15.346 -0.0421  0.7066  0.1919
 2563TIP3    H129104   6.053   6.711  15.268 -0.2818  0.6163  0.2902
 2563TIP3    H229105   6.028   6.652  15.405  0.1130  2.0428  1.0002
 2564TIP3   OH229106   5.618   0.471  16.501 -0.3378 -0.2120  0.2023
 2564TIP3    H129107   5.578   0.554  16.474  1.2584  0.9988  1.3974
 2564TIP3    H229108   5.629   0.479  16.596  2.3780 -0.6123 -0.0054
 2565TIP3   OH229109   5.937   5.065   3.040  0.0113 -0.3900  0.0221
 2565TIP3    H129110   5.924   5.160   3.036  1.5127 -0.1475  0.2785
 2565TIP3    H229111   5.863   5.033   3.091 -0.2165  0.7237  0.4226
 2566TIP3   OH229112   3.864   2.046  14.794 -0.4150  0.5945 -0.4059
 2566TIP3    H129113   3.943   1.997  14.773 -0.3078  0.1057  1.0609
 2566TIP3    H229114   3.840   2.017  14.882 -2.6788  0.1213 -1.1038
 2567TIP3   OH229115   3.279   0.251  13.282 -0.2565 -0.4715 -0.0596
 2567TIP3    H129116   3.223   0.186  13.240 -0.8521  0.2784 -0.4449
 2567TIP3    H229117   3.277   0.326  13.223 -0.1989  0.1809  0.7585
 2568TIP3   OH229118   3.834   2.989  14.147  0.3596  0.2785 -0.4067
 2568TIP3    H129119   3.757   2.954  14.192  0.8848 -0.9723 -0.4508
 2568TIP3    H229120   3.798   3.049  14.081 -0.6281 -0.7980 -0.8866
 2569TIP3   OH229121   2.751   3.410   2.067 -0.1130  0.4698 -0.9139
 2569TIP3    H129122   2.787   3.420   2.156 -0.3327 -0.7282 -0.6760
 2569TIP3    H229123   2.811   3.459   2.011  1.8782 -1.3828 -0.5134
 2570TIP3   OH229124   6.356   1.454   1.852  0.5196 -0.3997 -0.1603
 2570TIP3    H129125   6.350   1.523   1.918 -1.4288 -0.4015 -0.2686
 2570TIP3    H229126   6.435   1.405   1.876  0.3299  0.1059  1.6911
 2571TIP3   OH229127   6.276   1.266   0.652  0.5804  0.0375  0.1491
 2571TIP3    H129128   6.217   1.209   0.604  0.8132 -0.2515  0.2053
 2571TIP3    H229129   6.247   1.355   0.629 -1.6951 -0.0249  2.3174
 2572TIP3   OH229130   4.745   1.451   6.058 -0.2090 -0.1005 -0.6178
 2572TIP3    H129131   4.694   1.514   6.008 -0.8611 -0.4967 -0.4591
 2572TIP3    H229132   4.683   1.381   6.080  0.7109 -1.2632 -1.5996
 2573TIP3   OH229133   2.955   1.863  15.805  0.0058  0.0364 -0.0043
 2573TIP3    H129134   2.992   1.819  15.729  0.0609 -1.6712  0.9675
 2573TIP3    H229135   2.861   1.842  15.801 -1.1635  4.4259 -2.5283
 2574TIP3   OH229136   0.240   2.538   4.024 -0.5383 -0.3192  0.4013
 2574TIP3    H129137   0.262   2.574   3.938 -0.3007 -0.4459  0.4088
 2574TIP3    H229138   0.294   2.460   4.032 -0.9191 -0.5772  0.4647
 2575TIP3   OH229139   6.319   1.973   2.090 -0.6586 -0.4644  0.3126
 2575TIP3    H129140   6.263   1.926   2.153 -2.2054  1.6324  0.5830
 2575TIP3    H229141   6.287   1.946   2.004  1.8999 -3.8836  0.1673
 2576TIP3   OH229142   1.872   4.517  13.111 -0.3570 -0.2449  0.0123
 2576TIP3    H129143   1.826   4.472  13.041  1.7347 -0.6591 -1.1740
 2576TIP3    H229144   1.802   4.554  13.166 -2.0623 -0.3941 -1.9417
 2577TIP3   OH229145   5.534   4.233  11.139 -0.1791 -0.1279  0.2150
 2577TIP3    H129146   5.573   4.234  11.052 -4.2610  2.1174 -1.8884
 2577TIP3    H229147   5.591   4.290  11.191  2.4285 -1.6034 -0.8271
 2578TIP3   OH229148   2.542   0.658   5.675 -0.1289 -0.0923 -0.3356
 2578TIP3    H129149   2.475   0.599   5.709 -2.6299  1.4377 -2.2852
 2578TIP3    H229150   2.580   0.611   5.600  0.1269 -0.4841  0.0408
 2579TIP3   OH229151   4.687   4.594  14.107  0.0161  0.2894 -0.2438
 2579TIP3    H129152   4.765   4.543  14.086 -0.8935 -0.8126 -1.1071
 2579TIP3    H229153   4.623   4.530  14.137 -1.0961  0.9218 -1.1466
 2580TIP3   OH229154   3.061   1.364   3.253  0.2085  0.1719  0.5491
 2580TIP3    H129155   3.084   1.301   3.185 -1.2401  0.4039 -0.2134
 2580TIP3    H229156   3.026   1.440   3.205  1.3562  1.3355  1.4686
 2581TIP3   OH229157   1.610   2.674  15.879 -0.1927  0.4285  0.2725
 2581TIP3    H129158   1.635   2.622  15.955 -0.4066 -0.3206 -0.1541
 2581TIP3    H229159   1.644   2.762  15.897 -0.2947  0.2773  1.2494
 2582TIP3   OH229160   4.141   2.948  13.395  0.7232 -0.1996  0.0431
 2582TIP3    H129161   4.058   2.908  13.371  1.2123 -0.2529 -1.6768
 2582TIP3    H229162   4.135   3.038  13.363  0.2947  0.6706  2.3692
 2583TIP3   OH229163   3.046   4.820  12.788  0.0736  0.7013 -0.2192
 2583TIP3    H129164   3.023   4.756  12.856 -0.0072  2.4611  1.5307
 2583TIP3    H229165   3.139   4.837  12.802  0.2286  0.5555 -1.0431
 2584TIP3   OH229166   0.913   4.595  13.672 -0.1800  0.2037  0.0140
 2584TIP3    H129167   0.994   4.565  13.632 -0.5258 -1.1049  0.2589
 2584TIP3    H229168   0.920   4.570  13.764 -0.5022  0.8345  0.2174
 2585TIP3   OH229169   2.723   5.464   2.863 -0.1847 -0.0129  0.3997
 2585TIP3    H129170   2.632   5.445   2.839  0.1632 -1.1220 -0.1141
 2585TIP3    H229171   2.766   5.379   2.860  0.5853  0.3048  1.9438
 2586TIP3   OH229172   0.858   6.420   0.640 -0.2889 -0.0173  0.1471
 2586TIP3    H129173   0.881   6.456   0.554 -0.2805  1.2939  0.6779
 2586TIP3    H229174   0.909   6.472   0.702  0.4574 -1.5900  0.9013
 2587TIP3   OH229175   4.790   3.827   0.810 -0.0732 -0.3467  0.2471
 2587TIP3    H129176   4.844   3.780   0.874  0.1412 -1.5882 -0.8165
 2587TIP3    H229177   4.830   3.809   0.726 -0.6675  0.8350 -0.3115
 2588TIP3   OH229178   1.589   2.481   3.936 -0.2300 -0.6594 -0.2947
 2588TIP3    H129179   1.632   2.469   3.851 -1.7190  0.5944 -1.2720
 2588TIP3    H229180   1.518   2.417   3.936  1.0196 -2.1302  0.9571
 2589TIP3   OH229181   3.668   2.753   5.614 -0.2489  0.2984  0.2871
 2589TIP3    H129182   3.707   2.835   5.646  0.6669 -0.0228  0.0075
 2589TIP3    H229183   3.706   2.740   5.528 -0.9885 -0.0264 -0.0015
 2590TIP3   OH229184   4.007   3.382  14.911 -0.5386  0.1431 -0.1873
 2590TIP3    H129185   3.914   3.401  14.898 -0.0746  2.5532 -0.4290
 2590TIP3    H229186   4.043   3.376  14.822 -0.0409  1.7308 -0.1144
 2591TIP3   OH229187   5.068   4.472   0.936  0.0544 -0.4097 -0.0099
 2591TIP3    H129188   5.101   4.441   0.851  0.2308 -1.0490  0.2889
 2591TIP3    H229189   4.989   4.522   0.914  0.8960  0.6609 -0.6826
 2592TIP3   OH229190   4.304   6.450   3.777 -1.0085  0.1913  0.2974
 2592TIP3    H129191   4.260   6.460   3.692 -1.7062  3.0884  0.8987
 2592TIP3    H229192   4.235   6.422   3.837 -1.0373  0.4387  0.3793
 2593TIP3   OH229193   3.596   0.342  16.463  0.3581  0.7516 -0.1304
 2593TIP3    H129194   3.545   0.420  16.485  1.3935  1.5881 -0.6102
 2593TIP3    H229195   3.552   0.306  16.386 -0.5356  0.4484  0.5082
 2594TIP3   OH229196   5.946   3.386   3.692  0.3256 -0.4181 -0.1759
 2594TIP3    H129197   6.007   3.450   3.730 -1.0457  0.7910  0.0762
 2594TIP3    H229198   5.971   3.380   3.600  1.8541 -1.2088  0.2546
 2595TIP3   OH229199   0.204   5.457  15.350 -0.7725  0.2176 -0.2730
 2595TIP3    H129200   0.143   5.408  15.294 -1.6728  0.9931  0.0050
 2595TIP3    H229201   0.148   5.512  15.404  0.2020  1.6285 -0.6279
 2596TIP3   OH229202   3.284   2.176   4.875 -0.3339 -0.3932 -0.1107
 2596TIP3    H129203   3.262   2.266   4.901 -1.9657 -0.5294 -0.9047
 2596TIP3    H229204   3.322   2.137   4.953  1.0991  1.1888  0.0448
 2597TIP3   OH229205   5.866   2.200   1.399  0.1977  0.5308 -0.0696
 2597TIP3    H129206   5.808   2.128   1.426  0.5156 -0.1920 -1.2357
 2597TIP3    H229207   5.914   2.223   1.478 -0.0298 -0.4400  0.3686
 2598TIP3   OH229208   2.858   5.912   1.091 -0.0618 -1.0228 -0.1030
 2598TIP3    H129209   2.874   5.972   1.019  2.1000 -1.8487 -0.3626
 2598TIP3    H229210   2.792   5.956   1.145 -0.1997  0.5220 -1.4811
 2599TIP3   OH229211   0.270   3.852  12.384  0.3376  0.5896  0.2758
 2599TIP3    H129212   0.180   3.859  12.416  0.2457  0.8953 -0.0425
 2599TIP3    H229213   0.324   3.857  12.462  0.1206  1.4902  0.3794
 2600TIP3   OH229214   4.198   5.973   1.160 -0.3147 -0.1797 -0.4263
 2600TIP3    H129215   4.294   5.970   1.168 -0.3701 -2.1769 -0.0740
 2600TIP3    H229216   4.182   6.028   1.083  1.0531  1.0957  0.1385
 2601TIP3   OH229217   3.014   5.365  10.706  0.2025  0.2492  0.2455
 2601TIP3    H129218   3.098   5.406  10.727  0.6470 -0.6453  0.2192
 2601TIP3    H229219   2.955   5.439  10.694  0.9019  0.8840  0.5926
 2602TIP3   OH229220   6.215   5.589   2.467  0.5286  0.7254  0.1540
 2602TIP3    H129221   6.277   5.532   2.512 -0.3972 -0.8428 -0.4736
 2602TIP3    H229222   6.139   5.594   2.525 -0.2294 -0.4232 -0.6760
 2603TIP3   OH229223   0.618   4.547  15.511 -0.1095  0.6324 -0.7216
 2603TIP3    H129224   0.632   4.549  15.416 -0.5075 -2.1071 -0.9035
 2603TIP3    H229225   0.675   4.476  15.542 -1.1066  0.4924  0.8739
 2604TIP3   OH229226   4.102   4.718  11.516  0.1858 -0.2170 -0.0846
 2604TIP3    H129227   4.067   4.740  11.429  1.3467 -0.2663 -0.5913
 2604TIP3    H229228   4.026   4.689  11.566 -0.9739  2.3033 -0.2443
 2605TIP3   OH229229   6.501   1.473  15.475  0.3126  0.7515  0.6519
 2605TIP3    H129230   6.482   1.565  15.459  0.4550  0.6067 -0.3886
 2605TIP3    H229231   6.594   1.471  15.497  1.0118  0.5948 -1.9514
 2606TIP3   OH229232   6.691   3.156   2.027  0.4491 -0.5348 -0.2852
 2606TIP3    H129233   6.706   3.122   2.115 -0.7391  1.1400  0.6224
 2606TIP3    H229234   6.763   3.217   2.012 -0.8111  1.3098  0.7387
 2607TIP3   OH229235   2.549   4.955   0.652  0.2943  0.0462  0.5102
 2607TIP3    H129236   2.488   4.891   0.615  0.5736 -2.3117  3.7965
 2607TIP3    H229237   2.508   5.040   0.632 -1.7928 -1.2335 -1.1403
 2608TIP3   OH229238   1.253   5.872  16.757 -0.0739 -0.2112  0.3099
 2608TIP3    H129239   1.275   5.941  16.694  0.6369 -0.0114  0.7766
 2608TIP3    H229240   1.199   5.916  16.823  0.2689 -0.1297  0.5368
 2609TIP3   OH229241   6.718   0.537  11.440 -0.2839 -0.8448  0.1816
 2609TIP3    H129242   6.686   0.448  11.455 -0.6435 -0.9379 -1.0295
 2609TIP3    H229243   6.650   0.579  11.389  0.7177 -0.4737 -0.8939
 2610TIP3   OH229244   1.347   5.107   0.523  0.5972 -0.3916 -0.0314
 2610TIP3    H129245   1.367   5.109   0.430 -0.4143 -1.4066 -0.3035
 2610TIP3    H229246   1.251   5.109   0.526  0.5767 -1.6527  0.9159
 2611TIP3   OH229247   0.627   3.742   3.035  0.2094 -0.4682 -0.0305
 2611TIP3    H129248   0.581   3.808   2.984  1.1180  0.8180  0.7712
 2611TIP3    H229249   0.694   3.708   2.975  0.3272 -0.0165 -0.1561
 2612TIP3   OH229250   1.287   5.811   6.203 -0.2138 -0.1881  0.3316
 2612TIP3    H129251   1.371   5.790   6.243 -0.1166  1.3554  1.0336
 2612TIP3    H229252   1.222   5.773   6.262 -0.0214 -0.4700  0.3621
 2613TIP3   OH229253   3.917   2.212  15.573 -0.1224  0.6496  0.2204
 2613TIP3    H129254   3.957   2.289  15.612  0.7757 -0.0361  0.6770
 2613TIP3    H229255   3.828   2.210  15.608  1.3906 -1.5272  4.7248
 2614TIP3   OH229256   5.936   5.058  11.625 -0.1930  0.4269  0.1451
 2614TIP3    H129257   5.928   4.975  11.673 -0.1054  0.9080  1.0062
 2614TIP3    H229258   5.863   5.056  11.562  0.5062 -0.8282 -0.6709
 2615TIP3   OH229259   0.213   0.847   3.243  0.2537  0.5135 -0.1744
 2615TIP3    H129260   0.304   0.816   3.232 -0.6159 -2.7406  0.6492
 2615TIP3    H229261   0.168   0.815   3.164 -0.6522 -0.0181  0.5461
 2616TIP3   OH229262   5.198   3.424  11.232 -0.2330  0.1489 -0.0855
 2616TIP3    H129263   5.163   3.349  11.280  1.0419 -1.8227 -2.0591
 2616TIP3    H229264   5.165   3.500  11.280 -0.2566 -1.6161  2.9880
 2617TIP3   OH229265   4.185   1.162   1.694 -0.0195 -0.1630  0.4698
 2617TIP3    H129266   4.251   1.232   1.696 -1.0568  0.9821 -1.8579
 2617TIP3    H229267   4.128   1.181   1.768  0.0543  1.1587  0.2190
 2618TIP3   OH229268   5.954   1.690  12.550 -0.3306 -0.5100  0.7401
 2618TIP3    H129269   6.047   1.679  12.531 -0.3090 -0.3422  0.7445
 2618TIP3    H229270   5.931   1.615  12.606  0.1850  0.2835  2.0655
 2619TIP3   OH229271   2.256   6.203  12.451  0.2930  0.1422 -0.1685
 2619TIP3    H129272   2.203   6.143  12.397 -2.7806  0.9119  1.7329
 2619TIP3    H229273   2.289   6.268  12.389 -0.9293 -0.4466 -1.4985
 2620TIP3   OH229274   2.670   6.428   0.162  0.2780  0.1643  0.0285
 2620TIP3    H129275   2.597   6.479   0.126 -1.4863  0.1182  3.1445
 2620TIP3    H229276   2.731   6.494   0.196 -0.0704  0.1996  0.5855
 2621TIP3   OH229277   5.755   5.825   5.602 -0.7331  0.3506  0.2009
 2621TIP3    H129278   5.840   5.861   5.577 -1.0111  0.6846 -0.2637
 2621TIP3    H229279   5.702   5.830   5.523 -1.4220  0.8479  0.6865
 2622TIP3   OH229280   5.866   4.304   4.639 -0.3212  0.0755  0.0790
 2622TIP3    H129281   5.798   4.250   4.680 -1.1526 -0.0701 -1.3894
 2622TIP3    H229282   5.844   4.301   4.545  1.1929  0.7813 -0.3175
 2623TIP3   OH229283   2.937   0.824  16.330  0.2415 -0.6519 -0.0818
 2623TIP3    H129284   2.993   0.831  16.253 -0.7697  2.2766 -0.7035
 2623TIP3    H229285   2.993   0.849  16.404  0.6558 -1.3357 -0.1576
 2624TIP3   OH229286   2.326   2.967  11.184  1.0949 -0.0383 -0.2922
 2624TIP3    H129287   2.387   2.919  11.129  1.1971  1.2339 -1.3477
 2624TIP3    H229288   2.283   3.028  11.124 -1.0669 -0.7352  0.4546
 2625TIP3   OH229289   0.821   0.523   5.430 -0.2535 -0.5405  0.7784
 2625TIP3    H129290   0.735   0.510   5.390 -0.3613  3.3177 -0.7086
 2625TIP3    H229291   0.813   0.606   5.478  3.1581  1.4081 -1.5315
 2626TIP3   OH229292   1.917   0.379   3.192  0.5397 -0.0452  0.6910
 2626TIP3    H129293   1.868   0.428   3.257  0.4314  0.2045  0.4214
 2626TIP3    H229294   1.947   0.301   3.239 -1.4467 -1.0076  0.4591
 2627TIP3   OH229295   3.481   3.037   5.463 -0.1718  0.6373  0.4689
 2627TIP3    H129296   3.510   2.954   5.426 -1.3371 -0.2546  1.4570
 2627TIP3    H229297   3.538   3.103   5.423 -0.6370 -0.3708 -2.0237
 2628TIP3   OH229298   4.186   2.606   1.801 -0.0560 -0.3603 -0.0443
 2628TIP3    H129299   4.167   2.603   1.707  1.0228 -0.7427 -0.2626
 2628TIP3    H229300   4.110   2.650   1.840 -0.4359 -0.0599 -1.1079
 2629TIP3   OH229301   2.443   0.328  12.660  0.4709  0.3474 -0.0340
 2629TIP3    H129302   2.427   0.414  12.621 -0.3745 -0.3976 -1.4259
 2629TIP3    H229303   2.477   0.275  12.587  0.4834 -0.6316  0.6686
 2630TIP3   OH229304   1.878   4.964   5.844 -1.2513 -0.2674  0.3588
 2630TIP3    H129305   1.803   5.022   5.838 -2.4028 -1.5033  1.7791
 2630TIP3    H229306   1.846   4.880   5.812  0.6263 -0.0194 -2.5125
 2631TIP3   OH229307   6.232   0.811   0.377 -0.6821 -0.0918  0.3284
 2631TIP3    H129308   6.296   0.844   0.314 -0.8179  0.1489  0.3161
 2631TIP3    H229309   6.160   0.777   0.323 -0.8028  0.1232  0.3495
 2632TIP3   OH229310   6.164   5.043  17.015 -0.4593 -0.4951  1.4298
 2632TIP3    H129311   6.077   5.041  17.055  0.1549 -2.2474  2.8299
 2632TIP3    H229312   6.204   4.959  17.040  1.8179  0.4580  1.2416
 2633TIP3   OH229313   4.800   0.247   4.281 -0.2463  0.2424  0.0682
 2633TIP3    H129314   4.814   0.227   4.374  0.3528  0.2582 -0.0120
 2633TIP3    H229315   4.848   0.179   4.234 -1.4784 -0.4352 -0.2604
 2634TIP3   OH229316   4.195   0.525   1.768  1.2218 -0.5744 -0.1202
 2634TIP3    H129317   4.139   0.544   1.693  1.0785 -0.1283  0.0896
 2634TIP3    H229318   4.263   0.592   1.764  1.2719 -0.6119  0.0842
 2635TIP3   OH229319   1.264   3.466  16.596  0.3539  0.2200  0.6805
 2635TIP3    H129320   1.238   3.554  16.623  1.6408  0.3545  1.5858
 2635TIP3    H229321   1.331   3.480  16.530  0.1600 -0.0888  0.4153
 2636TIP3   OH229322   0.734   1.177  12.535 -0.2864 -0.1501  0.2647
 2636TIP3    H129323   0.741   1.226  12.617  1.0377 -0.9582  0.6694
 2636TIP3    H229324   0.642   1.185  12.510 -0.6779  0.2398  1.7385
 2637TIP3   OH229325   1.222   2.268  10.912 -0.2869  0.0945  0.2087
 2637TIP3    H129326   1.184   2.332  10.972 -1.4509 -1.7276  1.5035
 2637TIP3    H229327   1.178   2.284  10.828 -0.9759  0.6247  0.6634
 2638TIP3   OH229328   3.403   3.746   2.497 -0.6585  0.1709 -0.3290
 2638TIP3    H129329   3.350   3.775   2.422 -3.1195 -2.3555  0.2730
 2638TIP3    H229330   3.448   3.668   2.465  0.4402  0.6294  0.0605
 2639TIP3   OH229331   0.928   3.385   0.536 -0.4390  0.0840 -0.5089
 2639TIP3    H129332   0.932   3.348   0.625  0.1512  0.9229 -0.1695
 2639TIP3    H229333   0.879   3.320   0.485 -1.6724  0.0518  0.6596
 2640TIP3   OH229334   3.359   6.498   2.345 -0.5219 -0.3644 -0.0142
 2640TIP3    H129335   3.393   6.566   2.286 -1.1574 -0.6906 -0.7840
 2640TIP3    H229336   3.431   6.480   2.405  0.2249 -0.1740 -0.8318
 2641TIP3   OH229337   5.092   2.048  12.051  0.0892 -0.4854 -0.5428
 2641TIP3    H129338   5.142   1.975  12.089  0.4197  0.0505  0.0780
 2641TIP3    H229339   5.134   2.126  12.087 -2.7363  0.0012  2.1370
 2642TIP3   OH229340   5.541   2.176   0.391  0.2870  0.3354  0.3418
 2642TIP3    H129341   5.506   2.118   0.323  2.1353 -0.3021 -0.1087
 2642TIP3    H229342   5.573   2.118   0.459  1.5272  0.8250  0.2063
 2643TIP3   OH229343   2.152   5.549  14.298  0.3628 -0.0624  0.2036
 2643TIP3    H129344   2.216   5.518  14.235  0.7149  0.9620  0.0374
 2643TIP3    H229345   2.135   5.640  14.273  0.4356  0.3391  1.5047
 2644TIP3   OH229346   5.497   4.016  14.253  0.3617  0.1388  0.2674
 2644TIP3    H129347   5.575   4.072  14.259  0.4580 -0.0490  0.8197
 2644TIP3    H229348   5.429   4.074  14.219  1.0453 -0.0149 -1.4369
 2645TIP3   OH229349   3.630   3.333   5.714  0.3274 -0.1856  0.2562
 2645TIP3    H129350   3.661   3.360   5.800 -2.2053  1.0308  0.8783
 2645TIP3    H229351   3.575   3.257   5.731 -0.5287  0.3180 -0.2143
 2646TIP3   OH229352   4.535   0.659   0.250 -0.1725 -0.0346  0.0159
 2646TIP3    H129353   4.548   0.740   0.301  0.8164  0.0548 -0.3566
 2646TIP3    H229354   4.475   0.685   0.180  2.4711  1.2374 -1.9409
 2647TIP3   OH229355   0.842   3.077  16.461 -0.2317  0.0109  0.0966
 2647TIP3    H129356   0.865   2.990  16.430  0.1809 -0.6355  2.0560
 2647TIP3    H229357   0.747   3.082  16.454 -0.3526 -0.9971  0.9040
 2648TIP3   OH229358   0.536   1.430   5.942  0.5877  0.0192  0.6904
 2648TIP3    H129359   0.588   1.483   6.002 -0.8252  0.3183  1.7040
 2648TIP3    H229360   0.455   1.480   5.928  0.4311 -0.5383 -0.6346
 2649TIP3   OH229361   4.893   0.698  11.633  0.3654  0.6187  0.0914
 2649TIP3    H129362   4.943   0.706  11.552  0.3406 -0.1142  0.0020
 2649TIP3    H229363   4.908   0.781  11.678  1.8057  0.3382  0.1483
 2650TIP3   OH229364   6.325   5.947   2.316  0.0876 -0.0686 -0.5527
 2650TIP3    H129365   6.336   5.875   2.253  1.3609  0.6065 -1.1401
 2650TIP3    H229366   6.381   5.922   2.390 -0.5541 -0.3312 -0.1460
 2651TIP3   OH229367   3.101   0.784  12.511 -0.0079 -0.1196 -0.5936
 2651TIP3    H129368   3.019   0.822  12.542  0.3085  2.6693 -2.7005
 2651TIP3    H229369   3.078   0.696  12.484 -2.3084  0.5343 -0.9920
 2652TIP3   OH229370   5.454   6.222  17.147 -0.4553 -0.0064  0.8386
 2652TIP3    H129371   5.488   6.243  17.060 -0.3366  0.3976  0.9824
 2652TIP3    H229372   5.386   6.157  17.130 -0.4744  0.1125  0.4371
 2653TIP3   OH229373   0.160   4.894  11.735 -0.6620 -0.1680 -0.0592
 2653TIP3    H129374   0.119   4.810  11.755 -1.1074  0.1129  0.2250
 2653TIP3    H229375   0.095   4.959  11.761  0.0261  0.2943  0.5309
 2654TIP3   OH229376   3.552   4.185  12.228 -0.2061  0.4835 -0.4534
 2654TIP3    H129377   3.536   4.174  12.134  0.2013  0.1596 -0.4862
 2654TIP3    H229378   3.479   4.240  12.258 -1.4422 -1.0212 -0.5743
 2655TIP3   OH229379   4.580   3.098   4.663 -0.0199 -0.1162  0.5552
 2655TIP3    H129380   4.563   3.076   4.571  2.2841 -0.9224  0.2614
 2655TIP3    H229381   4.512   3.051   4.712 -1.4377  0.5293 -0.7059
 2656TIP3   OH229382   2.857   3.523   5.931 -0.2684 -0.7392  0.1025
 2656TIP3    H129383   2.871   3.615   5.953  0.1595  0.0359 -2.8906
 2656TIP3    H229384   2.879   3.476   6.011  1.9682  1.5961  1.0442
 2657TIP3   OH229385   4.115   5.995  15.730 -0.4267  0.1058 -0.2593
 2657TIP3    H129386   4.203   5.986  15.693 -0.2195  0.4675  0.1439
 2657TIP3    H229387   4.094   6.087  15.718 -0.2421  0.2912  0.7752
 2658TIP3   OH229388   3.090   6.617   5.498  0.2502 -0.3088 -0.3629
 2658TIP3    H129389   3.158   6.585   5.439  0.0728  0.0468 -0.7645
 2658TIP3    H229390   3.010   6.573   5.467  0.2487 -0.5314 -0.0503
 2659TIP3   OH229391   5.052   1.351  15.560  0.2513 -0.2985 -0.0557
 2659TIP3    H129392   5.017   1.347  15.471 -0.8367  0.5193  0.3176
 2659TIP3    H229393   5.110   1.426  15.560 -1.3563  0.9928  0.4446
 2660TIP3   OH229394   2.094   1.149   0.940  0.1188  0.2546 -0.0365
 2660TIP3    H129395   2.021   1.182   0.888 -0.4739 -0.4202  0.3516
 2660TIP3    H229396   2.129   1.227   0.985 -2.1983  0.2016  2.0461
 2661TIP3   OH229397   4.044   3.267   4.375  0.4762 -0.4728  0.5061
 2661TIP3    H129398   3.952   3.271   4.404  1.2071 -1.5085  3.4131
 2661TIP3    H229399   4.041   3.219   4.292 -1.7240  1.1166 -0.4275
 2662TIP3   OH229400   2.153   4.226  10.753  0.1702  0.0670 -0.4709
 2662TIP3    H129401   2.227   4.225  10.815  0.2191 -0.9718 -0.5267
 2662TIP3    H229402   2.129   4.318  10.746  2.7592  0.7555 -1.9736
 2663TIP3   OH229403   2.764   1.299   4.289  0.1034  0.4071  0.2103
 2663TIP3    H129404   2.765   1.343   4.204 -1.9874 -0.5370 -0.3590
 2663TIP3    H229405   2.729   1.364   4.349 -1.3738  0.1003 -0.2939
 2664TIP3   OH229406   4.889   2.759  15.528  0.0489  0.1950  0.6229
 2664TIP3    H129407   4.828   2.832  15.531 -1.0655 -0.6220 -0.8855
 2664TIP3    H229408   4.839   2.686  15.491  1.7362 -0.7000 -0.0519
 2665TIP3   OH229409   5.152   6.340   5.162 -0.2615  0.8832  0.2239
 2665TIP3    H129410   5.062   6.345   5.195  0.2950 -1.2294  2.4000
 2665TIP3    H229411   5.196   6.415   5.203 -0.9591  1.8711 -0.7741
 2666TIP3   OH229412   5.899   3.748   6.182 -0.3822 -0.2259 -0.4276
 2666TIP3    H129413   5.858   3.827   6.218 -1.4432 -0.0366 -1.9303
 2666TIP3    H229414   5.825   3.692   6.159  0.3463 -2.6144  2.4710
 2667TIP3   OH229415   2.437   1.997  14.142  0.2573 -0.0950  0.0987
 2667TIP3    H129416   2.416   1.906  14.164 -0.8483 -0.4349 -2.1076
 2667TIP3    H229417   2.353   2.037  14.119  0.8373  1.2877  0.2400
 2668TIP3   OH229418   6.175   0.152  13.322 -0.1421  0.3661  0.5461
 2668TIP3    H129419   6.235   0.099  13.374  0.2358 -0.6782 -0.8825
 2668TIP3    H229420   6.102   0.094  13.303 -0.4566  0.8556  0.2446
 2669TIP3   OH229421   4.084   2.941   3.796  0.4272 -0.4010 -0.1094
 2669TIP3    H129422   4.065   3.026   3.835  1.0725 -0.6392  0.7754
 2669TIP3    H229423   4.010   2.923   3.738 -0.3786  0.1505  0.7247
 2670TIP3   OH229424   6.346   3.275   5.113  0.1580  0.2234  0.3832
 2670TIP3    H129425   6.320   3.253   5.203  3.6285 -2.6839  0.8864
 2670TIP3    H229426   6.416   3.339   5.124  0.0769  0.4284 -0.2964
 2671TIP3   OH229427   2.254   3.676  13.204 -0.2230  0.5900 -0.2843
 2671TIP3    H129428   2.337   3.696  13.161 -0.4309  0.7430 -0.6180
 2671TIP3    H229429   2.190   3.676  13.133 -0.3156 -0.7219 -0.2218
 2672TIP3   OH229430   5.834   0.971  11.861  0.1629  0.2793 -0.7284
 2672TIP3    H129431   5.840   1.020  11.944 -1.2756  1.1341 -1.1065
 2672TIP3    H229432   5.926   0.958  11.836  0.6113  1.7390  0.0057
 2673TIP3   OH229433   2.620   5.357   3.198 -0.4483 -0.0556  0.2615
 2673TIP3    H129434   2.661   5.282   3.156 -1.4206  0.1688 -1.1660
 2673TIP3    H229435   2.537   5.323   3.232 -0.7529  0.2865 -0.1263
 2674TIP3   OH229436   4.875   5.474  16.420 -0.1508 -0.7046 -0.0830
 2674TIP3    H129437   4.965   5.504  16.433  0.2633 -1.0049 -2.0571
 2674TIP3    H229438   4.858   5.486  16.327 -0.9111 -4.0446 -0.4889
 2675TIP3   OH229439   5.175   5.943  12.754  0.2141  0.3000  0.0955
 2675TIP3    H129440   5.229   5.876  12.795  0.2314  0.3067  0.0839
 2675TIP3    H229441   5.208   5.949  12.664  0.4241  0.5556  0.1920
 2676TIP3   OH229442   4.911   1.419   2.213 -0.0951  0.8146 -0.4774
 2676TIP3    H129443   4.851   1.430   2.139 -0.2426  1.4623 -0.2697
 2676TIP3    H229444   4.996   1.403   2.172 -0.2824  0.5957 -0.7832
 2677TIP3   OH229445   6.615   5.370  14.302  0.0188  0.1490  0.2094
 2677TIP3    H129446   6.656   5.449  14.267  0.3283  0.2546  0.8052
 2677TIP3    H229447   6.568   5.400  14.380  2.4783 -0.7003  2.1449
 2678TIP3   OH229448   3.187   2.343  12.608 -0.7772  0.3868 -0.0345
 2678TIP3    H129449   3.167   2.432  12.639  1.6023  0.7410  0.6630
 2678TIP3    H229450   3.277   2.328  12.634 -0.6452 -1.7163 -1.4468
 2679TIP3   OH229451   3.127   3.904   5.555 -0.1395 -0.4385  0.5712
 2679TIP3    H129452   3.083   3.952   5.626 -0.3518 -0.5363  0.5058
 2679TIP3    H229453   3.178   3.970   5.509 -0.0885 -0.3540  0.7496
 2680TIP3   OH229454   4.978   4.444  16.629 -0.0901 -0.7013 -0.0278
 2680TIP3    H129455   4.923   4.505  16.579 -1.9250 -0.9319  1.5812
 2680TIP3    H229456   5.046   4.499  16.667 -2.0596  0.5825  1.9011
 2681TIP3   OH229457   6.712   0.988  14.879  0.1801 -0.2649 -0.1397
 2681TIP3    H129458   6.772   0.978  14.953 -0.5372  0.7098  0.5937
 2681TIP3    H229459   6.769   0.990  14.802  1.2733  2.1715  0.6436
 2682TIP3   OH229460   1.451   4.106  16.707 -0.0229 -0.0256  0.4569
 2682TIP3    H129461   1.470   4.014  16.690  0.2076  0.2584 -0.8851
 2682TIP3    H229462   1.460   4.115  16.802  3.7074 -0.5869  0.3049
 2683TIP3   OH229463   5.280   0.027  11.369 -0.1979 -0.6388  0.4279
 2683TIP3    H129464   5.290  -0.051  11.315  1.5815  0.9577 -1.7491
 2683TIP3    H229465   5.369   0.046  11.401 -0.5026  0.7414  0.5164
 2684TIP3   OH229466   5.130   4.950   0.658 -0.0796  0.0424 -0.5443
 2684TIP3    H129467   5.125   4.932   0.751 -0.9006  1.6059 -0.2557
 2684TIP3    H229468   5.223   4.968   0.641  0.3049 -1.5625 -0.3351
 2685TIP3   OH229469   3.578   4.060  12.480 -0.4397 -0.0183 -0.3291
 2685TIP3    H129470   3.484   4.046  12.491 -0.4990 -0.2257 -1.1048
 2685TIP3    H229471   3.585   4.133  12.418 -0.0867 -0.2964 -0.6214
 2686TIP3   OH229472   2.421   1.579  13.553  0.2430 -0.2739  0.3266
 2686TIP3    H129473   2.445   1.542  13.468  1.1835  1.0432 -0.0083
 2686TIP3    H229474   2.337   1.537  13.574  0.6697 -1.6638 -0.5704
 2687TIP3   OH229475   2.270   1.673  16.660  0.2578  0.0850 -0.1461
 2687TIP3    H129476   2.192   1.718  16.692 -0.7314 -1.4684 -0.2705
 2687TIP3    H229477   2.245   1.643  16.572  1.5146  0.7935 -0.7713
 2688TIP3   OH229478   0.737   6.667   5.915 -0.4084  0.2433  0.0320
 2688TIP3    H129479   0.792   6.679   5.993  1.1460  1.7102 -1.2033
 2688TIP3    H229480   0.725   6.756   5.882 -1.8076 -0.2797 -0.9059
 2689TIP3   OH229481   4.470   0.149  15.158 -0.5006  0.0601 -0.2851
 2689TIP3    H129482   4.416   0.202  15.100 -1.3946 -0.0066  0.4723
 2689TIP3    H229483   4.447   0.178  15.246 -0.4016 -1.0065  0.1111
 2690TIP3   OH229484   3.462   0.179  16.898 -0.5504 -0.1899 -0.2581
 2690TIP3    H129485   3.519   0.160  16.972  1.9740 -0.0330 -2.0301
 2690TIP3    H229486   3.422   0.094  16.876 -0.4657 -0.4558  0.5815
 2691TIP3   OH229487   1.713   6.649  15.600 -0.4772 -0.1073 -0.2816
 2691TIP3    H129488   1.625   6.677  15.626 -1.2166 -1.8282 -0.7934
 2691TIP3    H229489   1.704   6.556  15.581  1.2329 -0.0887 -1.3952
 2692TIP3   OH229490   6.227   3.624  15.459 -0.0075  0.3873  0.5279
 2692TIP3    H129491   6.302   3.610  15.517  0.0218  0.0688  0.4122
 2692TIP3    H229492   6.153   3.637  15.519 -1.0112 -4.7343  0.8390
 2693TIP3   OH229493   0.620   4.519   2.914  0.2817 -0.2235  0.1144
 2693TIP3    H129494   0.624   4.486   2.825 -0.9440 -0.9295  0.3029
 2693TIP3    H229495   0.709   4.511   2.947  0.9652  0.9654 -1.3515
 2694TIP3   OH229496   2.560   1.742   4.650 -0.2593 -0.3634  0.4916
 2694TIP3    H129497   2.478   1.723   4.606  0.4060  1.1041 -1.4922
 2694TIP3    H229498   2.581   1.832   4.625  2.1391 -0.8232  0.6380
 2695TIP3   OH229499   5.051   2.240   5.412  0.5943 -0.3300  0.2936
 2695TIP3    H129500   4.968   2.220   5.370  0.2238 -0.3485  1.0267
 2695TIP3    H229501   5.093   2.304   5.354  0.2417 -0.6115 -0.2703
 2696TIP3   OH229502   2.400   6.585  13.685 -0.3146 -0.1952  0.0045
 2696TIP3    H129503   2.386   6.518  13.618 -0.4941  1.4629 -1.6955
 2696TIP3    H229504   2.460   6.544  13.748  1.8697 -1.0179 -2.4462
 2697TIP3   OH229505   6.027   4.591  15.489  0.5576  0.4067  0.0579
 2697TIP3    H129506   6.072   4.508  15.502  0.4987  0.4682  0.6759
 2697TIP3    H229507   6.009   4.623  15.577 -1.7111 -0.1650 -0.1169
 2698TIP3   OH229508   1.682   3.146  13.761  0.0051  0.1455 -0.1454
 2698TIP3    H129509   1.753   3.191  13.716  0.8196  0.5375  1.4361
 2698TIP3    H229510   1.714   3.136  13.851 -1.8026  0.0012  0.5194
 2699TIP3   OH229511   1.260   5.091   2.733  0.0165  0.2110  1.0806
 2699TIP3    H129512   1.291   5.134   2.812 -0.1441  1.3974  0.5214
 2699TIP3    H229513   1.168   5.118   2.726 -0.4773 -1.3164  1.4288
 2700TIP3   OH229514   0.137   4.835  16.729 -0.5602 -0.4565 -0.3276
 2700TIP3    H129515   0.104   4.924  16.717  0.6753  0.2080  0.8825
 2700TIP3    H229516   0.191   4.840  16.808  0.5911 -1.9782 -0.9629
 2701TIP3   OH229517   2.964   4.038  11.408  0.2129  0.0293 -0.0639
 2701TIP3    H129518   2.919   3.955  11.391  1.3012 -0.7752  0.7915
 2701TIP3    H229519   3.043   4.012  11.456  1.1842  1.4530 -0.8350
 2702TIP3   OH229520   5.709   4.492  10.859  0.2968  0.6370 -0.4079
 2702TIP3    H129521   5.754   4.547  10.795 -1.6818  2.1951 -0.5597
 2702TIP3    H229522   5.743   4.520  10.944  0.2475  1.1831 -0.5647
 2703TIP3   OH229523   0.087   5.334   4.855  0.7439  0.4106 -0.3959
 2703TIP3    H129524   0.177   5.312   4.881  0.1578 -1.9915 -0.1367
 2703TIP3    H229525   0.044   5.249   4.844 -1.6079  1.4983 -0.1753
 2704TIP3   OH229526   3.903   0.064  13.863 -0.1906  0.7032 -0.1674
 2704TIP3    H129527   3.854   0.022  13.934  0.2485  1.2686  0.4825
 2704TIP3    H229528   3.894   0.158  13.880 -1.8998  0.9384 -2.0981
 2705TIP3   OH229529   6.741   4.716  17.013 -0.2010  0.1134 -0.3213
 2705TIP3    H129530   6.767   4.790  17.068 -1.3793 -0.5177  1.1452
 2705TIP3    H229531   6.820   4.694  16.964  0.6347  1.2740  0.4490
 2706TIP3   OH229532   4.825   4.873  12.146  0.3154  0.3515  0.6489
 2706TIP3    H129533   4.737   4.908  12.136  0.6063  1.2182  0.9916
 2706TIP3    H229534   4.857   4.912  12.228  0.8264 -0.3633  0.8038
 2707TIP3   OH229535   6.580   2.854  15.550 -0.1366 -0.1534 -0.7399
 2707TIP3    H129536   6.493   2.815  15.539 -1.5511  2.2954  0.7616
 2707TIP3    H229537   6.588   2.916  15.477 -0.8839  1.5387  0.5349
 2708TIP3   OH229538   5.678   0.713  14.753 -0.1793 -0.0262 -0.1874
 2708TIP3    H129539   5.646   0.624  14.741  0.5756 -0.4420  0.7294
 2708TIP3    H229540   5.658   0.734  14.845 -0.1005  0.6515 -0.3152
 2709TIP3   OH229541   0.642   2.336   4.658 -0.4355  0.1982 -0.4426
 2709TIP3    H129542   0.576   2.363   4.722  2.2610 -0.2144  2.8281
 2709TIP3    H229543   0.718   2.390   4.678  1.1133 -1.1719 -2.1996
 2710TIP3   OH229544   6.516   4.930   5.400  0.1002  0.0691 -0.5341
 2710TIP3    H129545   6.445   4.961   5.457  1.4262 -0.0900  1.2836
 2710TIP3    H229546   6.502   4.976   5.318 -0.9799  1.5473  0.4226
 2711TIP3   OH229547   2.047   1.403   3.918  0.4400 -0.4165  0.4333
 2711TIP3    H129548   2.114   1.464   3.887  0.0150 -0.9810 -1.8301
 2711TIP3    H229549   2.095   1.339   3.971  1.2759  0.5360  0.8507
 2712TIP3   OH229550   4.479   6.258   6.259  0.0325 -0.3316 -0.1816
 2712TIP3    H129551   4.459   6.324   6.193  0.7082  0.6770  0.5726
 2712TIP3    H229552   4.547   6.203   6.219 -1.5832 -1.5373 -1.3799
 2713TIP3   OH229553   4.541   1.891   6.554 -0.0645  0.1366 -0.3019
 2713TIP3    H129554   4.460   1.856   6.519  0.2752 -0.6974 -0.2776
 2713TIP3    H229555   4.606   1.823   6.536  0.1901 -0.1980  1.6453
 2714TIP3   OH229556   6.711   1.669  13.374 -0.3409  0.1524  0.9029
 2714TIP3    H129557   6.652   1.633  13.307  0.3007  0.0548  0.3720
 2714TIP3    H229558   6.697   1.764  13.370  0.6078  0.2749 -0.2975
 2715TIP3   OH229559   1.349   4.546   4.142  0.0078 -0.0033  0.0807
 2715TIP3    H129560   1.298   4.611   4.094  0.1305  0.2878  0.3412
 2715TIP3    H229561   1.309   4.543   4.229 -1.5279 -2.0129 -0.6121
 2716TIP3   OH229562   6.181   3.721   1.583  0.4278 -0.2751 -0.0191
 2716TIP3    H129563   6.225   3.675   1.512  0.1634 -2.4846  1.1454
 2716TIP3    H229564   6.092   3.686   1.583  0.1490  0.3847  0.8144
 2717TIP3   OH229565   3.706   1.277   3.533  1.0785  0.3125 -0.0572
 2717TIP3    H129566   3.744   1.241   3.453  1.2342 -1.2162  0.6571
 2717TIP3    H229567   3.611   1.270   3.519  1.1050  0.1003 -0.1377
 2718TIP3   OH229568   5.227   0.193   5.397  0.6380 -0.4480  0.3343
 2718TIP3    H129569   5.192   0.124   5.341  2.0392  0.3209 -1.5866
 2718TIP3    H229570   5.171   0.269   5.379  0.4768 -0.4591  0.7648
 2719TIP3   OH229571   2.078   2.359   0.935  0.5273  0.1061  0.1650
 2719TIP3    H129572   2.106   2.450   0.926 -1.5069  0.8294  0.4618
 2719TIP3    H229573   1.991   2.357   0.893  0.0766 -1.4221  1.1093
 2720TIP3   OH229574   3.658   6.106  11.258  0.2429  0.6378 -0.2103
 2720TIP3    H129575   3.680   6.068  11.173  0.4593 -1.1483  0.5952
 2720TIP3    H229576   3.634   6.196  11.238  2.3053  0.8903 -1.9014
 2721TIP3   OH229577   1.347   4.171   3.383 -0.1189  0.8399  0.1032
 2721TIP3    H129578   1.253   4.172   3.403 -0.4425  1.9270 -1.3283
 2721TIP3    H229579   1.389   4.160   3.469 -1.5354  0.6992  0.8148
 2722TIP3   OH229580   6.585   6.114  11.019 -0.2438  0.6628  0.2634
 2722TIP3    H129581   6.525   6.127  10.946 -0.7615 -0.2965  0.5077
 2722TIP3    H229582   6.534   6.065  11.084  0.3029  1.2439  1.1437
 2723TIP3   OH229583   0.213   3.138  14.110  0.9346  0.0970 -0.0490
 2723TIP3    H129584   0.198   3.213  14.053 -0.9298  0.1258  0.4157
 2723TIP3    H229585   0.181   3.167  14.196  2.8830 -0.2361  0.8479
 2724TIP3   OH229586   5.046   3.008  17.023 -0.1428  0.3610  0.2966
 2724TIP3    H129587   5.139   3.023  17.041 -0.4940  0.5680  2.1466
 2724TIP3    H229588   5.028   2.921  17.059 -0.3479 -0.3582 -1.4556
 2725TIP3   OH229589   1.177   6.700   1.458 -0.1106  0.2285 -0.3420
 2725TIP3    H129590   1.266   6.683   1.490 -0.2818  2.4046  1.5774
 2725TIP3    H229591   1.180   6.791   1.429 -2.0917  0.9342  1.4051
 2726TIP3   OH229592   5.932   2.547   1.104  0.3051 -0.2033 -0.0601
 2726TIP3    H129593   5.891   2.606   1.041 -0.1185  0.1575  0.5559
 2726TIP3    H229594   5.890   2.462   1.088  1.7084 -0.6631 -1.7297
 2727TIP3   OH229595   0.400   4.054   0.254 -0.8820  0.3413 -0.7109
 2727TIP3    H129596   0.392   4.084   0.345  0.0010 -0.5102 -0.3388
 2727TIP3    H229597   0.339   4.110   0.205 -2.1065  0.1734  0.5454
 2728TIP3   OH229598   0.224   5.623   0.010 -0.3331  0.3632 -0.4754
 2728TIP3    H129599   0.208   5.693   0.073  0.0615  0.7199 -0.7652
 2728TIP3    H229600   0.316   5.601   0.021 -0.5894 -0.5066  0.0039
 2729TIP3   OH229601   6.645   2.218   4.051  0.1792  0.5111  0.1608
 2729TIP3    H129602   6.582   2.279   4.088 -0.3557 -0.2830  0.5784
 2729TIP3    H229603   6.691   2.269   3.984  0.8314  1.8421  1.5411
 2730TIP3   OH229604   0.729   5.974   5.600  0.8586 -0.2658  0.4436
 2730TIP3    H129605   0.664   5.909   5.573  1.0025 -0.1914 -0.0893
 2730TIP3    H229606   0.786   5.984   5.524  0.0164  1.5122  0.0010
 2731TIP3   OH229607   2.203   5.094   2.009 -0.0297  0.3617 -0.0311
 2731TIP3    H129608   2.190   5.128   2.097  0.3886 -0.3342  0.3127
 2731TIP3    H229609   2.288   5.127   1.982  0.1848 -0.0402  0.1353
 2732TIP3   OH229610   3.718   0.769  12.690  0.7005 -0.2316  0.2926
 2732TIP3    H129611   3.783   0.814  12.744 -1.5136 -0.6078  3.5696
 2732TIP3    H229612   3.750   0.679  12.684  2.0888  0.2990 -1.0943
 2733TIP3   OH229613   3.114   6.175   5.002  0.0346  0.5637  0.7994
 2733TIP3    H129614   3.029   6.150   5.039 -0.2838 -0.6143 -0.6132
 2733TIP3    H229615   3.165   6.094   5.001  0.3729  0.7710 -0.3777
 2734TIP3   OH229616   0.139   2.737   4.513 -0.4821  0.0679 -0.3913
 2734TIP3    H129617   0.109   2.817   4.556  0.6697 -0.0357  0.6460
 2734TIP3    H229618   0.107   2.666   4.569  1.3409 -0.0529  0.5545
 2735TIP3   OH229619   2.457   0.130   1.384 -0.0582 -0.0727  0.0685
 2735TIP3    H129620   2.489   0.155   1.471  0.3943  1.3956 -0.4805
 2735TIP3    H229621   2.528   0.079   1.346 -0.9496 -2.2615  1.1700
 2736TIP3   OH229622   2.267   3.316  15.119 -0.3738 -1.3230 -0.2657
 2736TIP3    H129623   2.352   3.285  15.088  0.6842 -1.3362  2.4368
 2736TIP3    H229624   2.236   3.248  15.178 -1.3588 -0.4338  0.2689
 2737TIP3   OH229625   4.466   3.663  16.771  0.9183 -0.8089 -1.0193
 2737TIP3    H129626   4.387   3.631  16.814 -1.4597  1.7827 -3.0822
 2737TIP3    H229627   4.517   3.704  16.841 -1.2789  0.5055 -0.0871
 2738TIP3   OH229628   1.005   6.695  13.329 -0.0968  0.0706 -0.6292
 2738TIP3    H129629   1.027   6.607  13.298 -1.6448 -0.7224  0.4133
 2738TIP3    H229630   0.918   6.712  13.292 -1.1282 -0.1085  1.5564
 2739TIP3   OH229631   0.356   2.097   1.439 -0.1002 -0.6494  0.4587
 2739TIP3    H129632   0.296   2.056   1.501  1.9650 -0.2793  2.8475
 2739TIP3    H229633   0.345   2.191   1.453  1.4968 -0.5710  1.5326
 2740TIP3   OH229634   3.997   0.987  11.265  0.4020 -0.5292  0.6798
 2740TIP3    H129635   3.909   0.949  11.255  0.3589 -0.2698  0.0355
 2740TIP3    H229636   4.054   0.928  11.216  0.3730  0.0737 -0.0978
 2741TIP3   OH229637   5.603   0.360  13.806  0.4236  0.3713 -0.3215
 2741TIP3    H129638   5.687   0.387  13.842  0.3506  1.4275 -0.8858
 2741TIP3    H229639   5.597   0.407  13.723 -1.2172  1.1959  0.2263
 2742TIP3   OH229640   6.029   2.118  15.406 -0.0592 -0.5077  0.6782
 2742TIP3    H129641   6.089   2.179  15.363  1.1375 -0.5544  2.1555
 2742TIP3    H229642   5.959   2.104  15.343  0.2318  1.4772 -0.1564
 2743TIP3   OH229643   4.265   4.668   2.981 -0.3451 -0.4135 -0.5269
 2743TIP3    H129644   4.301   4.606   3.044 -0.4673 -0.3332 -0.3767
 2743TIP3    H229645   4.195   4.620   2.936 -1.4697  0.0574  0.6324
 2744TIP3   OH229646   1.984   0.666   3.623  0.0731 -0.6557  0.1806
 2744TIP3    H129647   1.938   0.621   3.552 -0.8651  1.3512 -0.5614
 2744TIP3    H229648   2.067   0.694   3.585 -0.0569 -0.3428  0.1191
 2745TIP3   OH229649   0.973   6.018   2.163  0.0606 -0.0413  0.5388
 2745TIP3    H129650   0.948   6.089   2.104 -0.9692  1.0502  2.2207
 2745TIP3    H229651   1.043   6.054   2.217  0.9283 -1.0042  0.0996
 2746TIP3   OH229652   3.421   1.088   6.724 -0.1208  0.4824  0.3551
 2746TIP3    H129653   3.358   1.047   6.665 -0.3792  0.1483  0.8589
 2746TIP3    H229654   3.464   1.014   6.768  1.9468  0.5854 -1.3012
 2747TIP3   OH229655   5.267   2.869   1.981 -0.3965  0.7779 -0.6265
 2747TIP3    H129656   5.204   2.805   2.012  0.6445 -0.0980 -0.2708
 2747TIP3    H229657   5.279   2.929   2.055  1.8104 -1.0991  0.6727
 2748TIP3   OH229658   1.212   6.684   6.042  0.0552 -0.2625 -0.2240
 2748TIP3    H129659   1.196   6.726   5.957 -0.1172  0.3563  0.1098
 2748TIP3    H229660   1.178   6.746   6.106 -0.1644 -0.8971  0.2835
 2749TIP3   OH229661   0.580   6.183  14.464  0.6309 -0.2190  1.2177
 2749TIP3    H129662   0.529   6.263  14.478 -1.3331 -0.8010 -1.6310
 2749TIP3    H229663   0.668   6.214  14.445 -0.5402  1.5744 -2.0153
 2750TIP3   OH229664   0.529   1.303   3.035 -0.1913 -0.0679 -0.0707
 2750TIP3    H129665   0.450   1.350   3.011  0.2975 -0.1765 -2.0143
 2750TIP3    H229666   0.539   1.236   2.968  2.6626  1.2629 -1.1645
 2751TIP3   OH229667   4.703   1.081   4.660 -0.1464  0.4137 -0.1030
 2751TIP3    H129668   4.684   1.018   4.729  0.1343  2.1435  1.6326
 2751TIP3    H229669   4.628   1.140   4.659  1.5228  2.7886  1.5933
 2752TIP3   OH229670   4.413   4.541  11.813  0.1109 -0.4233  0.6651
 2752TIP3    H129671   4.435   4.613  11.752  0.7705 -2.0044 -1.0620
 2752TIP3    H229672   4.457   4.564  11.894  1.2119  0.6066 -0.1891
 2753TIP3   OH229673   2.585   3.017   1.193 -0.1970  0.6262 -0.0392
 2753TIP3    H129674   2.518   3.039   1.258 -2.0628 -2.8151 -0.5702
 2753TIP3    H229675   2.644   2.956   1.238 -1.6710 -2.0207 -1.4416
 2754TIP3   OH229676   2.545   2.996  16.930  0.2323  0.3269  0.0468
 2754TIP3    H129677   2.533   2.936  16.856 -0.1491  0.8925 -0.3640
 2754TIP3    H229678   2.461   3.041  16.938  0.9503  1.8782 -0.6418
 2755TIP3   OH229679   4.917   1.722   5.877  0.4748 -0.5474  0.6363
 2755TIP3    H129680   4.880   1.800   5.834 -0.2945 -1.7079 -0.8875
 2755TIP3    H229681   4.855   1.652   5.856  1.6464 -1.7761  1.1858
 2756TIP3   OH229682   0.515   6.436   2.712  0.2542  0.1230  0.5136
 2756TIP3    H129683   0.475   6.378   2.646 -1.3556 -1.0154  2.3587
 2756TIP3    H229684   0.453   6.508   2.720  0.7364  0.5537  0.3844
 2757TIP3   OH229685   2.261   1.077  15.937 -0.2091  0.5546  0.1598
 2757TIP3    H129686   2.206   1.154  15.924  1.0906  1.3725 -0.7179
 2757TIP3    H229687   2.315   1.072  15.858  1.1288 -0.0867  1.0672
 2758TIP3   OH229688   2.116   4.196  15.390  0.1945  0.5700  0.0698
 2758TIP3    H129689   2.132   4.116  15.339 -0.7354 -1.7240  3.0562
 2758TIP3    H229690   2.020   4.199  15.399  0.1974  2.2068 -0.1801
 2759TIP3   OH229691   0.176   0.779   3.514  0.1268 -0.3500 -0.1785
 2759TIP3    H129692   0.090   0.810   3.543  0.1224 -1.2264  0.8298
 2759TIP3    H229693   0.177   0.793   3.420 -1.4580 -1.0814 -0.3382
 2760TIP3   OH229694   1.938   5.865   5.210  0.2932  0.6890 -0.1292
 2760TIP3    H129695   2.027   5.844   5.181  0.6556  3.2944 -1.1573
 2760TIP3    H229696   1.949   5.935   5.274 -1.0519  3.0487 -2.3098
 2761TIP3   OH229697   3.704   2.526  13.194  0.5266 -0.4112  0.1446
 2761TIP3    H129698   3.638   2.518  13.125  1.1123  0.2383 -0.5196
 2761TIP3    H229699   3.735   2.617  13.187  0.9324 -0.4765  0.9572
 2762TIP3   OH229700   1.674   3.750   3.731 -0.1260  0.3469 -0.4034
 2762TIP3    H129701   1.634   3.665   3.750  0.9806 -0.0981  0.0309
 2762TIP3    H229702   1.769   3.733   3.733  0.1051  1.5140 -0.6772
 2763TIP3   OH229703   3.716   4.396  16.185 -0.2764  0.4125  0.4077
 2763TIP3    H129704   3.641   4.412  16.127 -0.5817  1.1778  0.9884
 2763TIP3    H229705   3.685   4.330  16.247 -0.6061  0.9917  0.8711
 2764TIP3   OH229706   1.346   5.181   1.636 -0.1453 -0.2588 -0.3585
 2764TIP3    H129707   1.378   5.228   1.559  1.1624 -0.1950  0.2147
 2764TIP3    H229708   1.391   5.221   1.710 -1.3867 -0.3131  0.4639
 2765TIP3   OH229709   0.789   6.698  11.332 -0.3440 -0.2462 -0.1831
 2765TIP3    H129710   0.846   6.645  11.387 -0.2296 -1.7277 -1.6691
 2765TIP3    H229711   0.791   6.785  11.373  1.9222 -0.5872  0.5447
 2766TIP3   OH229712   5.551   3.644  14.566 -0.1161  0.3254  0.0869
 2766TIP3    H129713   5.570   3.584  14.494 -2.1474 -0.5591  0.2121
 2766TIP3    H229714   5.554   3.731  14.526  0.3730 -0.0282 -0.6780
 2767TIP3   OH229715   0.488   6.695  10.961 -0.0631 -0.1721 -0.5405
 2767TIP3    H129716   0.483   6.732  10.873 -0.0812  0.4632 -0.2774
 2767TIP3    H229717   0.528   6.609  10.949 -1.8376 -0.9247 -1.4171
 2768TIP3   OH229718   2.305   3.614  12.780  0.5552 -0.2476 -0.4615
 2768TIP3    H129719   2.348   3.663  12.850 -0.8867  2.2854 -1.1910
 2768TIP3    H229720   2.359   3.536  12.768  2.9143  1.0477  0.9480
 2769TIP3   OH229721   1.899   0.762  11.733 -0.0018 -0.1000 -0.4101
 2769TIP3    H129722   1.976   0.779  11.678  1.3639 -0.5579  1.2628
 2769TIP3    H229723   1.890   0.841  11.787 -0.3618 -0.2613 -0.2321
 2770TIP3   OH229724   0.248   2.434   0.587  0.0492 -0.0343  0.3670
 2770TIP3    H129725   0.172   2.404   0.637  0.9110  0.6649  2.1804
 2770TIP3    H229726   0.270   2.361   0.530 -0.9934 -0.8506  0.9804
 2771TIP3   OH229727   3.173   5.104   5.278  0.1259 -0.0824  0.3634
 2771TIP3    H129728   3.217   5.102   5.193 -0.0873  0.6129  0.2274
 2771TIP3    H229729   3.241   5.082   5.341 -0.1315 -2.6033 -0.1296
 2772TIP3   OH229730   1.354   2.392   5.203  0.5260 -0.4801 -0.7510
 2772TIP3    H129731   1.328   2.311   5.245 -0.1127 -1.5689 -3.0445
 2772TIP3    H229732   1.328   2.380   5.111  0.2715  2.3795 -1.1400
 2773TIP3   OH229733   2.480   1.141   0.490  0.1122 -0.7805 -0.8050
 2773TIP3    H129734   2.489   1.046   0.496  0.2934 -0.8072 -1.4174
 2773TIP3    H229735   2.567   1.172   0.466 -0.0253 -0.4895 -0.9379
 2774TIP3   OH229736   5.379   4.630   0.119  0.2699 -0.1281  0.4340
 2774TIP3    H129737   5.339   4.706   0.078 -1.4554 -0.7489  0.9002
 2774TIP3    H229738   5.353   4.635   0.210 -0.3402 -1.5560  0.3603
 2775TIP3   OH229739   6.713   0.778   1.568  0.1164 -0.2275 -0.1921
 2775TIP3    H129740   6.735   0.757   1.658 -0.0123 -2.7034 -0.6871
 2775TIP3    H229741   6.790   0.827   1.536  1.0835 -1.1580  0.6398
 2776TIP3   OH229742   5.414   0.661   2.640  0.2140  0.0281  0.5052
 2776TIP3    H129743   5.380   0.574   2.658 -2.7348  1.2876  1.6787
 2776TIP3    H229744   5.392   0.677   2.549  0.3930 -0.2624  0.4078
 2777TIP3   OH229745   6.254   1.996  16.576 -0.0215  0.4529  0.3666
 2777TIP3    H129746   6.226   2.070  16.523 -0.3906  0.1826  0.1750
 2777TIP3    H229747   6.252   2.030  16.666 -0.4864  0.5924  0.3106
 2778TIP3   OH229748   0.882   2.133   1.482  0.2106  0.3380  0.3941
 2778TIP3    H129749   0.941   2.058   1.485  0.6288  0.6813  2.0953
 2778TIP3    H229750   0.805   2.103   1.433  1.7355 -0.1243 -1.8852
 2779TIP3   OH229751   6.771   1.915  11.767 -0.2618  0.2679 -0.3312
 2779TIP3    H129752   6.800   1.866  11.844 -0.0780 -0.1048 -0.6370
 2779TIP3    H229753   6.678   1.893  11.759 -0.2972  0.3632 -0.1699
 2780TIP3   OH229754   0.298   2.397  16.264  0.0051  0.5440 -0.1846
 2780TIP3    H129755   0.297   2.493  16.261  0.3228  0.5317 -0.8065
 2780TIP3    H229756   0.225   2.371  16.207 -0.3118  0.4140  0.2709
 2781TIP3   OH229757   4.910   3.915  13.276  0.4564 -0.1726 -0.1091
 2781TIP3    H129758   4.852   3.912  13.200 -0.8214 -0.1236  0.8288
 2781TIP3    H229759   4.876   3.848  13.335  1.3020 -0.0749  0.5083
 2782TIP3   OH229760   3.564   1.038   0.923 -0.2312  0.0676  0.5617
 2782TIP3    H129761   3.511   1.081   0.990  1.1234  0.7720  1.2330
 2782TIP3    H229762   3.557   0.944   0.943 -2.9574 -0.1112 -0.7238
 2783TIP3   OH229763   4.321   4.984  14.656 -0.3090  0.3343 -0.1520
 2783TIP3    H129764   4.359   5.061  14.614  0.8871 -0.5808 -0.8213
 2783TIP3    H229765   4.309   5.010  14.748  0.1128  1.2993 -0.3563
 2784TIP3   OH229766   0.005   1.205   6.796  0.6569  0.0709  0.1020
 2784TIP3    H129767   0.085   1.221   6.845  1.6659  1.2045 -1.7757
 2784TIP3    H229768  -0.056   1.167   6.859  2.6332 -0.7257  1.5935
 2785TIP3   OH229769   6.450   6.444  12.902  0.1727  0.0247 -0.4574
 2785TIP3    H129770   6.429   6.385  12.974 -0.5089  0.5375 -0.2268
 2785TIP3    H229771   6.533   6.486  12.928 -0.2212  0.4276  0.1704
 2786TIP3   OH229772   6.590   1.207   2.506  0.4569 -0.0779 -0.1111
 2786TIP3    H129773   6.496   1.188   2.515  0.7372 -3.6050 -2.4182
 2786TIP3    H229774   6.593   1.280   2.445 -0.7925 -0.1512 -0.3035
 2787TIP3   OH229775   5.569   0.539  16.098 -0.0637  0.3588  0.1777
 2787TIP3    H129776   5.511   0.485  16.151  0.1180  0.0530  0.0646
 2787TIP3    H229777   5.619   0.477  16.045  2.7825  0.2866  2.6242
 2788TIP3   OH229778   5.701   0.576  11.902 -0.0336 -0.0172 -0.2097
 2788TIP3    H129779   5.633   0.626  11.858 -0.4540 -0.3370  0.0679
 2788TIP3    H229780   5.773   0.571  11.838 -0.1994  0.4681 -0.4371
 2789TIP3   OH229781   0.604   1.511   3.807 -0.0501  0.4809  0.2486
 2789TIP3    H129782   0.585   1.575   3.739  2.0870 -0.2808 -1.1713
 2789TIP3    H229783   0.664   1.449   3.766  0.0754 -0.9280  2.3730
 2790TIP3   OH229784   0.550   3.848  15.708  0.1912 -0.5325 -0.2147
 2790TIP3    H129785   0.482   3.791  15.673  1.0421 -0.9338 -1.3146
 2790TIP3    H229786   0.513   3.936  15.704 -1.1160 -0.9802  1.4525
 2791TIP3   OH229787   6.254   6.349   0.383  0.6408 -0.4390  0.2788
 2791TIP3    H129788   6.176   6.362   0.437  0.6086 -0.3545  0.2117
 2791TIP3    H229789   6.228   6.283   0.318  1.3309 -2.2004  1.7075
 2792TIP3   OH229790   6.448   6.508  12.619  0.2787  0.0565 -0.2109
 2792TIP3    H129791   6.467   6.492  12.712  0.0725  0.8958 -0.0138
 2792TIP3    H229792   6.461   6.602  12.608 -1.5907  0.3011 -0.5877
 2793TIP3   OH229793   2.195   0.397  17.180  0.0276  0.1194 -0.2035
 2793TIP3    H129794   2.288   0.394  17.158  0.2322 -0.8821  0.7009
 2793TIP3    H229795   2.181   0.320  17.235 -1.0362  0.9858  0.7937
 2794TIP3   OH229796   3.335   1.223   4.616  0.1659 -0.1772 -0.2104
 2794TIP3    H129797   3.327   1.131   4.643 -2.0504  0.4953  1.7984
 2794TIP3    H229798   3.403   1.259   4.672  0.3875 -0.3851 -0.3465
 2795TIP3   OH229799   1.525   0.069  13.449  0.1064  0.1343  0.1829
 2795TIP3    H129800   1.440   0.109  13.432 -0.2199  0.3421  2.1075
 2795TIP3    H229801   1.568   0.068  13.364 -1.5205  0.7178 -0.6875
 2796TIP3   OH229802   1.716   6.124   5.485 -0.0067  0.0229 -0.8932
 2796TIP3    H129803   1.741   6.194   5.546  1.5126 -1.0071 -0.2693
 2796TIP3    H229804   1.621   6.123   5.489  0.0112 -0.1076  1.6515
 2797TIP3   OH229805   3.283   1.475  11.281 -0.2116 -0.6464  0.3917
 2797TIP3    H129806   3.293   1.406  11.215  2.0637  0.2584 -0.3118
 2797TIP3    H229807   3.278   1.556  11.231  0.2559 -0.0487  1.2849
 2798TIP3   OH229808   1.669   4.215   4.764  0.7081 -0.0038  0.2226
 2798TIP3    H129809   1.661   4.156   4.689  1.9783  1.3204 -1.0086
 2798TIP3    H229810   1.737   4.175   4.819  2.1864  0.7018 -1.0384
 2799TIP3   OH229811   2.158   2.960  11.418 -0.2347 -0.3847  0.0835
 2799TIP3    H129812   2.099   3.033  11.436  0.0473 -0.4979  1.5648
 2799TIP3    H229813   2.181   2.971  11.325 -0.4848  1.1861  0.1737
 2800TIP3   OH229814   4.037   2.893  14.825  0.2182  0.5414  0.3697
 2800TIP3    H129815   4.082   2.977  14.838 -0.0849  0.6398  0.7867
 2800TIP3    H229816   4.108   2.828  14.829  0.3931  0.7377  0.5199
 2801TIP3   OH229817   6.715   2.337  16.586  0.4169 -0.7285 -0.0115
 2801TIP3    H129818   6.735   2.333  16.680  1.9251  0.8280 -0.2088
 2801TIP3    H229819   6.779   2.278  16.546  0.6973 -0.3162 -0.1718
 2802TIP3   OH229820   4.025   0.654  13.106 -0.1125 -0.2351 -0.5013
 2802TIP3    H129821   3.998   0.595  13.177 -2.1717  1.7548  0.5041
 2802TIP3    H229822   3.959   0.640  13.038 -0.9480  1.2235 -0.0281
 2803TIP3   OH229823   4.953   2.693   0.330 -0.1709  0.4021  0.4467
 2803TIP3    H129824   4.866   2.666   0.358  0.1277 -1.0353  0.0596
 2803TIP3    H229825   4.987   2.619   0.280  1.4524  0.7499  0.9575
 2804TIP3   OH229826   2.010   3.202  12.475 -0.0110 -0.0875  0.3662
 2804TIP3    H129827   2.092   3.248  12.459  2.2836 -3.1392  2.0891
 2804TIP3    H229828   2.001   3.143  12.400 -1.0446  0.6896 -0.1425
 2805TIP3   OH229829   1.470   2.218   3.794 -0.2492  0.2427  0.4588
 2805TIP3    H129830   1.516   2.196   3.713  2.0222  1.7079  1.2366
 2805TIP3    H229831   1.503   2.154   3.858  1.0116  1.4505  1.0797
 2806TIP3   OH229832   5.041   6.217   1.394  0.1639 -0.4423 -0.1132
 2806TIP3    H129833   5.047   6.313   1.391 -0.2777 -0.3430  1.3557
 2806TIP3    H229834   5.049   6.190   1.302  1.2782  0.9318 -0.4730
 2807TIP3   OH229835   4.085   3.183  13.285 -0.4111  0.1102 -0.4585
 2807TIP3    H129836   4.070   3.213  13.195 -0.7984  0.4984 -0.2722
 2807TIP3    H229837   4.057   3.257  13.340 -1.5199 -0.6373  0.0252
 2808TIP3   OH229838   2.022   1.599   6.023  0.5278 -0.1078 -0.1473
 2808TIP3    H129839   2.031   1.522   5.967 -2.3681  0.5396 -1.7020
 2808TIP3    H229840   1.935   1.591   6.061  1.6212  0.5419  2.7445
 2809TIP3   OH229841   0.586   0.507   1.777  0.1185 -0.1912 -0.4738
 2809TIP3    H129842   0.497   0.473   1.786  0.2990 -0.5560 -0.0002
 2809TIP3    H229843   0.598   0.519   1.683  0.0356 -1.4230 -0.6627
 2810TIP3   OH229844   0.178   3.923   1.216 -0.0534 -0.1973  0.2432
 2810TIP3    H129845   0.216   3.995   1.166 -1.9180  0.1359 -0.8102
 2810TIP3    H229846   0.178   3.953   1.307 -1.0622  1.2865 -0.2180
 2811TIP3   OH229847   2.103   0.935   3.017  0.5896 -0.3286  0.4552
 2811TIP3    H129848   2.163   0.939   2.942  1.1767  0.9736  0.9528
 2811TIP3    H229849   2.131   0.858   3.066  1.5128 -0.0657  0.3687
 2812TIP3   OH229850   0.943   5.231  13.488  0.0219  0.0438  0.0958
 2812TIP3    H129851   1.023   5.200  13.530 -0.8492 -0.8452  1.1526
 2812TIP3    H229852   0.948   5.196  13.399  1.2750  0.8772 -0.2003
 2813TIP3   OH229853   4.458   2.610   2.978  0.6740  0.5219 -0.5395
 2813TIP3    H129854   4.385   2.572   2.928 -2.4805 -0.2847  4.0021
 2813TIP3    H229855   4.428   2.699   3.000  1.4861  0.5468  0.5404
 2814TIP3   OH229856   2.755   5.897  16.140  0.2105  0.6282 -0.4780
 2814TIP3    H129857   2.786   5.976  16.185  0.8898 -0.0357  0.2485
 2814TIP3    H229858   2.834   5.856  16.106 -0.2174  0.6593 -1.5624
 2815TIP3   OH229859   5.372   5.798  12.832 -0.2276 -0.2953  0.0621
 2815TIP3    H129860   5.419   5.738  12.891  2.1851  1.6446  0.2727
 2815TIP3    H229861   5.442   5.846  12.786 -1.9961  2.6441  0.2192
 2816TIP3   OH229862   4.242   2.227  13.905 -0.4752  0.0716 -0.2586
 2816TIP3    H129863   4.165   2.280  13.882 -0.7356 -0.0212  0.3647
 2816TIP3    H229864   4.278   2.270  13.982  0.7450  0.7393 -1.1837
 2817TIP3   OH229865   5.067   1.730  14.076  0.1721  0.1470  0.0835
 2817TIP3    H129866   5.071   1.684  14.160  1.4146  0.1539  0.0401
 2817TIP3    H229867   5.144   1.701  14.028 -0.2669  0.5155 -0.8770
 2818TIP3   OH229868   2.723   4.812  16.504  0.1528 -0.1179 -0.0793
 2818TIP3    H129869   2.726   4.908  16.501 -2.7555  0.0457 -2.1055
 2818TIP3    H229870   2.804   4.784  16.461 -0.4083  1.5546 -2.4117
 2819TIP3   OH229871   3.078   4.185   3.978  0.1976 -0.0616 -0.1982
 2819TIP3    H129872   3.097   4.093   3.960  0.1512 -0.2951  0.8517
 2819TIP3    H229873   3.143   4.210   4.044  0.8893  0.9747 -1.2365
 2820TIP3   OH229874   2.773   5.192   5.288  0.1155  0.4087 -0.8112
 2820TIP3    H129875   2.817   5.226   5.210 -1.3716  1.0731 -1.4046
 2820TIP3    H229876   2.774   5.264   5.351 -3.2017  1.8201 -2.1364
 2821TIP3   OH229877   4.374   6.543  13.040  0.1517  0.5468  0.1535
 2821TIP3    H129878   4.407   6.633  13.045  1.4783  0.0441  0.7915
 2821TIP3    H229879   4.372   6.513  13.131 -2.1072  0.5349  0.1503
 2822TIP3   OH229880   6.616   0.382   2.300 -0.7674  0.3211 -0.7495
 2822TIP3    H129881   6.702   0.387   2.343  0.0833 -0.8506 -2.2397
 2822TIP3    H229882   6.609   0.465   2.253 -0.9148  0.8516  0.1865
 2823TIP3   OH229883   4.510   1.502   4.780  0.0463  0.5751  0.2558
 2823TIP3    H129884   4.484   1.514   4.688  1.6004 -0.3683 -0.3261
 2823TIP3    H229885   4.604   1.519   4.781 -0.0560  1.2164  1.8216
 2824TIP3   OH229886   1.754   6.042   0.771 -0.1659  0.1149 -0.2119
 2824TIP3    H129887   1.711   6.098   0.835  0.4025  0.3652 -0.0395
 2824TIP3    H229888   1.744   5.954   0.806 -2.2867 -0.0849 -1.1754
 2825TIP3   OH229889   3.612   5.942   5.137  0.4219 -0.3421 -0.0965
 2825TIP3    H129890   3.632   6.024   5.182  0.5659 -0.3341 -0.1736
 2825TIP3    H229891   3.538   5.905   5.185  0.3038 -0.1269 -0.1101
 2826TIP3   OH229892   3.881   4.481  15.561  0.4064 -0.1140 -0.3426
 2826TIP3    H129893   3.786   4.480  15.575  0.3456 -0.4391 -0.7409
 2826TIP3    H229894   3.894   4.425  15.484  0.7661  1.1221 -1.2176
 2827TIP3   OH229895   0.297   4.173  15.302  0.0265 -0.4213 -0.6981
 2827TIP3    H129896   0.294   4.250  15.245 -0.4438 -0.0569 -0.1962
 2827TIP3    H229897   0.214   4.128  15.288  0.6137 -1.2782 -1.5609
 2828TIP3   OH229898   3.161   2.103  17.341 -0.4161 -0.0745  0.3615
 2828TIP3    H129899   3.194   2.106  17.431  1.1099  0.8530 -0.1920
 2828TIP3    H229900   3.154   2.195  17.315 -0.5363 -0.3388 -0.5720
 2829TIP3   OH229901   1.458   0.615  15.782 -0.3898  0.2848 -0.5014
 2829TIP3    H129902   1.508   0.655  15.853  0.2693 -1.3067 -0.0304
 2829TIP3    H229903   1.524   0.575  15.725 -1.0122  0.0213 -1.0527
 2830TIP3   OH229904   3.025   4.748  12.518  0.4013  0.4016 -0.0215
 2830TIP3    H129905   3.060   4.776  12.602 -2.6051  2.7738  0.6085
 2830TIP3    H229906   3.013   4.829  12.469  0.5883 -0.7890 -2.1664
 2831TIP3   OH229907   4.660   2.588  15.504  0.0630 -0.3530  0.4748
 2831TIP3    H129908   4.695   2.521  15.445 -0.2065  0.5139 -0.7224
 2831TIP3    H229909   4.578   2.616  15.462 -0.1313  0.2853  1.2633
 2832TIP3   OH229910   0.692   3.098  15.360  0.2665  0.3627 -0.1481
 2832TIP3    H129911   0.785   3.081  15.376  0.5146  1.0613 -0.7727
 2832TIP3    H229912   0.670   3.170  15.419  0.1651  0.2971 -0.1068
 2833TIP3   OH229913   0.982   1.158   5.313 -0.1279  0.5937  0.3564
 2833TIP3    H129914   0.896   1.150   5.355 -0.0798  2.1057  0.7822
 2833TIP3    H229915   0.966   1.211   5.236  0.1266 -0.6319 -0.5656
 2834TIP3   OH229916   1.287   0.143   0.080 -0.4903 -0.2954  0.0602
 2834TIP3    H129917   1.260   0.232   0.102  0.5365 -0.2079  1.0234
 2834TIP3    H229918   1.332   0.151  -0.004  0.2377  0.2225  0.4882
 2835TIP3   OH229919   4.800   5.535  13.662  0.2646 -0.0724 -0.2650
 2835TIP3    H129920   4.882   5.584  13.668  1.8503 -2.4019 -1.4654
 2835TIP3    H229921   4.779   5.512  13.752  1.2690  0.0584  0.0180
 2836TIP3   OH229922   3.501   4.302  12.623 -0.1450  0.3575 -0.0868
 2836TIP3    H129923   3.453   4.228  12.585 -0.1332  0.0652  0.4609
 2836TIP3    H229924   3.593   4.276  12.615 -0.1962 -0.5998  1.9054
 2837TIP3   OH229925   6.746   3.962  15.598 -0.8703  0.3138  0.1545
 2837TIP3    H129926   6.793   3.879  15.606  1.8046  1.7492  0.2250
 2837TIP3    H229927   6.752   4.002  15.685  0.4305  1.8176 -0.5678
 2838TIP3   OH229928   1.497   3.039   1.782 -0.4826 -0.0955  0.0052
 2838TIP3    H129929   1.518   2.950   1.811 -1.5530 -0.5737 -0.6099
 2838TIP3    H229930   1.574   3.067   1.733  0.1942 -0.3600  0.8895
 2839TIP3   OH229931   4.826   5.305   1.656 -0.2742  0.3600 -0.3751
 2839TIP3    H129932   4.787   5.391   1.644  1.0417  0.7876 -2.0486
 2839TIP3    H229933   4.908   5.309   1.606  0.7017 -1.2767  0.9922
 2840TIP3   OH229934   3.603   0.174   2.781 -0.2853 -0.0205  1.1783
 2840TIP3    H129935   3.625   0.081   2.772 -0.6816 -0.0102 -0.0439
 2840TIP3    H229936   3.544   0.192   2.708  0.0229  1.2668  1.2253
 2841TIP3   OH229937   0.028   3.992   3.556  0.0331  0.4039 -0.0975
 2841TIP3    H129938  -0.036   3.978   3.486  0.6741 -1.5745 -0.3467
 2841TIP3    H229939   0.102   4.035   3.512 -0.9198  2.3875  0.1255
 2842TIP3   OH229940   2.449   2.146  16.472  0.2749 -0.2967 -0.4419
 2842TIP3    H129941   2.497   2.117  16.550 -0.4553  0.0170  0.1320
 2842TIP3    H229942   2.396   2.070  16.448  0.3735 -0.3363 -0.5345
 2843TIP3   OH229943   4.616   4.389  13.822 -0.2575  1.0119 -0.4671
 2843TIP3    H129944   4.561   4.311  13.825  0.7916  0.2269 -0.9087
 2843TIP3    H229945   4.562   4.454  13.778 -0.2892 -0.2280 -2.4047
 2844TIP3   OH229946   2.054   2.562   2.448  0.6742 -0.3714 -0.0328
 2844TIP3    H129947   2.060   2.555   2.352  0.4024  0.3122 -0.0980
 2844TIP3    H229948   2.107   2.639   2.470  0.9041 -0.6458  0.3907
 2845TIP3   OH229949   3.110   0.392  11.394  0.0258  0.5708  0.1241
 2845TIP3    H129950   3.160   0.374  11.314 -0.7839  0.4856 -0.3777
 2845TIP3    H229951   3.130   0.483  11.415  0.0133  0.6877 -0.3533
 2846TIP3   OH229952   0.632   1.872   2.343  0.1615  0.2498  0.1863
 2846TIP3    H129953   0.607   1.848   2.432  0.1309  1.2885  0.4798
 2846TIP3    H229954   0.717   1.832   2.330 -0.9331 -2.0615 -0.2654
 2847TIP3   OH229955   1.586   2.073   1.980  0.1835 -0.2864  0.2568
 2847TIP3    H129956   1.583   2.006   1.911 -1.8289  1.3417 -1.3876
 2847TIP3    H229957   1.676   2.104   1.980  0.6092 -1.4785 -0.5003
 2848TIP3   OH229958   6.623   1.645  15.222  0.6029 -0.2082 -0.5056
 2848TIP3    H129959   6.567   1.695  15.282 -0.2296 -0.5600 -0.9746
 2848TIP3    H229960   6.651   1.709  15.156  2.3012  0.4108  0.7423
 2849TIP3   OH229961   2.481   5.802  16.980 -0.2699 -0.1989  0.2181
 2849TIP3    H129962   2.548   5.805  16.912  0.5467  0.4457  1.0328
 2849TIP3    H229963   2.478   5.710  17.006  0.2628 -0.2427  0.1397
 2850TIP3   OH229964   5.875   3.457   2.934  0.5393  0.0658  0.2738
 2850TIP3    H129965   5.932   3.382   2.952  0.8194  0.7013  2.2745
 2850TIP3    H229966   5.927   3.512   2.875  1.1868 -0.3289  0.4610
 2851TIP3   OH229967   3.566   5.368  14.529  0.0116 -0.1811 -0.2578
 2851TIP3    H129968   3.517   5.286  14.525  0.1216 -0.2477 -0.2525
 2851TIP3    H229969   3.571   5.398  14.439  0.7866 -0.6671 -0.3841
 2852TIP3   OH229970   6.472   4.028   5.938 -0.0652 -0.4713 -0.1599
 2852TIP3    H129971   6.507   4.098   5.993 -0.0877  1.6954 -2.7269
 2852TIP3    H229972   6.399   3.992   5.989 -0.5227  1.8955  0.9775
 2853TIP3   OH229973   0.681   0.468  12.834  0.0025 -0.1091 -0.0124
 2853TIP3    H129974   0.633   0.389  12.859 -2.2804  1.0381 -0.4678
 2853TIP3    H229975   0.685   0.521  12.914 -0.2905  0.1819 -0.1882
 2854TIP3   OH229976   4.580   0.463   6.741 -0.3975 -0.5488 -0.6729
 2854TIP3    H129977   4.564   0.556   6.757 -0.0501 -0.9586  2.7480
 2854TIP3    H229978   4.498   0.420   6.765  0.5343 -1.3327  1.3876
 2855TIP3   OH229979   5.162   1.732  13.247  0.3396  0.2818 -0.8582
 2855TIP3    H129980   5.089   1.767  13.197  0.1575  1.3757  0.1340
 2855TIP3    H229981   5.211   1.809  13.276  0.4109 -0.2977  0.6686
 2856TIP3   OH229982   6.432   4.526   2.748  0.5535  0.7234  0.0275
 2856TIP3    H129983   6.354   4.581   2.745 -0.7067 -0.8414  1.6938
 2856TIP3    H229984   6.437   4.486   2.662 -2.4650 -1.6264  0.7726
 2857TIP3   OH229985   1.500   1.866   2.137  0.5707 -0.0113 -0.0589
 2857TIP3    H129986   1.540   1.861   2.224 -2.4097  0.5567  1.4959
 2857TIP3    H229987   1.535   1.945   2.098  0.2322  1.0309  1.6522
 2858TIP3   OH229988   6.209   4.985   0.298 -0.2345  0.1302  0.2958
 2858TIP3    H129989   6.225   4.934   0.218  0.5855 -0.8673  1.0636
 2858TIP3    H229990   6.128   4.949   0.334 -0.1057 -0.0683  0.3927
 2859TIP3   OH229991   2.906   3.545   0.472 -0.1755  0.7682 -0.0763
 2859TIP3    H129992   2.988   3.499   0.453 -0.4124  0.7590 -1.1673
 2859TIP3    H229993   2.870   3.501   0.548 -0.1131 -0.4864 -0.7465
 2860TIP3   OH229994   1.520   1.782   4.674  0.1980  0.1302  0.4511
 2860TIP3    H129995   1.433   1.815   4.697 -0.1129 -1.3814  1.6282
 2860TIP3    H229996   1.574   1.860   4.665 -1.0823  1.0593  0.5600
 2861TIP3   OH229997   2.757   3.667   0.674 -0.4038  0.1245  0.1351
 2861TIP3    H129998   2.682   3.723   0.693 -0.8732 -1.0976  2.1159
 2861TIP3    H229999   2.781   3.689   0.584 -1.3531  2.5526  0.4124
 2862TIP3   OH230000   5.127   2.612  16.399  0.1161 -0.1123 -0.1462
 2862TIP3    H130001   5.176   2.655  16.469 -0.6614  0.9957 -0.2562
 2862TIP3    H230002   5.038   2.604  16.433 -0.2812  0.4599 -0.9974
 2863TIP3   OH230003   0.679   1.337   1.512  0.2564  0.3490 -0.5368
 2863TIP3    H130004   0.680   1.244   1.493 -1.3184  0.3078 -0.5884
 2863TIP3    H230005   0.743   1.349   1.582 -0.8844 -1.0759  0.8020
 2864TIP3   OH230006   2.661   0.920  16.288  0.1199  0.1543 -0.4588
 2864TIP3    H130007   2.754   0.930  16.270  0.3212  1.9306  1.1827
 2864TIP3    H230008   2.619   0.986  16.234  0.0989  1.0425  0.5969
 2865TIP3   OH230009   2.556   5.390  12.878  0.2189 -0.3560 -0.3218
 2865TIP3    H130010   2.488   5.416  12.940  0.4061 -0.5517 -0.0306
 2865TIP3    H230011   2.621   5.460  12.884  0.4019 -0.5446 -0.0344
 2866TIP3   OH230012   0.255   3.708   2.335  0.5047  0.0639 -0.3947
 2866TIP3    H130013   0.271   3.797   2.303 -0.6671  0.1842 -0.6991
 2866TIP3    H230014   0.316   3.697   2.408  0.8135  1.0376 -0.4918
 2867TIP3   OH230015   3.338   2.353   3.859  0.1934  0.2430 -0.0518
 2867TIP3    H130016   3.340   2.303   3.777 -1.5645  1.1757 -0.7178
 2867TIP3    H230017   3.313   2.289   3.925  1.4236 -0.4785 -0.2545
 2868TIP3   OH230018   4.196   0.215   2.226 -0.7767 -0.8280 -0.4160
 2868TIP3    H130019   4.228   0.223   2.136  0.6043  0.2415  0.1314
 2868TIP3    H230020   4.242   0.284   2.273 -1.5297 -1.3392  1.1110
 2869TIP3   OH230021   1.065   2.206  13.148  0.0344 -0.0832  0.1673
 2869TIP3    H130022   1.099   2.125  13.112  2.1638  1.7931 -2.4671
 2869TIP3    H230023   1.142   2.250  13.185 -0.6848  1.4884 -0.1057
 2870TIP3   OH230024   5.578   2.791  12.810  1.0286 -0.2426  0.1341
 2870TIP3    H130025   5.497   2.745  12.787  1.8261 -2.2381  1.0648
 2870TIP3    H230026   5.569   2.808  12.904  0.9543  1.1668 -0.1024
 2871TIP3   OH230027   3.691   0.739  14.255 -0.1298  0.3956 -0.1389
 2871TIP3    H130028   3.625   0.715  14.191  0.4713  1.3995 -1.1709
 2871TIP3    H230029   3.641   0.769  14.331 -0.8534  0.4443 -0.6243
 2872TIP3   OH230030   6.131   5.689  14.035 -0.9695  0.1882 -0.1409
 2872TIP3    H130031   6.156   5.603  14.068  1.9332  1.5779  1.7512
 2872TIP3    H230032   6.165   5.691  13.946 -0.2442 -0.3241  0.1141
 2873TIP3   OH230033   5.919   0.143   5.139 -0.1036 -0.2904  0.1272
 2873TIP3    H130034   5.957   0.074   5.085  0.2993 -0.7495  0.9626
 2873TIP3    H230035   5.876   0.202   5.078 -3.0075 -2.8017 -0.4657
 2874TIP3   OH230036   3.603   4.388  14.079  0.6713 -0.1332 -0.1400
 2874TIP3    H130037   3.602   4.447  14.155  1.1332  1.8103 -1.5363
 2874TIP3    H230038   3.573   4.304  14.113 -3.0567  1.5851  1.4353
 2875TIP3   OH230039   0.292   5.846   4.730  0.4685 -0.2891 -0.1221
 2875TIP3    H130040   0.361   5.871   4.669 -0.5480 -0.3056 -1.3079
 2875TIP3    H230041   0.265   5.927   4.772 -1.4152  0.4337 -2.4807
 2876TIP3   OH230042   2.579   1.870   0.750  0.3904  0.0998 -0.1774
 2876TIP3    H130043   2.637   1.814   0.699 -0.3196 -1.2625  0.4671
 2876TIP3    H230044   2.637   1.924   0.803  1.0782 -1.2147  0.4383
 2877TIP3   OH230045   4.582   4.764  16.269 -0.2229 -1.0090  0.2349
 2877TIP3    H130046   4.668   4.752  16.228 -0.5952 -2.0937 -0.2853
 2877TIP3    H230047   4.534   4.821  16.210  0.1509 -0.3595  0.5528
 2878TIP3   OH230048   1.617   4.785   4.080  0.3719  0.5251 -0.2154
 2878TIP3    H130049   1.556   4.717   4.108 -0.8802  1.5310 -0.4167
 2878TIP3    H230050   1.611   4.852   4.148  0.2574  1.2185 -0.8980
 2879TIP3   OH230051   0.078   1.551   0.370  0.3317  0.4563 -0.7055
 2879TIP3    H130052   0.094   1.639   0.337 -1.9169  1.1178 -0.2474
 2879TIP3    H230053   0.044   1.503   0.293  0.5723  0.3012 -0.7142
 2880TIP3   OH230054   5.272   1.106   5.970 -0.9302 -0.6622 -0.3463
 2880TIP3    H130055   5.254   1.185   5.919 -1.2683  0.4232  1.3646
 2880TIP3    H230056   5.357   1.121   6.010  0.0991 -2.2048 -1.7981
 2881TIP3   OH230057   0.189   6.124   1.650 -0.2313 -0.8055  0.0996
 2881TIP3    H130058   0.183   6.201   1.706  0.1741 -0.2708 -0.5781
 2881TIP3    H230059   0.272   6.133   1.604 -0.1232 -1.7087  0.0908
 2882TIP3   OH230060   6.613   0.057  16.286 -0.2362  0.0319 -0.1459
 2882TIP3    H130061   6.708   0.060  16.277 -0.1159  1.6023  1.2032
 2882TIP3    H230062   6.579   0.082  16.199  0.6332  1.5756 -0.0758
 2883TIP3   OH230063   0.713   6.640   3.103 -0.9184 -0.3508 -0.1069
 2883TIP3    H130064   0.808   6.643   3.090 -0.9935  3.3443 -1.0954
 2883TIP3    H230065   0.702   6.622   3.196  0.7809 -0.6019  0.0750
 2884TIP3   OH230066   5.680   1.329   4.679 -0.0328  0.4125  0.6493
 2884TIP3    H130067   5.646   1.386   4.748 -0.6458 -0.0092  0.6965
 2884TIP3    H230068   5.635   1.246   4.691  1.2151 -0.2605  0.8888
 2885TIP3   OH230069   2.204   1.152   6.603 -0.2121 -0.7149  0.1289
 2885TIP3    H130070   2.285   1.155   6.653  1.4979  1.0505 -2.5051
 2885TIP3    H230071   2.212   1.223   6.539 -3.5004 -0.9782 -0.7833
 2886TIP3   OH230072   0.284   0.631  14.970  0.0031 -0.6737  0.3343
 2886TIP3    H130073   0.293   0.691  14.896 -0.1546 -0.8784  0.1455
 2886TIP3    H230074   0.333   0.672  15.041 -1.1191  0.2840  0.5854
 2887TIP3   OH230075   4.825   0.589  13.216  0.2785 -0.2856  0.0266
 2887TIP3    H130076   4.776   0.515  13.251 -1.2954  1.0525  0.7594
 2887TIP3    H230077   4.777   0.667  13.246  0.4213  1.0167 -2.7863
 2888TIP3   OH230078   5.858   1.561   5.243 -1.1785  0.1661 -0.0639
 2888TIP3    H130079   5.870   1.527   5.332 -0.2175 -0.3178 -0.3658
 2888TIP3    H230080   5.886   1.652   5.248  0.1513 -0.2170 -0.1495
 2889TIP3   OH230081   1.049   5.625  13.071  0.1042 -0.2037  0.2485
 2889TIP3    H130082   1.014   5.713  13.086  0.2296 -0.2186  0.6657
 2889TIP3    H230083   1.076   5.625  12.980  1.9321  0.8405  0.7484
 2890TIP3   OH230084   3.975   6.650  15.926  0.1504  0.4906 -0.1697
 2890TIP3    H130085   3.934   6.564  15.925  0.1270  0.4694  1.1356
 2890TIP3    H230086   4.047   6.642  15.988 -1.3298  2.0177  1.8953
 2891TIP3   OH230087   6.141   1.842   6.131 -0.1062 -0.5244 -0.9513
 2891TIP3    H130088   6.137   1.764   6.187 -0.2817 -0.6267 -1.1052
 2891TIP3    H230089   6.231   1.872   6.139 -0.8948  1.4252  2.0305
 2892TIP3   OH230090   0.928   2.130   3.429  0.4211 -0.1235  0.2083
 2892TIP3    H130091   0.910   2.216   3.391  0.1162 -0.2037  0.1688
 2892TIP3    H230092   0.861   2.119   3.496  0.6448 -0.2013  0.4178
 2893TIP3   OH230093   1.595   5.170   2.926 -0.4751  0.3642 -0.5864
 2893TIP3    H130094   1.652   5.134   2.858 -0.0230  1.6395 -0.9056
 2893TIP3    H230095   1.577   5.260   2.898  0.0511  1.0723  1.1759
 2894TIP3   OH230096   0.156   0.132  12.998  0.3312 -0.2633 -0.1465
 2894TIP3    H130097   0.121   0.054  13.042  1.0682  0.2770  1.5071
 2894TIP3    H230098   0.188   0.187  13.070  1.6607  0.6741 -1.3957
 2895TIP3   OH230099   2.859   4.194  16.814 -0.2056 -0.6957  0.1552
 2895TIP3    H130100   2.949   4.223  16.799 -0.7883  0.9668 -0.3259
 2895TIP3    H230101   2.809   4.231  16.741 -1.5270 -0.3362  1.1985
 2896TIP3   OH230102   1.060   1.948   2.424  0.2253  0.0120 -0.1701
 2896TIP3    H130103   1.118   1.977   2.353 -0.6116  0.2030 -0.8003
 2896TIP3    H230104   0.980   1.919   2.379  0.2072 -1.2057  0.6016
 2897TIP3   OH230105   0.847   0.571   4.917 -0.0853  0.4444 -0.1924
 2897TIP3    H130106   0.884   0.618   4.842 -0.0378  0.9459  0.1381
 2897TIP3    H230107   0.908   0.499   4.933 -0.8793 -0.5719 -1.5604
 2898TIP3   OH230108   5.395   2.733   1.783 -0.4049  0.3041  0.1400
 2898TIP3    H130109   5.369   2.777   1.702 -0.9824 -0.7147 -0.2524
 2898TIP3    H230110   5.345   2.776   1.852 -0.7345  0.4492 -0.1882
 2899TIP3   OH230111   3.035   3.509   1.336  0.2700 -0.2072  0.2482
 2899TIP3    H130112   3.110   3.464   1.373  1.4622 -0.0418 -1.7936
 2899TIP3    H230113   3.001   3.563   1.408  2.1811 -0.1973  1.2098
 2900TIP3   OH230114   6.686   6.402   1.760 -0.3697  0.0294 -0.0430
 2900TIP3    H130115   6.699   6.416   1.666 -1.5460  0.9305 -0.0884
 2900TIP3    H230116   6.752   6.337   1.784 -1.0184 -1.3286 -1.7971
 2901TIP3   OH230117   6.328   3.302   1.010 -0.4874  0.4125 -0.0818
 2901TIP3    H130118   6.390   3.297   1.083 -0.9296  1.2537  0.3631
 2901TIP3    H230119   6.338   3.219   0.964  2.0482  1.0523 -0.8943
 2902TIP3   OH230120   4.096   0.693  13.410 -0.5223 -0.7128 -0.4211
 2902TIP3    H130121   4.054   0.655  13.333  1.6153  0.3491 -2.2298
 2902TIP3    H230122   4.187   0.666  13.403  0.3886  1.9317 -0.0122
 2903TIP3   OH230123   3.305   4.372  12.276  0.4173  0.0048 -0.2056
 2903TIP3    H130124   3.232   4.334  12.324  0.5333 -0.4581 -0.3992
 2903TIP3    H230125   3.264   4.419  12.203  0.3202 -0.3447 -0.3757
 2904TIP3   OH230126   4.470   1.970   3.251 -0.3975  0.1080  0.7413
 2904TIP3    H130127   4.422   2.045   3.214 -0.2856  0.3663  1.1080
 2904TIP3    H230128   4.404   1.921   3.298 -0.6569 -0.5406 -0.2682
 2905TIP3   OH230129   5.104   0.760  12.366 -0.1081 -0.8644  0.1433
 2905TIP3    H130130   5.128   0.779  12.457 -1.1569 -0.1856  0.2924
 2905TIP3    H230131   5.017   0.798  12.355  0.1066 -0.7037 -1.2277
 2906TIP3   OH230132   3.478   2.154  14.569  0.1039 -0.3915  0.2385
 2906TIP3    H130133   3.519   2.239  14.580  2.8170 -1.7581  1.8260
 2906TIP3    H230134   3.509   2.123  14.484  0.3947 -0.4166  0.3527
 2907TIP3   OH230135   6.499   6.239  16.420 -0.0820 -0.3714 -0.8656
 2907TIP3    H130136   6.581   6.190  16.422  0.1154 -0.0449 -0.9148
 2907TIP3    H230137   6.518   6.319  16.469 -0.5737 -0.6065 -0.2774
 2908TIP3   OH230138   3.372   6.467  12.164 -0.4909 -0.1762  0.3026
 2908TIP3    H130139   3.298   6.409  12.184 -0.1778 -0.5595  0.3714
 2908TIP3    H230140   3.441   6.407  12.133 -0.4784  0.2568 -0.5320
 2909TIP3   OH230141   5.535   6.072  11.596 -0.3866 -0.9311 -0.7949
 2909TIP3    H130142   5.613   6.079  11.541 -0.4662 -0.9127 -0.9046
 2909TIP3    H230143   5.544   6.144  11.658  1.1657 -2.6091  1.0698
 2910TIP3   OH230144   3.819   2.433   5.528 -0.5472  0.1401 -0.1967
 2910TIP3    H130145   3.826   2.352   5.477  0.3851 -0.6568  1.1191
 2910TIP3    H230146   3.754   2.485   5.482 -0.7644 -1.1285 -1.3937
 2911TIP3   OH230147   4.679   5.428  15.937 -0.1622  0.3757 -0.0064
 2911TIP3    H130148   4.720   5.432  15.850  0.7839 -2.2697  0.2206
 2911TIP3    H230149   4.586   5.441  15.920 -0.2405 -1.8299 -1.7474
 2912TIP3   OH230150   0.306   6.132   2.934 -0.0859 -0.4568 -0.1826
 2912TIP3    H130151   0.216   6.115   2.962  0.7470 -1.0493  2.3973
 2912TIP3    H230152   0.342   6.045   2.917 -0.1994 -0.1715 -2.0370
 2913TIP3   OH230153   5.538   4.118  11.585 -0.2318  0.0860 -0.2422
 2913TIP3    H130154   5.543   4.025  11.609 -1.2306  0.0656 -0.0680
 2913TIP3    H230155   5.618   4.156  11.620 -0.1296 -0.5818  0.2765
 2914TIP3   OH230156   6.546   5.425  17.321 -0.1122 -0.5627  0.6274
 2914TIP3    H130157   6.516   5.512  17.347 -0.5182 -0.4618 -0.1614
 2914TIP3    H230158   6.633   5.439  17.285 -0.7077 -0.2524 -0.7853
 2915TIP3   OH230159   4.459   4.683  14.834  0.3092 -0.8120  0.4293
 2915TIP3    H130160   4.484   4.686  14.741  0.3037 -0.0026  0.4541
 2915TIP3    H230161   4.364   4.675  14.832  0.3563 -1.4014  0.3635
 2916TIP3   OH230162   2.694   5.554  14.742  0.0573  0.3796 -0.1545
 2916TIP3    H130163   2.660   5.605  14.668  1.0056  1.0394 -0.1528
 2916TIP3    H230164   2.789   5.562  14.734  0.1824 -0.2018  0.6870
 2917TIP3   OH230165   5.310   4.898  16.649 -0.0022  0.2300  0.1184
 2917TIP3    H130166   5.370   4.825  16.637 -0.8418 -0.1863 -1.9046
 2917TIP3    H230167   5.365   4.970  16.681  1.6415 -0.0735 -1.8641
 2918TIP3   OH230168   4.539   0.529   1.663 -0.1887 -0.1364 -0.3418
 2918TIP3    H130169   4.590   0.458   1.626 -1.7477 -0.6878 -1.5431
 2918TIP3    H230170   4.581   0.548   1.747  1.6222 -0.8986 -1.0268
 2919TIP3   OH230171   2.391   5.401  13.573 -0.3860 -0.3062 -0.3850
 2919TIP3    H130172   2.396   5.333  13.506 -1.8040  0.0758 -0.8977
 2919TIP3    H230173   2.364   5.354  13.652  1.0321 -0.7136 -0.1055
 2920TIP3   OH230174   1.777   4.192   6.287  0.1069 -0.2507 -0.1264
 2920TIP3    H130175   1.823   4.159   6.364  1.7846  1.3552 -0.3657
 2920TIP3    H230176   1.690   4.153   6.292  1.3525 -3.1690  0.5270
 2921TIP3   OH230177   2.310   5.022  10.458 -0.0831 -1.1953 -0.4717
 2921TIP3    H130178   2.391   5.066  10.483 -0.1622 -1.0989 -0.3808
 2921TIP3    H230179   2.336   4.934  10.432 -0.2534 -2.2546  2.4882
 2922TIP3   OH230180   1.080   2.347  12.881 -0.4200 -0.6603 -0.0573
 2922TIP3    H130181   1.132   2.284  12.830  0.9073 -0.0071  0.4564
 2922TIP3    H230182   1.091   2.319  12.972  1.3387  1.0821  0.3273
 2923TIP3   OH230183   6.271   0.807   3.929  0.7327  0.4656 -0.1470
 2923TIP3    H130184   6.177   0.788   3.932  0.2290  2.3896 -1.5954
 2923TIP3    H230185   6.303   0.781   4.015 -1.2573  0.3969  0.6377
 2924TIP3   OH230186   2.255   6.514   0.129 -0.0869 -0.4703  0.3086
 2924TIP3    H130187   2.228   6.422   0.132 -0.8921 -0.2657 -0.2279
 2924TIP3    H230188   2.225   6.551   0.211 -0.8331 -0.4154  0.0207
 2925TIP3   OH230189   4.829   0.969  14.426  0.6195 -0.4108  0.0015
 2925TIP3    H130190   4.904   1.023  14.452 -0.0828  0.2530  0.7049
 2925TIP3    H230191   4.752   1.023  14.447 -0.1253 -1.8349  1.1174
 2926TIP3   OH230192   2.607   3.986  13.706 -0.2310 -0.2335  0.4169
 2926TIP3    H130193   2.516   3.977  13.735 -0.1530  0.8589  1.0747
 2926TIP3    H230194   2.646   4.049  13.768  1.1836 -1.2330  0.6109
 2927TIP3   OH230195   6.479   6.654   0.574 -0.3081 -0.3479 -0.0605
 2927TIP3    H130196   6.484   6.575   0.628  2.3846  0.3426  0.8343
 2927TIP3    H230197   6.489   6.726   0.636  0.3870  0.5665 -1.2014
 2928TIP3   OH230198   1.679   0.288  15.285  0.3964 -0.1618  0.1848
 2928TIP3    H130199   1.681   0.263  15.377 -0.0986 -0.6691  0.0581
 2928TIP3    H230200   1.613   0.232  15.246 -1.5352  1.9829  0.1059
 2929TIP3   OH230201   2.465   1.092   5.487 -0.5121  0.0641  0.0664
 2929TIP3    H130202   2.381   1.058   5.518 -0.2840 -2.4254 -1.7141
 2929TIP3    H230203   2.527   1.067   5.556 -0.8538 -0.3554  0.2304
 2930TIP3   OH230204   1.178   6.325  12.680  0.5120  0.0699  0.1908
 2930TIP3    H130205   1.216   6.377  12.609 -0.8477  1.0677  0.1653
 2930TIP3    H230206   1.088   6.356  12.688 -0.7040 -2.9318 -0.4282
 2931TIP3   OH230207   6.467   1.565   3.524 -0.0871  0.4704 -0.6125
 2931TIP3    H130208   6.507   1.486   3.561 -0.2620  1.5050  1.9786
 2931TIP3    H230209   6.379   1.537   3.498 -0.6355  0.0367  1.5197
 2932TIP3   OH230210   3.871   5.306   5.415  0.2990  0.0742 -0.0608
 2932TIP3    H130211   3.802   5.276   5.356  0.0706  0.7778 -0.1653
 2932TIP3    H230212   3.952   5.270   5.378 -0.1444 -2.0854  0.9429
 2933TIP3   OH230213   4.529   5.392   2.925 -0.1510  0.3919  0.2517
 2933TIP3    H130214   4.452   5.430   2.967  1.4567  2.3404  1.5909
 2933TIP3    H230215   4.583   5.360   2.997  1.6452  1.7829 -0.4154
 2934TIP3   OH230216   0.580   5.783   4.204  0.4331  0.1292 -0.3852
 2934TIP3    H130217   0.643   5.855   4.208 -0.2428  0.7275 -0.4038
 2934TIP3    H230218   0.628   5.708   4.240  1.1591  0.5689 -0.4103
 2935TIP3   OH230219   1.468   5.873   5.069 -0.3578  0.0477  1.2229
 2935TIP3    H130220   1.442   5.805   5.007 -1.2216 -0.1535  1.7945
 2935TIP3    H230221   1.548   5.839   5.109  0.1432  0.1231  0.3279
 2936TIP3   OH230222   6.365   5.221  14.940 -0.0797 -0.3477  0.1239
 2936TIP3    H130223   6.306   5.283  14.898 -0.6822 -1.6026 -0.9235
 2936TIP3    H230224   6.308   5.153  14.975  0.4064  0.5183  2.8781
 2937TIP3   OH230225   5.854   0.227   4.770  0.0788  0.3350 -0.4399
 2937TIP3    H130226   5.819   0.300   4.720  1.2602  0.9947 -0.3245
 2937TIP3    H230227   5.807   0.150   4.737 -0.1849  0.9610 -1.5329
 2938TIP3   OH230228   6.506   0.463   0.144  0.1602  0.2586  0.0839
 2938TIP3    H130229   6.479   0.514   0.221 -1.5968 -0.9084  0.3014
 2938TIP3    H230230   6.596   0.492   0.127 -0.0206  1.8306  1.4900
 2939TIP3   OH230231   3.443   3.941  10.879  0.5503 -0.9344 -0.8981
 2939TIP3    H130232   3.440   3.847  10.861  1.1812 -1.2493  0.5335
 2939TIP3    H230233   3.378   3.979  10.820  1.3646 -2.0730 -2.5953
 2940TIP3   OH230234   3.824   6.178   3.151  0.1292  0.3639 -0.7163
 2940TIP3    H130235   3.808   6.253   3.208  1.4722  1.6573 -1.9477
 2940TIP3    H230236   3.919   6.174   3.142  0.1553 -1.9506 -0.1520
 2941TIP3   OH230237   3.338   0.408  13.508 -0.1019  0.0143 -0.4141
 2941TIP3    H130238   3.401   0.479  13.505  0.6083 -0.5165  1.1987
 2941TIP3    H230239   3.328   0.381  13.416 -0.8372  2.5210 -1.1394
 2942TIP3   OH230240   0.289   3.024   4.342  0.2547 -0.0043 -0.1600
 2942TIP3    H130241   0.346   2.985   4.408  0.9819 -1.4484 -1.5714
 2942TIP3    H230242   0.340   3.020   4.261  0.0756  3.2473 -0.5795
 2943TIP3   OH230243   3.693   2.537   1.580  0.0350 -0.3394 -0.4395
 2943TIP3    H130244   3.616   2.549   1.634  0.2959 -0.3774 -0.0581
 2943TIP3    H230245   3.662   2.551   1.490 -0.6134 -1.2429 -0.3756
 2944TIP3   OH230246   2.662   0.433  12.027 -0.4381 -0.2731  0.0578
 2944TIP3    H130247   2.615   0.430  12.110  0.6533  0.9736  0.7587
 2944TIP3    H230248   2.699   0.345  12.018  0.5058 -0.0673  1.5646
 2945TIP3   OH230249   2.806   5.172   3.088 -0.3893 -0.6535 -0.0258
 2945TIP3    H130250   2.776   5.083   3.069 -1.7142 -0.0959 -0.6336
 2945TIP3    H230251   2.858   5.196   3.011 -1.0927 -0.4422 -0.4382
 2946TIP3   OH230252   5.848   5.110   4.702  0.3348 -0.3325 -0.0942
 2946TIP3    H130253   5.834   5.019   4.676  0.3450 -0.8627  1.6423
 2946TIP3    H230254   5.840   5.109   4.798 -1.9135  1.8824 -0.1486
 2947TIP3   OH230255   3.241   3.331  12.808  0.1014 -0.2715 -0.2724
 2947TIP3    H130256   3.276   3.282  12.734  1.2656  0.3044 -0.1264
 2947TIP3    H230257   3.228   3.266  12.877 -1.3247 -0.8728 -1.0694
 2948TIP3   OH230258   4.182   2.790  15.724 -0.1472  0.1652  0.2267
 2948TIP3    H130259   4.091   2.770  15.748  0.7431 -1.0677  2.9112
 2948TIP3    H230260   4.225   2.705  15.720  0.9064  0.7258 -1.2019
 2949TIP3   OH230261   2.077   3.446  15.993 -0.2385  0.2412 -0.4184
 2949TIP3    H130262   2.101   3.537  16.010 -1.5357 -0.0316  4.2404
 2949TIP3    H230263   2.080   3.404  16.079 -0.6173 -3.9502 -2.2058
 2950TIP3   OH230264   4.624   2.951   6.341 -0.8141  0.0595 -0.9443
 2950TIP3    H130265   4.674   2.929   6.263  1.0279  2.5369 -0.6042
 2950TIP3    H230266   4.554   3.009   6.310  0.8760  2.3727 -0.7089
 2951TIP3   OH230267   4.965   3.212   5.131 -0.2819  0.0821 -0.1859
 2951TIP3    H130268   5.021   3.156   5.078 -0.2253  1.0995 -1.2443
 2951TIP3    H230269   5.026   3.265   5.182 -0.3277 -1.6497  1.8133
 2952TIP3   OH230270   6.338   0.762  15.531  0.4819  0.1725  0.2076
 2952TIP3    H130271   6.357   0.831  15.468 -1.4795  0.4459 -0.1240
 2952TIP3    H230272   6.386   0.686  15.498  1.4037  0.9348 -0.2657
 2953TIP3   OH230273   4.275   4.656   5.503  0.0800 -0.4462  0.4142
 2953TIP3    H130274   4.347   4.644   5.441 -0.8864 -1.0268 -0.6267
 2953TIP3    H230275   4.281   4.580   5.561 -1.0241 -1.7151 -1.0663
 2954TIP3   OH230276   0.608   1.928  15.638 -0.6915 -0.4186 -0.7718
 2954TIP3    H130277   0.538   1.865  15.627 -0.1572 -1.3919  1.0233
 2954TIP3    H230278   0.683   1.877  15.668 -0.3048  1.0487  0.9733
 2955TIP3   OH230279   2.103   1.169  15.677  0.3624  0.4300 -0.2578
 2955TIP3    H130280   2.068   1.257  15.690  0.5779  0.4134  0.4652
 2955TIP3    H230281   2.191   1.183  15.642  1.0458  0.5499  1.4323
 2956TIP3   OH230282   4.556   1.593  11.959 -0.0087  0.2357  0.3183
 2956TIP3    H130283   4.510   1.637  11.887  1.1534  2.1920  0.7001
 2956TIP3    H230284   4.601   1.520  11.917  0.2941  1.0786 -0.8683
 2957TIP3   OH230285   2.292   5.425   0.624  0.2294  0.0016  0.2237
 2957TIP3    H130286   2.221   5.439   0.561  0.4872 -1.0260 -0.3306
 2957TIP3    H230287   2.288   5.500   0.682 -1.1008  0.1399 -0.0031
 2958TIP3   OH230288   4.682   6.708   6.261  0.4369 -0.0183 -0.0684
 2958TIP3    H130289   4.595   6.674   6.284 -0.2001  0.1207 -2.0768
 2958TIP3    H230290   4.740   6.632   6.268 -0.3444 -0.7513 -1.1480
 2959TIP3   OH230291   3.066   3.552  13.666 -0.7468 -0.1442 -0.9372
 2959TIP3    H130292   3.110   3.510  13.740 -2.4729  1.5068  1.1592
 2959TIP3    H230293   3.136   3.594  13.617  0.2686  1.1431  1.4421
 2960TIP3   OH230294   0.547   5.539  11.097  0.1607 -0.0597 -0.3533
 2960TIP3    H130295   0.569   5.616  11.148 -0.2904  0.4606 -0.9316
 2960TIP3    H230296   0.481   5.493  11.149 -0.9478  0.9265 -0.8500
 2961TIP3   OH230297   2.414   1.555  10.825  0.1306  0.0420  0.2421
 2961TIP3    H130298   2.324   1.578  10.801 -0.1863  0.0260  1.3917
 2961TIP3    H230299   2.462   1.638  10.816  0.0470  0.0144 -0.5385
 2962TIP3   OH230300   3.784   1.306  15.605  0.0239 -0.5208  0.0727
 2962TIP3    H130301   3.773   1.381  15.546 -1.6911 -1.0471 -0.3408
 2962TIP3    H230302   3.716   1.245  15.577  0.2424 -1.4714  1.5696
 2963TIP3   OH230303   6.095   1.041   5.373 -0.2287 -0.4133 -0.0358
 2963TIP3    H130304   6.154   1.112   5.348 -0.2330 -0.0684  0.9004
 2963TIP3    H230305   6.135   0.963   5.333  0.8696 -0.1850  0.5612
 2964TIP3   OH230306   4.820   4.589   0.103 -0.3286 -0.2463 -0.1709
 2964TIP3    H130307   4.768   4.589   0.184 -1.6059 -0.0271 -0.9511
 2964TIP3    H230308   4.795   4.507   0.060  1.2347 -0.9397  0.1731
 2965TIP3   OH230309   0.848   1.075   4.875 -0.1915  0.2911  0.9393
 2965TIP3    H130310   0.884   1.116   4.796 -1.0236  0.7075  0.7661
 2965TIP3    H230311   0.912   1.007   4.898 -0.3289 -0.4041 -0.5693
 2966TIP3   OH230312   2.805   3.386   5.189 -0.0401 -0.5106  0.0520
 2966TIP3    H130313   2.756   3.304   5.186 -0.7948 -0.1093  1.0426
 2966TIP3    H230314   2.830   3.396   5.281 -0.5239  0.7010  0.0617
 2967TIP3   OH230315   1.507   2.524  14.063 -0.6461 -0.3392 -0.2541
 2967TIP3    H130316   1.420   2.485  14.056  0.3024 -2.8012  0.7810
 2967TIP3    H230317   1.523   2.531  14.157 -0.4065  1.8904 -0.3890
 2968TIP3   OH230318   6.005   6.381   3.268  0.6757 -0.1395 -0.1102
 2968TIP3    H130319   6.043   6.302   3.306 -0.2707 -2.7129 -3.9185
 2968TIP3    H230320   5.927   6.397   3.321  3.0543  1.0303  3.4020
 2969TIP3   OH230321   3.485   0.829  15.255 -0.3662  0.6839 -0.0074
 2969TIP3    H130322   3.478   0.778  15.174  0.6319 -2.3226  1.6465
 2969TIP3    H230323   3.395   0.855  15.275 -1.6510 -3.6958  0.8939
 2970TIP3   OH230324   4.902   1.621  12.236 -0.3123  0.3860 -0.1225
 2970TIP3    H130325   4.904   1.526  12.244  1.0791  0.3767 -0.1885
 2970TIP3    H230326   4.959   1.652  12.307  1.3854  0.9999 -1.6645
 2971TIP3   OH230327   5.125   5.953  13.972 -0.0475 -0.2530  0.3901
 2971TIP3    H130328   5.201   5.927  13.919  0.0896 -0.2177  0.5669
 2971TIP3    H230329   5.100   5.872  14.018 -1.0225 -0.6387 -0.7617
 2972TIP3   OH230330   4.419   3.920   4.306 -0.4443 -0.5385 -0.2456
 2972TIP3    H130331   4.343   3.870   4.278 -1.8314  1.5129 -0.3940
 2972TIP3    H230332   4.396   4.011   4.287  1.5535  0.2631  0.8539
 2973TIP3   OH230333   3.926   0.159  11.509 -0.0664 -0.4153 -0.0442
 2973TIP3    H130334   3.865   0.107  11.561 -1.3452  0.0704 -1.0189
 2973TIP3    H230335   3.883   0.169  11.424  1.5233 -0.3303 -0.8668
 2974TIP3   OH230336   4.454   1.270   0.679  0.1822 -0.0760 -0.7816
 2974TIP3    H130337   4.490   1.200   0.734  0.9567 -1.1617 -2.5779
 2974TIP3    H230338   4.524   1.334   0.672  0.4453 -0.4178 -1.3002
 2975TIP3   OH230339   4.109   6.747   2.312 -0.1961 -0.3194 -0.7832
 2975TIP3    H130340   4.134   6.704   2.231 -1.4787  1.8390 -2.4282
 2975TIP3    H230341   4.126   6.840   2.297  0.0614  0.0946  1.6543
 2976TIP3   OH230342   2.914   0.892  13.388  0.4477 -0.1233 -0.4154
 2976TIP3    H130343   2.931   0.963  13.326 -0.2388  1.5763  1.2381
 2976TIP3    H230344   2.995   0.882  13.437  0.4169 -0.1914 -0.3779
 2977TIP3   OH230345   2.757   0.509   2.180 -0.1527 -0.3610 -0.7981
 2977TIP3    H130346   2.808   0.521   2.260 -1.1154 -0.5081 -0.1428
 2977TIP3    H230347   2.676   0.557   2.195  0.5607  1.5839 -2.6295
 2978TIP3   OH230348   1.672   5.867  13.093 -0.0608  0.8265  0.2589
 2978TIP3    H130349   1.721   5.841  13.015 -2.5408 -0.9418 -0.8554
 2978TIP3    H230350   1.640   5.785  13.130 -2.5717  1.8814  0.6073
 2979TIP3   OH230351   0.790   4.868  12.992  0.0287  0.0870  0.1760
 2979TIP3    H130352   0.846   4.896  12.920  0.8235  0.2575  0.8471
 2979TIP3    H230353   0.848   4.862  13.068 -0.7032 -0.5101  0.7162
 2980TIP3   OH230354   4.686   4.858   1.372 -0.1239 -0.3478  0.2012
 2980TIP3    H130355   4.593   4.859   1.391 -0.4011  0.5041 -1.0693
 2980TIP3    H230356   4.723   4.926   1.429 -0.5909  0.6238 -0.6281
 2981TIP3   OH230357   5.492   6.605  15.864 -0.2969  0.1766  0.2708
 2981TIP3    H130358   5.404   6.619  15.897  0.2916 -0.3243  2.2556
 2981TIP3    H230359   5.544   6.589  15.943  1.4394 -0.1869 -0.8881
 2982TIP3   OH230360   6.323   3.347   4.111  0.0369  0.4460  0.2312
 2982TIP3    H130361   6.364   3.418   4.062  0.3220 -0.7156 -1.2931
 2982TIP3    H230362   6.256   3.389   4.165  0.9177  1.9672  0.1693
 2983TIP3   OH230363   1.186   1.377  13.211  0.1897  0.5962  0.2365
 2983TIP3    H130364   1.100   1.343  13.184  0.6260 -0.5803  0.2574
 2983TIP3    H230365   1.173   1.404  13.302 -0.5730  2.0063 -0.2558
 2984TIP3   OH230366   2.812   1.674  15.046  0.0794  0.0127 -0.3931
 2984TIP3    H130367   2.852   1.659  15.132  0.1901  1.2155 -0.2188
 2984TIP3    H230368   2.822   1.590  15.000 -1.8755 -1.3386  1.4829
 2985TIP3   OH230369   1.555   0.011   3.200 -0.4355  0.0935  0.4609
 2985TIP3    H130370   1.594  -0.052   3.260  1.1909  0.8375  0.2218
 2985TIP3    H230371   1.515   0.077   3.257  2.2351  1.5107  0.8280
 2986TIP3   OH230372   3.122   6.081   0.479  0.3689 -0.0682 -0.1209
 2986TIP3    H130373   3.073   6.116   0.404  0.2299  0.0436  0.0217
 2986TIP3    H230374   3.140   5.990   0.455 -1.4340 -0.6508  0.5562
 2987TIP3   OH230375   3.850   4.426   4.001  0.6087  0.4427 -0.2663
 2987TIP3    H130376   3.758   4.424   3.974  0.6245 -1.3310 -0.3175
 2987TIP3    H230377   3.847   4.425   4.096  0.5939  2.3644 -0.2078
 2988TIP3   OH230378   3.398   0.352  11.447  0.3228  0.5766 -0.8228
 2988TIP3    H130379   3.440   0.273  11.480  0.1163  0.5194 -0.6984
 2988TIP3    H230380   3.334   0.375  11.514  0.9141  1.2823 -0.4881
 2989TIP3   OH230381   6.355   2.797   1.903  0.3037 -0.6589  0.4638
 2989TIP3    H130382   6.309   2.879   1.887  0.3620 -0.6787  0.1928
 2989TIP3    H230383   6.348   2.784   1.997  2.1210  0.7613  0.8567
 2990TIP3   OH230384   6.080   1.760  12.226 -0.4469 -0.1715  0.2903
 2990TIP3    H130385   5.985   1.774  12.229 -0.4882 -0.1474 -0.6699
 2990TIP3    H230386   6.117   1.848  12.221 -0.3564 -0.1712  0.9164
 2991TIP3   OH230387   4.473   2.458  14.684 -0.0851 -0.8118 -0.5436
 2991TIP3    H130388   4.564   2.431  14.698  0.0093 -0.5126 -0.5818
 2991TIP3    H230389   4.479   2.550  14.659 -0.5395 -0.2361  1.3409
 2992TIP3   OH230390   1.347   1.446  17.246 -0.2320 -0.5168  0.2216
 2992TIP3    H130391   1.400   1.400  17.311  0.8561 -1.4409 -1.2662
 2992TIP3    H230392   1.383   1.535  17.244 -0.7992 -0.2335  1.4047
 2993TIP3   OH230393   6.422   4.058  11.614 -0.5606 -0.0606  0.6624
 2993TIP3    H130394   6.401   3.993  11.547  1.6956 -1.7756  1.5029
 2993TIP3    H230395   6.338   4.077  11.657 -1.7283 -0.2921 -1.3980
 2994TIP3   OH230396   5.109   6.269  12.150 -0.6288 -0.7792  0.6048
 2994TIP3    H130397   5.039   6.304  12.205 -0.0730 -2.0817  2.2135
 2994TIP3    H230398   5.094   6.175  12.147  0.3927 -0.9463  0.0023
 2995TIP3   OH230399   2.077   4.510  10.852  0.2355  0.7198 -0.3286
 2995TIP3    H130400   2.081   4.604  10.869  0.7105  0.6316  0.0842
 2995TIP3    H230401   2.071   4.470  10.939  1.9472  0.2926 -0.3681
 2996TIP3   OH230402   0.277   5.429  13.183 -0.1786 -0.2776 -0.2885
 2996TIP3    H130403   0.296   5.441  13.276 -1.3894  0.5555 -0.1229
 2996TIP3    H230404   0.234   5.510  13.157 -0.0965 -0.6115 -1.5204
 2997TIP3   OH230405   1.775   3.911   5.651  0.1624 -0.3552  0.0266
 2997TIP3    H130406   1.712   3.917   5.579 -0.5633 -0.9669  0.6038
 2997TIP3    H230407   1.791   4.002   5.676 -1.3633 -0.2208  0.6075
 2998TIP3   OH230408   1.616   3.871   4.851  0.2709  0.2101  0.2523
 2998TIP3    H130409   1.703   3.850   4.886 -0.1762 -1.2016  0.5811
 2998TIP3    H230410   1.611   3.825   4.768 -0.7271 -1.0475  0.9709
 2999TIP3   OH230411   4.828   3.618   3.660  0.0785 -0.7794 -0.5860
 2999TIP3    H130412   4.782   3.675   3.598  0.3877 -0.4237 -0.4916
 2999TIP3    H230413   4.920   3.645   3.653 -0.1034  0.4805  1.2883
 3000TIP3   OH230414   1.443   2.622  16.755  0.2004 -0.0659  0.1995
 3000TIP3    H130415   1.358   2.658  16.728 -0.0100 -0.6296  0.0821
 3000TIP3    H230416   1.473   2.680  16.824 -1.1703 -0.9069  1.5575
 3001TIP3   OH230417   3.649   1.951  14.671  0.0936 -0.5253  0.2426
 3001TIP3    H130418   3.718   1.995  14.720 -0.3236  0.6323 -0.1838
 3001TIP3    H230419   3.573   2.010  14.677 -0.7297 -1.5678  0.3422
 3002TIP3   OH230420   1.074   6.681   2.018 -0.3554  0.6248 -0.0484
 3002TIP3    H130421   0.988   6.659   2.053 -0.7303  2.1701  0.0700
 3002TIP3    H230422   1.059   6.758   1.963  0.9078  0.7716 -0.2141
 3003TIP3   OH230423   5.540   4.615   2.772  0.1931  0.6320  0.1415
 3003TIP3    H130424   5.549   4.579   2.861  0.4280  0.3175 -0.0062
 3003TIP3    H230425   5.519   4.538   2.718  0.3592  0.7728 -0.1239
 3004TIP3   OH230426   0.286   5.355   3.503 -0.0717  0.6781  0.1917
 3004TIP3    H130427   0.239   5.314   3.431  1.6366 -1.2282  0.0722
 3004TIP3    H230428   0.259   5.305   3.580  1.9423 -0.7242  0.0636
 3005TIP3   OH230429   5.012   0.748   0.944 -0.2075  0.2306  0.0704
 3005TIP3    H130430   4.945   0.692   0.906  0.6386 -0.6657 -0.1341
 3005TIP3    H230431   4.969   0.834   0.953 -0.9380  0.0413 -1.3571
 3006TIP3   OH230432   6.012   4.539   4.736  0.1064 -0.0043 -0.6969
 3006TIP3    H130433   6.066   4.574   4.665 -1.2431 -0.2967 -1.9217
 3006TIP3    H230434   5.949   4.481   4.692 -1.6093  0.7908  0.5646
 3007TIP3   OH230435   1.059   3.438   5.472 -0.1208  0.7571  0.0278
 3007TIP3    H130436   1.008   3.519   5.478  0.8294  1.6422 -2.6902
 3007TIP3    H230437   1.148   3.465   5.494  0.6149  1.0116 -2.9394
 3008TIP3   OH230438   0.464   6.289   3.606  0.3597  0.8929 -0.2065
 3008TIP3    H130439   0.528   6.230   3.646 -2.4508 -0.5757  2.5710
 3008TIP3    H230440   0.453   6.359   3.670  0.6202  2.2591 -1.5996
 3009TIP3   OH230441   1.565   4.669   2.600  0.2430  0.1617  0.3644
 3009TIP3    H130442   1.597   4.725   2.530 -0.8502 -0.6333 -0.8277
 3009TIP3    H230443   1.628   4.680   2.671  1.9881  0.1876 -1.1241
 3010TIP3   OH230444   3.871   5.573   1.437  1.1237 -0.0191 -0.5968
 3010TIP3    H130445   3.855   5.603   1.348  0.6240 -1.8944 -1.2016
 3010TIP3    H230446   3.792   5.599   1.486  0.7861 -0.1866 -1.0465
 3011TIP3   OH230447   0.612   3.638   0.983  0.0660  0.0873 -0.2151
 3011TIP3    H130448   0.551   3.708   0.959 -1.7338 -1.3311  0.0192
 3011TIP3    H230449   0.610   3.636   1.079  1.5375  0.8852 -0.1439
 3012TIP3   OH230450   3.310   1.459   5.312 -0.3194  0.1550  0.0922
 3012TIP3    H130451   3.379   1.492   5.370 -0.4342  0.3562  0.1176
 3012TIP3    H230452   3.248   1.416   5.371 -0.6273  0.6901  0.1668
 3013TIP3   OH230453   0.495   6.614  14.273  0.0878 -0.5618 -0.2442
 3013TIP3    H130454   0.401   6.630  14.271  0.1558 -0.1783 -0.5981
 3013TIP3    H230455   0.533   6.694  14.237  0.6077 -0.2644  0.9096
 3014TIP3   OH230456   3.322   2.746   0.126 -0.2852  0.2944 -0.2225
 3014TIP3    H130457   3.232   2.716   0.113  0.0998 -0.6418 -0.8124
 3014TIP3    H230458   3.318   2.841   0.114 -1.2864  0.3243  0.3000
 3015TIP3   OH230459   6.387   5.711  15.751  0.2298 -0.1635  0.7686
 3015TIP3    H130460   6.301   5.739  15.783  0.2350  0.8962 -0.1107
 3015TIP3    H230461   6.429   5.672  15.828 -1.2898 -1.3454  1.0415
 3016TIP3   OH230462   2.415   0.869   6.100 -0.3877  0.3209  0.1509
 3016TIP3    H130463   2.440   0.807   6.169  2.0079  0.7078 -0.2594
 3016TIP3    H230464   2.390   0.948   6.148 -0.4510  0.0217  0.6224
 3017TIP3   OH230465   5.958   6.389  10.896  0.1958 -0.1359 -0.5150
 3017TIP3    H130466   6.040   6.410  10.852  0.7998 -1.1147  0.1138
 3017TIP3    H230467   5.969   6.299  10.925 -0.7824  0.0016  0.3160
 3018TIP3   OH230468   1.873   2.732  11.293 -0.0432  0.0353 -0.0223
 3018TIP3    H130469   1.803   2.687  11.246  0.5331 -1.1127  0.1662
 3018TIP3    H230470   1.876   2.819  11.255 -0.6641 -0.3539 -0.9884
 3019TIP3   OH230471   5.659   4.636   3.813  0.1659  0.1505  0.1944
 3019TIP3    H130472   5.688   4.618   3.902 -0.5348  0.3725  0.4804
 3019TIP3    H230473   5.628   4.552   3.781 -2.5275  0.6074  1.3095
 3020TIP3   OH230474   6.178   3.392  17.215  0.2582 -0.2082 -0.2784
 3020TIP3    H130475   6.249   3.405  17.277 -0.1553 -2.5831  0.8008
 3020TIP3    H230476   6.204   3.315  17.164 -1.3661 -0.9456 -0.0637
 3021TIP3   OH230477   3.754   5.435  13.604  0.6246 -0.4263 -0.1549
 3021TIP3    H130478   3.697   5.358  13.608 -0.0473 -0.0707 -1.9834
 3021TIP3    H230479   3.775   5.453  13.696 -0.7893 -1.6131  0.4588
 3022TIP3   OH230480   2.739   1.714  14.663  0.0912  0.2898 -0.0137
 3022TIP3    H130481   2.811   1.772  14.685 -0.1053  0.7034 -0.4361
 3022TIP3    H230482   2.782   1.631  14.639  0.4636  0.6618 -0.6858
 3023TIP3   OH230483   2.271   3.991  10.541  0.2279  0.0890  0.0467
 3023TIP3    H130484   2.331   4.064  10.528  0.4229 -0.0850 -0.0283
 3023TIP3    H230485   2.288   3.932  10.467  0.9503 -0.6343  0.7697
 3024TIP3   OH230486   0.578   5.882   3.452  0.3373  0.2053 -0.0992
 3024TIP3    H130487   0.668   5.858   3.477 -0.2869 -0.8842  1.2608
 3024TIP3    H230488   0.586   5.917   3.363  2.6268  3.6238  1.2402
 3025TIP3   OH230489   3.668   0.994  13.551 -0.4517 -0.4640  0.5999
 3025TIP3    H130490   3.624   1.012  13.634  0.7376 -1.4996  1.4898
 3025TIP3    H230491   3.751   1.040  13.557 -0.9150  0.5985 -0.6253
 3026TIP3   OH230492   3.379   3.828  12.290 -0.1330  0.2145  0.2731
 3026TIP3    H130493   3.415   3.771  12.222 -0.1437  1.0590 -0.4615
 3026TIP3    H230494   3.349   3.906  12.243 -0.3819  0.7073  1.2160
 3027TIP3   OH230495   2.286   2.039  15.756  0.2908 -0.3658  0.7162
 3027TIP3    H130496   2.338   2.003  15.684  0.4227  1.5641 -0.2135
 3027TIP3    H230497   2.318   2.129  15.767  0.0265 -0.4853  2.9695
 3028TIP3   OH230498   2.942   3.907   1.272 -0.0515 -0.0714 -0.4008
 3028TIP3    H130499   3.014   3.914   1.334  0.2687 -1.7211 -0.5226
 3028TIP3    H230500   2.865   3.888   1.325  0.0457 -0.5396 -0.4185
 3029TIP3   OH230501   1.589   5.504   6.361  0.2453  0.4700 -0.3770
 3029TIP3    H130502   1.502   5.496   6.401  0.5601 -0.3143  0.1818
 3029TIP3    H230503   1.598   5.424   6.309  1.1695 -0.1563  0.6867
 3030TIP3   OH230504   6.087   3.516  11.868  0.0165 -1.0144 -0.0036
 3030TIP3    H130505   6.040   3.494  11.787 -1.6056  0.2687  0.5295
 3030TIP3    H230506   6.174   3.544  11.838 -0.5479 -0.5761 -1.3275
 3031TIP3   OH230507   3.852   2.453  16.514 -0.0283  0.0380 -0.5000
 3031TIP3    H130508   3.836   2.509  16.590 -2.8229 -0.1948 -0.8439
 3031TIP3    H230509   3.943   2.472  16.489  0.2248  1.7809  1.4980
 3032TIP3   OH230510   3.293   0.205  17.263  0.4224  0.4925 -0.6897
 3032TIP3    H130511   3.231   0.154  17.315  1.7255 -0.2754  0.1684
 3032TIP3    H230512   3.265   0.191  17.172 -1.6410  1.5289 -0.2799
 3033TIP3   OH230513   2.831   2.794  11.348  0.0452 -0.3023  0.3597
 3033TIP3    H130514   2.894   2.769  11.415  2.2135  1.2409 -0.9366
 3033TIP3    H230515   2.768   2.850  11.393  1.4208  0.6522  1.1561
 3034TIP3   OH230516   3.613   0.586   2.187 -0.3726 -0.5384  0.1395
 3034TIP3    H130517   3.595   0.494   2.205 -0.4010 -0.3215  1.3066
 3034TIP3    H230518   3.706   0.597   2.205 -0.3868 -0.3210  0.0855
 3035TIP3   OH230519   6.036   3.338   5.872  0.1540 -0.0712 -0.3835
 3035TIP3    H130520   6.010   3.394   5.945 -1.9457 -0.0276 -1.1100
 3035TIP3    H230521   6.057   3.399   5.801 -1.2787 -0.1339 -0.8971
 3036TIP3   OH230522   4.999   2.465   2.176 -0.0321  0.0662  0.5032
 3036TIP3    H130523   4.978   2.390   2.121 -2.8166 -1.1227  2.8688
 3036TIP3    H230524   5.073   2.436   2.229  0.1482 -0.2776  0.0677
 3037TIP3   OH230525   5.415   5.103  14.492  0.8229  0.4052 -0.2949
 3037TIP3    H130526   5.332   5.060  14.471 -0.2393  1.5810  1.2978
 3037TIP3    H230527   5.471   5.032  14.525 -0.2683 -0.0878  0.5627
 3038TIP3   OH230528   6.058   5.572   4.743 -0.3072  0.6523 -0.0670
 3038TIP3    H130529   6.097   5.622   4.672  2.7538 -1.4366 -0.0574
 3038TIP3    H230530   6.027   5.638   4.806  0.1690  2.4816 -1.6823
 3039TIP3   OH230531   1.005   4.518  12.923  0.0692 -0.3305 -0.0338
 3039TIP3    H130532   1.044   4.590  12.874 -1.4362 -0.3297 -1.2927
 3039TIP3    H230533   1.040   4.439  12.882  1.2995 -0.3601  1.0026
 3040TIP3   OH230534   4.261   1.337  13.267 -0.7714  0.1568  0.5041
 3040TIP3    H130535   4.321   1.262  13.270 -0.9642  0.0159  0.9483
 3040TIP3    H230536   4.307   1.402  13.214 -0.8308 -0.4671 -0.3460
 3041TIP3   OH230537   0.461   6.362   1.219 -0.1984  0.3254 -0.2949
 3041TIP3    H130538   0.439   6.295   1.153  0.3949  0.3493 -0.5207
 3041TIP3    H230539   0.384   6.419   1.220  1.1300  2.5031 -3.7045
 3042TIP3   OH230540   5.614   1.373   7.252  0.0698 -0.2592  0.2573
 3042TIP3    H130541   5.671   1.323   7.193 -0.2083 -1.9485  1.3554
 3042TIP3    H230542   5.634   1.465   7.233  3.7930 -0.7380  1.1740
 3043TIP3   OH230543   0.992   3.879   0.867  0.1166 -0.2218 -0.0719
 3043TIP3    H130544   1.024   3.969   0.867 -0.0967 -0.1451 -0.4082
 3043TIP3    H230545   1.000   3.850   0.776 -3.3132  0.7291 -0.8354
 3044TIP3   OH230546   3.783   0.834   5.600 -0.1206 -0.6639  0.0122
 3044TIP3    H130547   3.819   0.746   5.596  1.2861 -0.1417  0.4182
 3044TIP3    H230548   3.712   0.834   5.536  0.9889 -1.6061 -1.2860
 3045TIP3   OH230549   3.563   4.691  15.007 -0.5436  0.1880 -0.4377
 3045TIP3    H130550   3.497   4.752  14.975 -2.1245 -0.4054  1.5135
 3045TIP3    H230551   3.575   4.715  15.098  1.6387 -0.0426 -0.6128
 3046TIP3   OH230552   4.337   3.757  17.239 -0.4357 -0.1425  0.5941
 3046TIP3    H130553   4.247   3.789  17.234 -0.3483  0.1200  0.6711
 3046TIP3    H230554   4.358   3.761  17.333  0.1998  1.3290  0.4172
 3047TIP3   OH230555   1.208   4.334  12.832 -0.3494 -0.1494 -0.3818
 3047TIP3    H130556   1.227   4.259  12.889 -0.7521 -0.0518 -0.1138
 3047TIP3    H230557   1.159   4.297  12.759  0.8184 -0.3985 -1.0624
 3048TIP3   OH230558   5.980   1.422  12.100  0.0948  0.0545  0.1214
 3048TIP3    H130559   6.068   1.436  12.134  0.5053 -2.1684  0.0973
 3048TIP3    H230560   5.941   1.356  12.158 -1.2157  0.2988 -0.4309
 3049TIP3   OH230561   0.229   6.714   6.507  0.0107  0.2656  0.3000
 3049TIP3    H130562   0.190   6.786   6.555 -0.6152  0.0626  0.1081
 3049TIP3    H230563   0.299   6.755   6.455 -1.6303  1.1260 -1.3788
 3050TIP3   OH230564   4.947   5.944   1.490 -0.1394  0.0441 -0.0236
 3050TIP3    H130565   4.996   6.015   1.450 -1.6730  0.9582 -0.3570
 3050TIP3    H230566   4.969   5.948   1.583 -0.1186  0.8826 -0.0600
 3051TIP3   OH230567   4.841   3.132   0.033 -0.1287 -0.1515 -0.3096
 3051TIP3    H130568   4.768   3.193   0.025  1.1640  1.2851 -1.6457
 3051TIP3    H230569   4.866   3.112  -0.057  2.1497  0.6586  0.0766
 3052TIP3   OH230570   5.755   2.295   6.379 -0.5694 -0.1567  0.1116
 3052TIP3    H130571   5.798   2.246   6.308 -0.1759 -2.0666  1.5727
 3052TIP3    H230572   5.826   2.317   6.439 -0.7833  2.1127 -0.3782
 3053TIP3   OH230573   4.279   2.318  16.755 -0.3230 -0.1616 -0.2241
 3053TIP3    H130574   4.192   2.277  16.759  0.2119 -1.3918 -0.7859
 3053TIP3    H230575   4.307   2.323  16.846 -0.0515 -1.8528 -0.1918
 3054TIP3   OH230576   5.485   4.167   4.009  0.3429 -0.0218  0.2231
 3054TIP3    H130577   5.410   4.113   4.031 -0.5066  1.0753  0.1444
 3054TIP3    H230578   5.452   4.257   4.015  1.6950  0.4898  0.3432
 3055TIP3   OH230579   1.222   5.791  11.844 -0.5543  0.4424  0.1974
 3055TIP3    H130580   1.242   5.808  11.936 -0.0616  0.7710  0.0321
 3055TIP3    H230581   1.191   5.700  11.843  0.5052  0.0632  0.5320
 3056TIP3   OH230582   1.698   1.017   4.404  0.1790  0.0229  0.1219
 3056TIP3    H130583   1.613   1.033   4.363 -0.2589  0.9876  1.3671
 3056TIP3    H230584   1.761   1.025   4.333 -0.7133 -0.0619 -0.6937
 3057TIP3   OH230585   4.438   5.546  10.882 -0.2838  0.5230 -0.0749
 3057TIP3    H130586   4.478   5.633  10.886  2.0424 -0.3283 -2.1522
 3057TIP3    H230587   4.399   5.541  10.795  0.2743 -0.7299 -0.2871
 3058TIP3   OH230588   2.724   0.811   3.361 -0.4007  0.0093 -0.3551
 3058TIP3    H130589   2.727   0.715   3.360  1.8977 -0.0080  0.9631
 3058TIP3    H230590   2.662   0.832   3.430 -0.5145 -0.5532 -0.2763
 3059TIP3   OH230591   2.562   3.557  13.538  0.2178  0.0068  0.1226
 3059TIP3    H130592   2.516   3.554  13.455  1.1686 -0.2870 -0.4161
 3059TIP3    H230593   2.504   3.606  13.597 -0.0637  1.0159 -0.9599
 3060TIP3   OH230594   5.717   4.424   2.007 -0.5540 -1.1779 -0.0874
 3060TIP3    H130595   5.722   4.329   2.007 -0.8065 -1.2211  1.9229
 3060TIP3    H230596   5.807   4.452   1.986 -0.0002 -1.8760  1.2683
 3061TIP3   OH230597   4.776   0.996  16.535  0.6965 -0.3995 -0.8494
 3061TIP3    H130598   4.812   1.009  16.448  0.1025  0.4697 -0.9698
 3061TIP3    H230599   4.718   1.070  16.549  3.1431  1.2791  1.5452
 3062TIP3   OH230600   4.338   0.804   1.321  0.2393  0.7110  0.2625
 3062TIP3    H130601   4.391   0.862   1.267 -0.6241  1.7536  0.4921
 3062TIP3    H230602   4.381   0.805   1.406  0.0530  1.2766  0.3531
 3063TIP3   OH230603   5.643   4.217  16.331 -0.2520  0.9125  0.2297
 3063TIP3    H130604   5.718   4.159  16.345 -1.4734 -0.2147  2.6571
 3063TIP3    H230605   5.597   4.180  16.256  0.7865  0.7483 -0.3412
 3064TIP3   OH230606   2.250   1.278   2.983  0.0589  0.0722  0.3398
 3064TIP3    H130607   2.167   1.233   2.996 -0.3124  0.7504  0.3424
 3064TIP3    H230608   2.315   1.220   3.023 -0.2323 -1.0807 -0.7830
 3065TIP3   OH230609   2.918   1.303  14.598  0.0991 -0.0467  0.2826
 3065TIP3    H130610   2.840   1.249  14.610 -1.1312  1.6223  0.1081
 3065TIP3    H230611   2.931   1.306  14.503 -0.4026  0.7035  0.2289
 3066TIP3   OH230612   0.544   2.073   0.279  1.0221 -0.5789  0.9534
 3066TIP3    H130613   0.508   2.032   0.358  0.6672  0.9600  1.6338
 3066TIP3    H230614   0.605   2.009   0.243 -0.3276 -2.1265  1.3423
 3067TIP3   OH230615   4.809   0.642   5.940 -0.1980  0.3067 -0.1615
 3067TIP3    H130616   4.752   0.586   5.993  0.4890 -0.3522 -0.0993
 3067TIP3    H230617   4.847   0.704   6.003  0.0626 -0.0106 -0.0076
 3068TIP3   OH230618   3.891   5.178  13.512 -0.5288  0.5251 -0.0020
 3068TIP3    H130619   3.820   5.186  13.576  0.5800 -1.0122  1.4995
 3068TIP3    H230620   3.905   5.084  13.503  1.1684  0.7934 -0.4257
 3069TIP3   OH230621   3.272   5.234  17.145  0.0552 -0.1212  0.2769
 3069TIP3    H130622   3.366   5.246  17.160  0.0424 -0.9872  1.1962
 3069TIP3    H230623   3.265   5.150  17.100 -0.3041 -0.3268  0.7010
 3070TIP3   OH230624   0.751   6.578   2.566  0.0083  0.3245 -0.3193
 3070TIP3    H130625   0.809   6.607   2.637  1.2421  0.6363 -1.4197
 3070TIP3    H230626   0.697   6.510   2.606  0.8887  0.2742  0.8402
 3071TIP3   OH230627   5.147   6.180  14.487 -0.2197 -0.2758  0.1342
 3071TIP3    H130628   5.234   6.215  14.504  0.8375 -3.2053  1.5678
 3071TIP3    H230629   5.152   6.142  14.400 -0.0213 -0.4602  0.2233
 3072TIP3   OH230630   1.015   3.189   2.670  0.5225  0.3795 -0.1024
 3072TIP3    H130631   1.080   3.252   2.700  1.5364 -0.8894  0.4358
 3072TIP3    H230632   0.962   3.170   2.748 -0.3912  1.2392 -0.4854
 3073TIP3   OH230633   0.767   3.328  13.887 -0.5274  0.2387  0.2703
 3073TIP3    H130634   0.844   3.382  13.869  0.8802 -1.6850  0.1788
 3073TIP3    H230635   0.707   3.348  13.815  1.2659 -0.5844 -1.5617
 3074TIP3   OH230636   5.238   2.819  15.996 -0.1571  0.5884  0.4101
 3074TIP3    H130637   5.249   2.744  15.938  0.3529 -0.2741  1.5791
 3074TIP3    H230638   5.172   2.791  16.060  1.9120  0.0237  2.4808
 3075TIP3   OH230639   1.569   2.521   0.631  0.2248 -0.1345  0.7400
 3075TIP3    H130640   1.481   2.492   0.652  0.2816  1.2456  3.2499
 3075TIP3    H230641   1.556   2.600   0.578 -0.0243 -0.4072  0.3907
 3076TIP3   OH230642   1.326   4.180  12.369 -0.1965 -0.3972 -0.3585
 3076TIP3    H130643   1.363   4.160  12.283 -0.5561 -0.9957 -0.3783
 3076TIP3    H230644   1.251   4.238  12.350 -0.4945 -0.8177 -0.4832
 3077TIP3   OH230645   4.356   1.139  15.380 -0.1641  0.5561 -0.3701
 3077TIP3    H130646   4.389   1.058  15.340  0.1313  0.6022 -0.2262
 3077TIP3    H230647   4.392   1.138  15.469  0.6546  1.3229 -0.6805
 3078TIP3   OH230648   6.196   1.283   0.213  0.6865  0.1052  0.2858
 3078TIP3    H130649   6.275   1.305   0.263  0.1114  1.0005  0.8215
 3078TIP3    H230650   6.229   1.247   0.130  1.6521  1.0148  0.2621
 3079TIP3   OH230651   2.035   3.447   2.936  0.2464 -0.2321 -0.2617
 3079TIP3    H130652   2.055   3.354   2.945  0.2686 -0.0531  2.3854
 3079TIP3    H230653   1.947   3.450   2.897 -0.0462 -1.3897  0.2783
 3080TIP3   OH230654   3.058   4.240   5.386 -0.3811  0.5818 -0.0629
 3080TIP3    H130655   3.113   4.282   5.452  1.4516 -2.3020  0.4144
 3080TIP3    H230656   3.117   4.220   5.314 -1.7151  0.9822 -1.3104
 3081TIP3   OH230657   4.028   1.924   4.182  0.4826  0.0093 -0.1201
 3081TIP3    H130658   4.006   1.849   4.237  0.6545  1.0937  1.5235
 3081TIP3    H230659   4.123   1.932   4.189  0.3325  1.2275  0.9563
 3082TIP3   OH230660   1.197   2.930  11.015 -0.1287  0.5508 -0.6477
 3082TIP3    H130661   1.288   2.903  11.007 -0.1667  0.6856 -1.7073
 3082TIP3    H230662   1.165   2.934  10.925 -0.5957  2.4853 -0.4531
 3083TIP3   OH230663   1.583   6.243  13.764 -0.1315 -0.3293  0.4026
 3083TIP3    H130664   1.653   6.206  13.818  0.7233  1.2235  0.4235
 3083TIP3    H230665   1.596   6.204  13.678  0.4248 -0.4818  0.5507
 3084TIP3   OH230666   0.403   0.364   4.740  0.3053 -0.2795 -0.9386
 3084TIP3    H130667   0.449   0.329   4.663  0.2878 -1.8478 -0.2846
 3084TIP3    H230668   0.311   0.346   4.723  0.1871  0.4378 -1.0656
 3085TIP3   OH230669   4.944   4.862   2.528  0.0321  0.1113  0.3720
 3085TIP3    H130670   4.879   4.877   2.597  0.1809 -2.8213  1.2936
 3085TIP3    H230671   4.968   4.769   2.537  3.3880  0.7164 -0.7686
 3086TIP3   OH230672   0.808   1.826   0.732 -1.0417 -0.1580  0.2414
 3086TIP3    H130673   0.765   1.747   0.700  0.9511 -1.0783 -0.3682
 3086TIP3    H230674   0.883   1.794   0.782 -0.1156  1.3312 -0.1185
 3087TIP3   OH230675   1.790   6.568  13.043 -0.2751  0.7362 -0.4108
 3087TIP3    H130676   1.734   6.598  13.114  0.6502  0.3261  0.5142
 3087TIP3    H230677   1.857   6.514  13.086 -0.5838 -0.8022 -1.7551
 3088TIP3   OH230678   3.119   4.693  11.782  0.0713 -0.7475 -0.3134
 3088TIP3    H130679   3.131   4.776  11.736 -2.5206  0.0331  0.1977
 3088TIP3    H230680   3.195   4.686  11.840  0.5936  1.0469 -0.7264
 3089TIP3   OH230681   1.996   2.503   0.508 -0.0192  0.0156  0.0078
 3089TIP3    H130682   2.061   2.573   0.503  2.1285 -1.9442 -1.8510
 3089TIP3    H230683   1.920   2.538   0.462  0.2889  1.7809  0.7596
 3090TIP3   OH230684   3.788   2.327  10.923 -0.1087  0.1949 -0.4573
 3090TIP3    H130685   3.739   2.320  11.005  0.8544 -0.1654  0.1035
 3090TIP3    H230686   3.748   2.261  10.866  1.3513 -1.9600  0.8720
 3091TIP3   OH230687   2.155   6.421  15.195 -0.1476  0.0215 -0.5227
 3091TIP3    H130688   2.164   6.339  15.244  0.9972  0.6324  0.3436
 3091TIP3    H230689   2.227   6.421  15.133  1.5504  1.5336  1.3045
 3092TIP3   OH230690   4.677   0.968  15.968  0.1441  0.3438 -0.0430
 3092TIP3    H130691   4.608   0.954  15.903  1.9302  0.1663 -1.9851
 3092TIP3    H230692   4.717   0.882  15.980  1.7199  0.9112 -0.9724
 3093TIP3   OH230693   6.588   5.768   2.750  0.0965  0.3594 -0.2707
 3093TIP3    H130694   6.649   5.818   2.695 -0.5471  0.0408 -1.3022
 3093TIP3    H230695   6.641   5.697   2.785  0.0611 -0.7299 -2.2678
 3094TIP3   OH230696   2.465   2.986   3.645 -0.0489  0.1963 -0.1470
 3094TIP3    H130697   2.450   2.938   3.727  1.4560 -1.0116 -0.5241
 3094TIP3    H230698   2.400   2.951   3.584  0.5106 -0.8383 -0.1832
 3095TIP3   OH230699   5.270   2.317   3.525  0.1774 -0.4674 -0.6666
 3095TIP3    H130700   5.272   2.308   3.429 -1.6036  2.0329 -1.0414
 3095TIP3    H230701   5.177   2.329   3.546 -0.0139 -4.5904  1.9093
 3096TIP3   OH230702   1.713   0.913   1.762 -0.2184  0.1110 -0.5587
 3096TIP3    H130703   1.656   0.844   1.728  0.4726 -0.5089 -0.5021
 3096TIP3    H230704   1.770   0.868   1.824 -1.0961  1.1160  1.0546
 3097TIP3   OH230705   4.914   6.106   4.158 -0.2007  0.1249  0.5923
 3097TIP3    H130706   4.973   6.034   4.179  0.2823  0.3085 -0.1082
 3097TIP3    H230707   4.829   6.078   4.193  0.1730 -0.3786  1.1287
 3098TIP3   OH230708   0.939   1.850   4.814  0.2738  0.3182 -0.2315
 3098TIP3    H130709   0.988   1.770   4.795  0.2734  0.3342 -0.2971
 3098TIP3    H230710   0.914   1.840   4.906 -0.6740 -0.2541 -0.5435
 3099TIP3   OH230711   1.736   0.015   5.828  0.2575  0.3548  0.1612
 3099TIP3    H130712   1.810   0.075   5.819  0.3119  0.0557 -1.8503
 3099TIP3    H230713   1.720   0.010   5.923  1.8112  1.6110  0.5275
 3100TIP3   OH230714   3.480   4.898  16.842 -0.8511 -0.5035 -0.1937
 3100TIP3    H130715   3.400   4.918  16.891 -1.0809  1.4317 -1.2299
 3100TIP3    H230716   3.537   4.974  16.856 -0.0781 -0.8720 -1.1778
 3101TIP3   OH230717   6.304   2.748   2.491 -0.0069  0.1068  0.5996
 3101TIP3    H130718   6.329   2.792   2.409 -0.7638 -0.7135 -0.0973
 3101TIP3    H230719   6.214   2.778   2.507  0.2460  0.5006  1.3046
 3102TIP3   OH230720   1.857   5.436  11.321  0.1473 -0.4744  0.3461
 3102TIP3    H130721   1.863   5.369  11.389 -1.7466  0.1950  1.2609
 3102TIP3    H230722   1.947   5.465  11.308  0.7108 -1.4977  1.6816
 3103TIP3   OH230723   3.101   5.794   4.346  0.0459 -0.2771  0.1355
 3103TIP3    H130724   3.075   5.795   4.254 -0.2763 -0.2648  0.2243
 3103TIP3    H230725   3.053   5.867   4.385 -0.1719 -0.5608  0.4065
 3104TIP3   OH230726   1.415   3.171   3.714  0.8819  0.2516  0.1467
 3104TIP3    H130727   1.443   3.125   3.635  1.5102  1.3286 -0.2736
 3104TIP3    H230728   1.497   3.200   3.755  0.5514 -0.1129  1.0900
 3105TIP3   OH230729   4.411   0.446   3.829  0.4552  0.3047 -0.1326
 3105TIP3    H130730   4.455   0.362   3.835  1.3262  0.7490 -0.2301
 3105TIP3    H230731   4.392   0.457   3.736  2.9419  1.4988 -0.5788
 3106TIP3   OH230732   1.294   1.989  15.205 -0.1929 -0.3839 -0.1180
 3106TIP3    H130733   1.302   2.048  15.131  0.2023 -0.1199  0.1289
 3106TIP3    H230734   1.288   2.046  15.281  0.2627 -0.6537  0.1285
 3107TIP3   OH230735   3.689   1.427   0.322 -0.0597 -0.2164  0.4164
 3107TIP3    H130736   3.594   1.417   0.318  0.0447 -2.0085  1.4609
 3107TIP3    H230737   3.724   1.340   0.300  1.3292  0.2972  0.4512
 3108TIP3   OH230738   6.040   4.609   1.754 -0.0170 -0.1048 -0.3007
 3108TIP3    H130739   5.992   4.670   1.811 -0.8019  1.3010 -2.3471
 3108TIP3    H230740   6.132   4.630   1.768 -0.0642 -0.9798  1.6747
 3109TIP3   OH230741   6.454   1.255  17.284  0.1389 -0.1501  0.3436
 3109TIP3    H130742   6.471   1.222  17.373  0.7942  0.6550  0.5426
 3109TIP3    H230743   6.385   1.199  17.250  0.2466 -0.8125  1.1722
 3110TIP3   OH230744   1.902   0.826  12.334 -0.6371 -0.3515  0.1298
 3110TIP3    H130745   1.925   0.809  12.243  1.0230  0.3401  0.3789
 3110TIP3    H230746   1.874   0.741  12.368 -0.8122 -0.7120 -0.9042
 3111TIP3   OH230747   1.216   2.558   0.108  0.2650  0.5125  0.0298
 3111TIP3    H130748   1.132   2.571   0.065 -0.6762  0.4773  1.7965
 3111TIP3    H230749   1.272   2.519   0.040 -1.1406  0.4716 -1.1460
 3112TIP3   OH230750   2.652   4.776   1.886  0.6873  0.3273 -0.0297
 3112TIP3    H130751   2.701   4.840   1.834  0.9815  0.5909  0.5752
 3112TIP3    H230752   2.666   4.801   1.977 -0.0247  0.0104  0.1812
 3113TIP3   OH230753   0.801   4.858  11.892  0.1574  0.2869 -0.0395
 3113TIP3    H130754   0.793   4.880  11.799  2.6066 -1.0037 -0.6639
 3113TIP3    H230755   0.881   4.903  11.920  0.1648 -0.3865  1.0729
 3114TIP3   OH230756   3.863   4.497  12.930  0.5045 -0.3679 -0.0073
 3114TIP3    H130757   3.802   4.425  12.946  0.5887 -0.3223  0.5315
 3114TIP3    H230758   3.947   4.455  12.912  0.2070 -0.4490 -1.2889
 3115TIP3   OH230759   4.106   1.890  13.829 -0.7628 -0.4408 -0.1338
 3115TIP3    H130760   4.104   1.911  13.922 -0.4264 -1.7767  0.1932
 3115TIP3    H230761   4.190   1.925  13.798  0.1337 -1.8900  0.5657
 3116TIP3   OH230762   6.540   2.890   6.313  0.4792  0.2583 -0.7581
 3116TIP3    H130763   6.627   2.892   6.353  0.1138 -2.3417  0.3766
 3116TIP3    H230764   6.527   2.798   6.289 -1.2021  0.9337 -2.7319
 3117TIP3   OH230765   3.200   0.043  13.118  0.0470  0.0317 -0.0968
 3117TIP3    H130766   3.288   0.007  13.106  0.2217  0.8715 -1.5693
 3117TIP3    H230767   3.150   0.010  13.042 -1.1998 -1.2008  1.1947
 3118TIP3   OH230768   0.968   6.192   2.851 -0.2492 -0.1889  0.5401
 3118TIP3    H130769   1.040   6.255   2.855  0.0415 -0.6033  3.2045
 3118TIP3    H230770   0.900   6.238   2.801  1.5052  0.5031 -1.3788
 3119TIP3   OH230771   4.018   2.559   2.613 -0.4799 -0.1919  0.1721
 3119TIP3    H130772   3.931   2.547   2.574 -0.7500 -0.1053  0.7336
 3119TIP3    H230773   4.078   2.558   2.539 -1.0815  1.0852 -0.3743
 3120TIP3   OH230774   6.746   6.178   1.465  0.1848  0.3113  0.1445
 3120TIP3    H130775   6.820   6.160   1.523  0.9276  0.8477 -0.6150
 3120TIP3    H230776   6.679   6.115   1.492  1.2282 -0.7712  0.2870
 3121TIP3   OH230777   6.014   0.379  13.539 -0.3215  0.6872 -0.3605
 3121TIP3    H130778   6.096   0.338  13.513 -1.1146  0.7180 -3.2678
 3121TIP3    H230779   6.020   0.468  13.506 -2.1520  0.1915 -2.1935
 3122TIP3   OH230780   2.733   1.194  14.387 -0.5068  0.0026 -0.2430
 3122TIP3    H130781   2.645   1.214  14.418 -0.5427 -1.0150  0.3700
 3122TIP3    H230782   2.729   1.205  14.293 -0.3121  3.5415  0.0362
 3123TIP3   OH230783   4.470   2.124   1.990  0.0799 -0.0045 -0.6489
 3123TIP3    H130784   4.547   2.167   2.027 -0.2332  0.9923 -1.1040
 3123TIP3    H230785   4.406   2.195   1.979 -0.3933 -0.5510 -1.6090
 3124TIP3   OH230786   6.178   1.371  16.384 -0.2448  0.4156 -0.2220
 3124TIP3    H130787   6.274   1.367  16.374 -0.0123  3.3220 -0.0663
 3124TIP3    H230788   6.154   1.456  16.346 -3.2621 -1.5256 -3.2293
 3125TIP3   OH230789   0.417   5.552  16.763 -0.2789  0.6238 -0.0693
 3125TIP3    H130790   0.371   5.636  16.760 -1.3004  0.0836 -0.0659
 3125TIP3    H230791   0.388   5.507  16.684  0.0317  0.1645  0.0801
 3126TIP3   OH230792   3.822   1.202   2.221  0.2692  0.1242  0.3451
 3126TIP3    H130793   3.737   1.165   2.199  0.3557  0.8093 -1.2753
 3126TIP3    H230794   3.858   1.143   2.287 -1.1905 -0.5125  0.6048
 3127TIP3   OH230795   1.483   1.077  16.517  0.2084  1.1302  0.6502
 3127TIP3    H130796   1.394   1.060  16.549 -0.9964  3.7017 -1.0229
 3127TIP3    H230797   1.470   1.131  16.439  3.1477 -1.0492 -1.5509
 3128TIP3   OH230798   3.962   0.114  15.783 -0.4950 -0.2865 -0.3321
 3128TIP3    H130799   3.919   0.160  15.856  3.4771 -0.0381  2.1255
 3128TIP3    H230800   3.958   0.022  15.807  2.7239 -0.0645  1.5827
 3129TIP3   OH230801   1.344   0.544   4.175 -0.1288 -0.0919  0.6723
 3129TIP3    H130802   1.404   0.557   4.101 -2.2976  1.6256 -0.9040
 3129TIP3    H230803   1.357   0.621   4.230 -0.1689 -0.2238  0.8684
 3130TIP3   OH230804   2.571   5.756  14.570 -0.1737  0.1133  0.0229
 3130TIP3    H130805   2.631   5.813  14.522  1.6871 -1.4632  0.3526
 3130TIP3    H230806   2.496   5.812  14.591  1.2659  2.2321 -0.2049
 3131TIP3   OH230807   0.352   3.947  16.794  0.2839  0.2805 -0.1510
 3131TIP3    H130808   0.442   3.940  16.825  0.1563 -1.2871 -0.0771
 3131TIP3    H230809   0.336   4.042  16.789  2.0300  0.5937 -0.4964
 3132TIP3   OH230810   3.572   0.145   2.071 -0.1736  0.2293 -0.0244
 3132TIP3    H130811   3.621   0.194   2.137  0.8496  1.1605 -1.4267
 3132TIP3    H230812   3.565   0.205   1.997 -0.8822 -0.9615 -0.9526
 3133TIP3   OH230813   6.038   0.268  11.116 -0.2166  0.0063  0.1890
 3133TIP3    H130814   6.005   0.353  11.089  1.2944  0.7709  0.6649
 3133TIP3    H230815   5.997   0.252  11.202 -0.5649  0.1975  0.0597
 3134TIP3   OH230816   2.827   3.975  13.321 -0.3953 -0.2256 -0.4622
 3134TIP3    H130817   2.789   3.991  13.234 -0.5554  4.9607  0.2568
 3134TIP3    H230818   2.754   3.943  13.373 -1.6064  1.1640 -1.2158
 3135TIP3   OH230819   4.961   0.654   0.303  0.0708 -0.6114  0.0309
 3135TIP3    H130820   5.047   0.614   0.295  0.5503  0.7669 -2.8557
 3135TIP3    H230821   4.979   0.747   0.320 -0.8186 -0.3112 -0.5916
 3136TIP3   OH230822   0.617   6.660  15.141  0.0407  0.5796  0.2217
 3136TIP3    H130823   0.610   6.633  15.050 -0.1612  1.3480 -0.0012
 3136TIP3    H230824   0.578   6.588  15.191 -0.0667  0.2644 -0.3134
 3137TIP3   OH230825   2.064   6.432  13.419  0.8265  0.7499  0.1607
 3137TIP3    H130826   2.115   6.510  13.439 -0.0572  1.5419 -0.5689
 3137TIP3    H230827   2.032   6.446  13.329  0.0876 -0.1236  0.2675
 3138TIP3   OH230828   5.006   1.367   4.411 -0.1902  0.3318  0.4468
 3138TIP3    H130829   4.959   1.289   4.441 -0.6624  0.3747 -0.1659
 3138TIP3    H230830   4.983   1.374   4.319  0.7738  0.5362  0.2164
 3139TIP3   OH230831   0.923   3.561  11.664  0.1399 -0.4345  0.6548
 3139TIP3    H130832   0.835   3.596  11.648  0.6249  0.5888  0.1565
 3139TIP3    H230833   0.951   3.527  11.579  0.9193  0.8787  0.3605
 3140TIP3   OH230834   3.746   6.679   6.054  0.2001 -0.1636 -0.4556
 3140TIP3    H130835   3.827   6.635   6.027  0.2766 -0.0262 -0.4474
 3140TIP3    H230836   3.681   6.651   5.989  0.2210 -0.3770 -0.3886
 3141TIP3   OH230837   2.372   2.478  16.859 -0.1326  0.1649 -0.2187
 3141TIP3    H130838   2.366   2.567  16.823  1.1184  1.2148  1.9368
 3141TIP3    H230839   2.357   2.489  16.953  0.2219 -1.8942  0.1300
 3142TIP3   OH230840   2.333   4.243   6.201 -0.8330  0.5887 -0.0723
 3142TIP3    H130841   2.366   4.155   6.182  3.4827  1.5116  1.7727
 3142TIP3    H230842   2.302   4.276   6.117  0.5809 -1.5644 -1.5340
 3143TIP3   OH230843   3.992   5.405   3.203  0.0942  0.0634 -0.4759
 3143TIP3    H130844   3.954   5.318   3.212 -1.2922  0.4200 -2.2974
 3143TIP3    H230845   3.939   5.447   3.135  0.1558  2.6506  0.9707
 3144TIP3   OH230846   3.573   2.913  16.434 -0.0981  0.0963 -0.5583
 3144TIP3    H130847   3.548   2.915  16.527  0.3389 -0.9773 -0.4067
 3144TIP3    H230848   3.553   2.824  16.406 -1.9419  0.8862 -1.9951
 3145TIP3   OH230849   3.465   6.525   1.477 -0.0287 -0.0250  0.6136
 3145TIP3    H130850   3.543   6.493   1.431 -0.3683 -0.2949  0.2248
 3145TIP3    H230851   3.500   6.573   1.552  0.5029 -0.6866  0.8028
 3146TIP3   OH230852   6.321   0.138   4.639 -0.5943 -0.1449 -0.1762
 3146TIP3    H130853   6.389   0.205   4.633 -1.8840  1.1421 -1.4654
 3146TIP3    H230854   6.368   0.055   4.642  1.0401  0.7656  0.4970
 3147TIP3   OH230855   2.018   6.285  11.770  0.4249  0.0063  0.5742
 3147TIP3    H130856   1.932   6.247  11.754  0.1955  0.0172  1.7404
 3147TIP3    H230857   2.072   6.211  11.798  1.3946 -0.4199 -2.0585
 3148TIP3   OH230858   5.743   6.720   3.889  0.5241 -0.6693  0.9476
 3148TIP3    H130859   5.682   6.791   3.908  1.1580  0.3278 -0.5100
 3148TIP3    H230860   5.828   6.764   3.879  0.9951 -1.6787  0.3849
 3149TIP3   OH230861   3.197   2.669   3.541 -0.1338  0.4049 -0.5461
 3149TIP3    H130862   3.253   2.612   3.593  0.7632  1.0832 -0.7411
 3149TIP3    H230863   3.200   2.633   3.453  1.1469  1.2297 -0.8647
 3150TIP3   OH230864   2.224   5.682   3.211  0.5152  0.1636  0.6514
 3150TIP3    H130865   2.252   5.753   3.153 -0.8699 -0.3482 -0.7053
 3150TIP3    H230866   2.295   5.674   3.274  1.8067  1.1770 -0.5895
 3151TIP3   OH230867   5.123   3.257   0.845  0.4386 -0.1016 -0.3093
 3151TIP3    H130868   5.122   3.175   0.796  0.5043  0.4275 -1.2185
 3151TIP3    H230869   5.036   3.263   0.885 -0.0950  0.0905 -1.4578
 3152TIP3   OH230870   5.738   4.618  10.535 -0.2253  0.1181 -0.4653
 3152TIP3    H130871   5.796   4.557  10.489 -0.5531 -0.4960 -0.0686
 3152TIP3    H230872   5.657   4.569  10.547  0.0019  0.0986  1.1704
 3153TIP3   OH230873   1.795   2.702   3.082  0.2955 -0.0726  0.4618
 3153TIP3    H130874   1.777   2.614   3.116  0.4916 -0.5009 -0.5086
 3153TIP3    H230875   1.716   2.726   3.034  0.6396 -0.1558 -0.1525
 3154TIP3   OH230876   4.530   1.597  13.686 -0.2985  0.3169  0.7363
 3154TIP3    H130877   4.545   1.523  13.627  1.2115  0.1437  1.3008
 3154TIP3    H230878   4.443   1.629  13.662 -0.2214 -0.4910 -0.7669
 3155TIP3   OH230879   0.059   0.940  14.643 -0.1495 -0.1623  0.6838
 3155TIP3    H130880   0.024   0.992  14.571 -0.3404 -1.4355 -0.1820
 3155TIP3    H230881   0.027   0.851  14.626  0.1473 -0.5714  2.1171
 3156TIP3   OH230882   0.986   2.035  14.837 -0.4420  0.5799  0.2191
 3156TIP3    H130883   1.007   1.975  14.909 -1.0173  0.5606  0.3738
 3156TIP3    H230884   0.891   2.029  14.828 -0.4566  1.1720 -0.0277
 3157TIP3   OH230885   3.841   5.715  15.984 -0.1507  0.0410  0.4945
 3157TIP3    H130886   3.868   5.801  15.952 -0.0102 -0.9015 -2.1492
 3157TIP3    H230887   3.763   5.733  16.037 -0.4125  1.7523 -0.3984
 3158TIP3   OH230888   4.002   1.819  11.895 -0.0600 -0.0655 -0.4911
 3158TIP3    H130889   4.083   1.777  11.922  0.1832  0.8110  0.2234
 3158TIP3    H230890   4.010   1.909  11.927 -0.9435  0.2705 -1.1687
 3159TIP3   OH230891   2.681   4.431  14.304  0.5364  0.2290 -0.4352
 3159TIP3    H130892   2.590   4.434  14.275  0.7285 -1.0525 -1.2277
 3159TIP3    H230893   2.703   4.522  14.324 -0.6908  0.6490 -0.9261
 3160TIP3   OH230894   2.163   0.313   0.718 -0.0959 -0.5579  0.1234
 3160TIP3    H130895   2.128   0.225   0.702 -0.0152 -0.7586  1.0216
 3160TIP3    H230896   2.254   0.308   0.689  0.4451 -1.3185  1.8691
 3161TIP3   OH230897   2.967   4.884  11.435  0.4762 -0.0463 -0.2288
 3161TIP3    H130898   3.029   4.826  11.479 -0.0264 -1.3648 -1.1922
 3161TIP3    H230899   2.990   4.879  11.342  0.6400  1.5911 -0.2966
 3162TIP3   OH230900   6.570   4.831  13.476 -0.1481  0.1213  0.2897
 3162TIP3    H130901   6.546   4.916  13.512 -0.1974  0.1438  0.2039
 3162TIP3    H230902   6.655   4.845  13.435 -0.1688  0.1354  0.2515
 3163TIP3   OH230903   6.076   2.572   4.820  0.0217 -0.7448 -0.6016
 3163TIP3    H130904   6.096   2.484   4.785 -0.6415 -1.7326  1.3660
 3163TIP3    H230905   6.017   2.555   4.894  1.0325  1.2694  0.7287
 3164TIP3   OH230906   5.627   0.839   4.360  0.1944  0.2535  0.0822
 3164TIP3    H130907   5.655   0.784   4.287  0.7715  0.6001  0.0355
 3164TIP3    H230908   5.573   0.906   4.319  0.1009  0.1524  0.0392
 3165TIP3   OH230909   6.741   4.213   4.319  0.0634 -0.1601 -0.5945
 3165TIP3    H130910   6.714   4.285   4.376 -0.9043  0.5906 -1.9446
 3165TIP3    H230911   6.665   4.156   4.315  0.3951 -0.6129 -0.5331
 3166TIP3   OH230912   6.686   4.713  15.865 -0.1270  0.2747 -0.2905
 3166TIP3    H130913   6.774   4.685  15.890  0.4236 -0.0933 -2.4232
 3166TIP3    H230914   6.697   4.805  15.838 -0.1261 -0.0998 -1.6393
 3167TIP3   OH230915   1.079   2.891  16.777 -0.0146 -0.5161  0.1111
 3167TIP3    H130916   1.068   2.915  16.869  0.4743  1.0306 -0.2134
 3167TIP3    H230917   1.015   2.943  16.730  0.0450 -0.9614 -0.4813
 3168TIP3   OH230918   2.874   3.063  16.152 -0.0608  0.0123  0.2550
 3168TIP3    H130919   2.793   3.015  16.136  0.0218 -0.3908  0.9900
 3168TIP3    H230920   2.927   3.004  16.205  0.0864  0.8534  1.0838
 3169TIP3   OH230921   2.712   5.094  13.287  0.2409 -0.0690  0.0781
 3169TIP3    H130922   2.661   5.147  13.226 -0.2880 -2.0439 -1.2837
 3169TIP3    H230923   2.783   5.152  13.315 -1.7906  2.2367  0.8057
 3170TIP3   OH230924   5.018   4.973  17.281 -0.0296 -0.1343 -0.0009
 3170TIP3    H130925   4.925   4.968  17.301  0.4460  0.0334  2.5845
 3170TIP3    H230926   5.030   5.061  17.245 -0.2128  1.9799  4.4725
 3171TIP3   OH230927   6.285   1.454  15.015  0.2922 -0.0883  0.1692
 3171TIP3    H130928   6.194   1.438  14.991  0.3477  1.1009 -0.9779
 3171TIP3    H230929   6.329   1.475  14.932  1.4102  0.1997  0.8056
 3172TIP3   OH230930   0.362   0.026  13.992 -0.6813 -0.2339 -0.3091
 3172TIP3    H130931   0.440   0.022  14.048 -1.1182 -1.3804  0.2467
 3172TIP3    H230932   0.370   0.110  13.945  1.0302 -0.4713 -0.4890
 3173TIP3   OH230933   5.501   5.809  15.056 -0.3730  0.3334  0.6653
 3173TIP3    H130934   5.496   5.883  15.115  0.9685 -0.2291  1.5311
 3173TIP3    H230935   5.594   5.800  15.036 -0.3669 -1.6726  1.3583
 3174TIP3   OH230936   2.700   5.118  16.444 -0.0640  0.0755  0.0935
 3174TIP3    H130937   2.752   5.132  16.523  2.4523  0.4428 -1.5042
 3174TIP3    H230938   2.760   5.138  16.372 -1.5545 -2.3764 -1.9928
 3175TIP3   OH230939   4.883   4.058  17.004 -0.1369  0.6391  0.4623
 3175TIP3    H130940   4.957   4.039  16.946 -0.6430 -0.3533  0.1248
 3175TIP3    H230941   4.870   4.153  16.996 -0.1396  0.5311 -0.9841
 3176TIP3   OH230942   6.414   2.341  15.872  0.6468 -0.4896  0.0219
 3176TIP3    H130943   6.464   2.264  15.898  0.1928 -0.2264  1.7900
 3176TIP3    H230944   6.414   2.397  15.950 -0.5721  0.4819 -0.6430
 3177TIP3   OH230945   1.442   1.887   3.688 -0.3893  0.3693 -0.5678
 3177TIP3    H130946   1.426   1.967   3.638  1.4726  1.7280  0.8874
 3177TIP3    H230947   1.537   1.884   3.698 -0.6182 -0.4244  1.9271
 3178TIP3   OH230948   4.455   5.060   5.345 -0.0117 -0.4004 -0.1301
 3178TIP3    H130949   4.449   5.149   5.380  1.2031  0.0873 -1.0883
 3178TIP3    H230950   4.520   5.017   5.400  0.1644 -0.3686 -0.3134
 3179TIP3   OH230951   4.880   1.343  14.367  0.6879 -0.1647 -0.1775
 3179TIP3    H130952   4.882   1.282  14.293  1.0435 -1.0013  0.5061
 3179TIP3    H230953   4.800   1.394  14.354  1.0116  0.0464 -1.4100
 3180TIP3   OH230954   3.991   1.118  15.636  0.6294 -0.1242 -0.2278
 3180TIP3    H130955   4.033   1.186  15.689 -0.0709 -1.8115  2.6984
 3180TIP3    H230956   3.902   1.151  15.621  0.8928  0.4555 -0.5493
 3181TIP3   OH230957   0.315   3.574  15.902 -0.1829 -0.0776 -0.2143
 3181TIP3    H130958   0.279   3.559  15.989 -2.4759  1.7879 -0.7170
 3181TIP3    H230959   0.358   3.659  15.909  0.1040 -0.1754 -0.7607
 3182TIP3   OH230960   4.864   0.623   0.021 -0.0117  0.7604  0.3600
 3182TIP3    H130961   4.895   0.632   0.111 -1.1689 -0.0098  0.8565
 3182TIP3    H230962   4.891   0.535  -0.006 -1.2723  0.2763  0.6210
 3183TIP3   OH230963   2.404   5.996   2.723 -0.2356 -0.3207 -0.3740
 3183TIP3    H130964   2.348   5.968   2.651  1.0556  1.0210 -1.9722
 3183TIP3    H230965   2.363   6.078   2.753  1.1622  1.0902 -2.0613
 3184TIP3   OH230966   3.769   3.323  13.673  0.0633 -0.1879 -0.2422
 3184TIP3    H130967   3.784   3.409  13.635  1.6029 -0.0328  0.6211
 3184TIP3    H230968   3.839   3.313  13.738 -2.2570 -0.5678  2.3545
 3185TIP3   OH230969   0.548   3.428   3.571 -0.0861 -0.1057  0.1205
 3185TIP3    H130970   0.611   3.428   3.643  1.1960 -1.5535 -0.9396
 3185TIP3    H230971   0.580   3.494   3.510 -1.4215  1.4434  1.0258
 3186TIP3   OH230972   4.330   2.777  11.651 -0.0067  0.4878 -0.2971
 3186TIP3    H130973   4.242   2.749  11.677  0.1538  1.0892  0.9541
 3186TIP3    H230974   4.324   2.789  11.556 -1.6747  1.8479 -0.0665
 3187TIP3   OH230975   5.461   4.075   2.083  0.7822 -0.1660 -0.2625
 3187TIP3    H130976   5.451   4.165   2.054 -1.4541 -0.3361 -0.1566
 3187TIP3    H230977   5.458   4.023   2.003 -0.3721 -0.2980 -0.1411
 3188TIP3   OH230978   2.031   3.973  13.217 -0.5858  0.0193 -0.1627
 3188TIP3    H130979   2.036   3.971  13.312  0.4651  1.0185 -0.1666
 3188TIP3    H230980   1.962   3.911  13.194 -1.3661  0.3240  1.2841
 3189TIP3   OH230981   3.693   4.359  13.274 -0.8305 -0.3805  0.7399
 3189TIP3    H130982   3.610   4.379  13.231 -0.4697 -0.6634 -0.1128
 3189TIP3    H230983   3.669   4.334  13.363 -1.6173 -0.0318  0.6281
 3190TIP3   OH230984   4.021   0.480  12.042 -0.2234 -0.1219  0.2352
 3190TIP3    H130985   4.109   0.444  12.032 -0.7595 -1.9595  1.6536
 3190TIP3    H230986   3.963   0.411  12.010 -1.3378 -1.1790  4.0055
 3191TIP3   OH230987   3.935   2.624  12.479  0.2829 -0.5000 -0.3355
 3191TIP3    H130988   3.913   2.697  12.537 -1.8687  0.4364 -2.1972
 3191TIP3    H230989   3.967   2.666  12.399 -0.8411 -1.5558 -1.3776
 3192TIP3   OH230990   5.946   3.031   0.965 -0.2896  0.0971  0.0358
 3192TIP3    H130991   5.977   3.073   1.045 -0.5908 -0.4208  0.4354
 3192TIP3    H230992   5.974   2.940   0.974  2.2387  0.5991 -1.7899
 3193TIP3   OH230993   1.566   0.006   2.692 -0.1876 -0.1981 -0.5456
 3193TIP3    H130994   1.592   0.083   2.642  0.0117  0.0932  0.0032
 3193TIP3    H230995   1.564   0.035   2.783  2.0317 -1.3442 -0.0339
 3194TIP3   OH230996   6.148   0.311   0.299  0.1644 -0.6255  0.1752
 3194TIP3    H130997   6.166   0.293   0.391 -1.5108  0.5698  0.7715
 3194TIP3    H230998   6.218   0.264   0.252  0.9114 -1.4620  2.0083
 3195TIP3   OH230999   1.347   6.103   5.755  0.1923  0.1227  0.7068
 3195TIP3    H131000   1.260   6.083   5.719  0.5452 -1.1619  0.5070
 3195TIP3    H231001   1.408   6.076   5.686  0.7665  0.8310  0.9220
 3196TIP3   OH231002   4.932   5.648   1.505  0.5090 -0.5203  1.3057
 3196TIP3    H131003   4.980   5.593   1.567  1.4594  0.3869  1.4258
 3196TIP3    H231004   4.914   5.728   1.554 -0.2261 -0.4476  0.9247
 3197TIP3   OH231005   0.286   3.483  16.709  0.0629 -0.2560  0.1512
 3197TIP3    H131006   0.234   3.409  16.677  0.1183 -0.5332  0.6795
 3197TIP3    H231007   0.359   3.490  16.648 -1.2132  0.9116 -1.3353
 3198TIP3   OH231008   2.959   5.152  16.300  0.3716  0.3323  0.9585
 3198TIP3    H131009   3.032   5.210  16.325 -0.2911  2.4505 -1.5642
 3198TIP3    H231010   2.966   5.146  16.204 -0.9340 -2.0368  0.9553
 3199TIP3   OH231011   1.712   0.683  12.921 -0.2738  0.4811  0.3900
 3199TIP3    H131012   1.649   0.651  12.857  1.8912 -0.1763 -1.5690
 3199TIP3    H231013   1.777   0.613  12.927  0.2566  1.0777  2.4052
 3200TIP3   OH231014   0.075   1.515   4.175 -0.2060  0.0414  0.2774
 3200TIP3    H131015   0.148   1.575   4.188 -0.5460  0.2929  1.0983
 3200TIP3    H231016   0.098   1.438   4.226 -0.8599  0.4277  1.1738
 3201TIP3   OH231017   0.246   4.373  13.964  0.3227  0.2123  0.4860
 3201TIP3    H131018   0.154   4.359  13.987  0.1182  2.1860  1.0857
 3201TIP3    H231019   0.243   4.441  13.896  1.3701  1.4008  1.5718
 3202TIP3   OH231020   1.867   0.784   5.855  0.6711  0.2404  0.8857
 3202TIP3    H131021   1.924   0.853   5.821  0.5253 -0.2249 -0.3591
 3202TIP3    H231022   1.785   0.828   5.874  0.5255  0.3968 -0.0548
 3203TIP3   OH231023   6.207   1.261  16.625 -0.1167  0.5033 -0.3485
 3203TIP3    H131024   6.233   1.273  16.534  1.0327  3.0469  0.2279
 3203TIP3    H231025   6.151   1.337  16.645  1.2191  1.0763  1.5357
 3204TIP3   OH231026   5.331   2.734  12.737 -0.2200  0.5125  1.0288
 3204TIP3    H131027   5.269   2.664  12.720  1.1974 -0.9111  1.4763
 3204TIP3    H231028   5.278   2.814  12.737 -2.4815 -0.8343  3.8210
 3205TIP3   OH231029   3.567   5.932   3.517 -0.0328 -0.4750  0.1890
 3205TIP3    H131030   3.477   5.961   3.507  0.0173 -0.6873 -1.0408
 3205TIP3    H231031   3.598   5.976   3.595 -1.3339 -0.7505  0.8898
 3206TIP3   OH231032   1.584   5.303   6.183  0.2616 -0.2820 -0.1407
 3206TIP3    H131033   1.626   5.329   6.100 -0.6721 -1.0595 -0.8800
 3206TIP3    H231034   1.555   5.213   6.168  0.5185 -0.6129  1.2251
 3207TIP3   OH231035   3.008   1.036  11.580 -0.0252 -0.3595  0.2473
 3207TIP3    H131036   3.085   1.008  11.531  1.7386  1.3542  1.8350
 3207TIP3    H231037   2.975   0.957  11.621  1.1387 -1.0649 -0.1441
 3208TIP3   OH231038   5.282   0.821   1.432 -0.2025  0.3679 -0.0495
 3208TIP3    H131039   5.313   0.775   1.510 -0.2576 -1.5844 -1.1137
 3208TIP3    H231040   5.282   0.914   1.457  3.6001  0.2728  1.0195
 3209TIP3   OH231041   6.073   4.560  12.724 -0.4547  0.0868 -0.0332
 3209TIP3    H131042   5.982   4.529  12.725 -0.8507  1.1859  0.8268
 3209TIP3    H231043   6.070   4.639  12.669 -0.3409  0.9310  1.1165
 3210TIP3   OH231044   6.719   6.277   3.458  0.0111  0.2971 -0.0993
 3210TIP3    H131045   6.680   6.230   3.384  0.5129 -0.5804  0.1886
 3210TIP3    H231046   6.810   6.249   3.459 -0.0541  0.0940  1.0089
 3211TIP3   OH231047   5.643   0.784   1.438 -0.1250  0.0848 -0.1226
 3211TIP3    H131048   5.695   0.846   1.490  1.4494  0.2191 -1.7677
 3211TIP3    H231049   5.554   0.820   1.441  0.1615  0.7479  1.4270
 3212TIP3   OH231050   6.653   6.696  15.186  0.4534  0.0838  0.1735
 3212TIP3    H131051   6.668   6.603  15.170 -0.7631 -0.2102  0.6340
 3212TIP3    H231052   6.585   6.698  15.253  2.0859  1.2948  1.9126
 3213TIP3   OH231053   6.663   2.731   0.186  0.3599  0.1951  0.1401
 3213TIP3    H131054   6.729   2.667   0.160 -0.7676 -0.9595  0.0287
 3213TIP3    H231055   6.604   2.737   0.111 -0.3349  0.3026  0.6860
 3214TIP3   OH231056   4.674   0.217  14.876  0.0275 -0.0425  0.3143
 3214TIP3    H131057   4.582   0.233  14.896 -0.1770 -0.3756 -0.3298
 3214TIP3    H231058   4.683   0.242  14.784  0.9525  1.4893  0.7752
 3215TIP3   OH231059   2.459   5.003  17.342  0.5347 -0.5231 -1.1715
 3215TIP3    H131060   2.553   5.008  17.360  0.3446 -1.2890  0.1758
 3215TIP3    H231061   2.435   4.912  17.358 -0.2989 -0.5257 -2.2994
 3216TIP3   OH231062   5.891   5.485   5.045 -0.1437 -0.3244 -1.0822
 3216TIP3    H131063   5.862   5.428   4.974 -1.5088 -0.7100 -0.2753
 3216TIP3    H231064   5.831   5.560   5.042  0.4501  0.1585 -0.9856
 3217TIP3   OH231065   0.358   2.966   4.592 -0.0918  0.2359 -0.0409
 3217TIP3    H131066   0.277   3.015   4.602 -0.4098 -0.3847  0.4751
 3217TIP3    H231067   0.357   2.902   4.663  0.2696 -0.5792 -0.7446
 3218TIP3   OH231068   6.095   5.906   0.219 -0.1880 -0.0100  0.2499
 3218TIP3    H131069   6.171   5.918   0.161 -1.4420 -1.4020 -1.8330
 3218TIP3    H231070   6.103   5.816   0.250 -1.8806 -0.8591 -1.5349
 3219TIP3   OH231071   4.589   2.950   4.944  0.3373  0.0176 -0.2302
 3219TIP3    H131072   4.565   3.021   5.004  1.5317  0.9161 -0.7571
 3219TIP3    H231073   4.517   2.945   4.881  0.5505  1.2542 -0.5953
 3220TIP3   OH231074   2.433   2.016  15.548 -0.4871  0.0890  0.0604
 3220TIP3    H131075   2.427   2.100  15.503  0.5858  0.9289  1.4049
 3220TIP3    H231076   2.479   1.959  15.486  1.3516  1.3352  0.2215
 3221TIP3   OH231077   3.430   0.043   4.356  0.6299  0.3824  0.1492
 3221TIP3    H131078   3.360   0.045   4.290  0.3359  1.6422  0.4712
 3221TIP3    H231079   3.414  -0.037   4.405  0.6213 -0.3830 -1.0662
 3222TIP3   OH231080   5.910   6.181  11.710  0.2280 -0.8003 -0.0847
 3222TIP3    H131081   5.929   6.088  11.694  1.6067 -0.5464 -0.0549
 3222TIP3    H231082   5.825   6.181  11.755  0.2703 -2.0532  0.0334
 3223TIP3   OH231083   2.732   1.026  11.775  0.3773  0.0629 -0.1238
 3223TIP3    H131084   2.766   1.077  11.848 -0.9464  0.5507  0.1818
 3223TIP3    H231085   2.803   0.966  11.752  0.5999 -0.5627  1.9885
 3224TIP3   OH231086   5.191   2.625  13.778  0.4969  0.1903 -0.2861
 3224TIP3    H131087   5.262   2.651  13.836  0.6278  0.1433 -0.4271
 3224TIP3    H231088   5.211   2.534  13.755  0.6990  0.3627 -0.7908
 3225TIP3   OH231089   4.862   5.559   4.777  0.2069 -0.6878  0.2304
 3225TIP3    H131090   4.927   5.529   4.714 -1.3046 -2.2350 -0.6964
 3225TIP3    H231091   4.857   5.488   4.841  0.5719  0.1499  1.1971
 3226TIP3   OH231092   1.498   3.434  12.429  0.2291  0.7426  0.0672
 3226TIP3    H131093   1.416   3.392  12.455 -0.3234  0.0877 -2.4610
 3226TIP3    H231094   1.473   3.494  12.359  1.7570  1.5448  0.1627
 3227TIP3   OH231095   1.884   2.094   1.494  0.3342 -0.1900  0.2958
 3227TIP3    H131096   1.974   2.123   1.504 -0.1558  1.3889  0.3529
 3227TIP3    H231097   1.831   2.173   1.505 -1.0698 -1.0931  0.3595
 3228TIP3   OH231098   1.163   2.344  15.271 -0.1930  0.4659  0.2234
 3228TIP3    H131099   1.096   2.276  15.278  0.4843 -0.3901 -1.1690
 3228TIP3    H231100   1.175   2.375  15.361 -1.1489 -0.6377  0.7618
 3229TIP3   OH231101   5.006   4.338  15.543 -0.0621 -0.4308 -0.2800
 3229TIP3    H131102   4.970   4.261  15.500  0.8274 -1.0412  0.0306
 3229TIP3    H231103   5.047   4.303  15.622  0.2896  0.3786 -0.1002
 3230TIP3   OH231104   0.157   0.856  16.608 -0.4001  0.0049 -0.5671
 3230TIP3    H131105   0.246   0.892  16.612 -0.0778 -0.7610 -0.7050
 3230TIP3    H231106   0.152   0.794  16.681 -1.0241  0.4824 -0.1971
 3231TIP3   OH231107   1.100   0.277  12.971  0.3829  0.6498  0.0431
 3231TIP3    H131108   1.180   0.226  12.956  0.8455  1.1089  0.8411
 3231TIP3    H231109   1.112   0.356  12.918  1.4040  1.6510  1.6808
 3232TIP3   OH231110   6.196   3.326  14.779 -0.1819 -0.1537 -0.3142
 3232TIP3    H131111   6.254   3.295  14.710 -1.3626 -2.4086 -0.3673
 3232TIP3    H231112   6.256   3.359  14.847  1.2020 -2.1056 -0.4881
 3233TIP3   OH231113   3.487   2.579  12.636 -0.1678  0.3042  0.0021
 3233TIP3    H131114   3.572   2.621  12.634 -0.6761  1.3706  0.2606
 3233TIP3    H231115   3.500   2.497  12.589  1.2178  0.0273  0.8063
 3234TIP3   OH231116   4.719   1.062   0.731  0.0015 -0.0780  0.4398
 3234TIP3    H131117   4.713   1.067   0.826  0.1629  0.3250  0.4302
 3234TIP3    H231118   4.811   1.038   0.713  0.2649  0.9511  0.3545
 3235TIP3   OH231119   3.061   6.405  12.777 -0.0436  0.5105 -0.3175
 3235TIP3    H131120   2.978   6.356  12.781  1.7494 -2.8194 -0.5596
 3235TIP3    H231121   3.097   6.399  12.865  0.8669  0.1381 -0.7028
 3236TIP3   OH231122   3.199   2.792   4.319  0.2208 -0.3952 -0.4701
 3236TIP3    H131123   3.181   2.872   4.268 -0.0962  1.0801  1.8262
 3236TIP3    H231124   3.295   2.788   4.324  0.2338  0.0071 -0.3608
 3237TIP3   OH231125   2.249   1.609   6.152 -0.1939  0.1066 -0.2314
 3237TIP3    H131126   2.292   1.585   6.071 -0.5813 -0.4568 -0.2789
 3237TIP3    H231127   2.156   1.594   6.135 -0.3056  0.2905  0.2086
 3238TIP3   OH231128   4.953   1.058   5.130 -0.1946 -0.3350 -0.7638
 3238TIP3    H131129   5.020   0.990   5.139  0.2597  0.2590  0.6245
 3238TIP3    H231130   4.995   1.137   5.164 -1.7054 -0.0232  0.5015
 3239TIP3   OH231131   0.393   3.717  11.578 -0.1299 -0.1689 -0.4676
 3239TIP3    H131132   0.357   3.673  11.655 -0.4156  1.9403  0.7065
 3239TIP3    H231133   0.317   3.732  11.522 -0.1739 -0.4521 -0.4817
 3240TIP3   OH231134   5.063   5.093   3.718  0.5212 -0.8088 -0.2358
 3240TIP3    H131135   5.001   5.022   3.699  1.8594 -1.3364 -3.0353
 3240TIP3    H231136   5.013   5.154   3.773 -1.6843 -2.3459 -0.3959
 3241TIP3   OH231137   6.738   6.643  16.945 -0.2644  0.4571  0.0912
 3241TIP3    H131138   6.742   6.569  16.885 -2.4403 -1.1998  1.8147
 3241TIP3    H231139   6.645   6.663  16.954  0.0095  1.0118  2.4380
 3242TIP3   OH231140   6.323   3.171   2.295  0.4603 -0.2081 -0.1695
 3242TIP3    H131141   6.282   3.090   2.324  0.0560  0.0322 -0.0699
 3242TIP3    H231142   6.394   3.185   2.358  0.7862 -0.6970 -0.4256
 3243TIP3   OH231143   0.742   2.753  15.364 -0.2406  0.2890 -0.0882
 3243TIP3    H131144   0.661   2.714  15.397  0.8981 -1.7029  0.5015
 3243TIP3    H231145   0.796   2.767  15.442  0.7752 -0.3523 -0.6592
 3244TIP3   OH231146   4.541   4.791  13.920 -0.2482 -0.1708 -0.6063
 3244TIP3    H131147   4.563   4.700  13.940 -2.5651 -0.3175  1.8499
 3244TIP3    H231148   4.485   4.787  13.843  0.6684 -0.6665 -1.2590
 3245TIP3   OH231149   0.578   4.790   2.888 -0.1534  0.0176 -0.4116
 3245TIP3    H131150   0.494   4.810   2.930  0.1232 -0.2709  0.2779
 3245TIP3    H231151   0.589   4.696   2.900  0.1416  0.0095 -0.7422
 3246TIP3   OH231152   5.832   6.363   5.299 -0.1585 -0.2129  0.0925
 3246TIP3    H131153   5.813   6.424   5.370  1.9232  0.2622  0.3150
 3246TIP3    H231154   5.747   6.339   5.264 -1.2056  0.0907  2.2886
 3247TIP3   OH231155   5.830   6.010  13.970 -0.0900  0.4669 -0.0954
 3247TIP3    H131156   5.873   6.015  14.056 -1.2965 -0.0788  0.5691
 3247TIP3    H231157   5.787   5.924  13.971 -3.0499  1.8592  0.1948
 3248TIP3   OH231158   6.539   6.364   6.288  0.6768 -0.2663 -0.1052
 3248TIP3    H131159   6.464   6.406   6.329 -0.1739 -0.1946 -1.6788
 3248TIP3    H231160   6.501   6.306   6.222  2.0101  0.2752 -1.3965
 3249TIP3   OH231161   3.946   5.483  14.857 -0.1857 -0.3852  0.0374
 3249TIP3    H131162   3.868   5.429  14.844 -0.3909 -0.2528  0.7102
 3249TIP3    H231163   3.978   5.460  14.944  0.0030  0.2170  0.1309
 3250TIP3   OH231164   2.210   5.995  16.310 -0.2962 -0.5488  0.1623
 3250TIP3    H131165   2.128   5.951  16.330 -0.4260 -0.5563 -0.3620
 3250TIP3    H231166   2.267   5.925  16.277 -0.8642 -0.1845 -1.7354
 3251TIP3   OH231167   0.833   1.121   1.251  0.4625  0.1629 -0.6143
 3251TIP3    H131168   0.903   1.182   1.274 -0.9717  0.7157  2.7786
 3251TIP3    H231169   0.849   1.044   1.305 -0.4140 -0.5435 -1.3207
 3252TIP3   OH231170   4.292   0.420  12.073 -0.3412 -0.1705 -0.0225
 3252TIP3    H131171   4.326   0.476  12.003  1.3191 -1.7890 -0.6100
 3252TIP3    H231172   4.317   0.464  12.154 -0.3894  0.6700 -0.4547
 3253TIP3   OH231173   0.987   1.386  14.569 -0.6403  0.5638 -0.1224
 3253TIP3    H131174   1.067   1.433  14.592 -0.7712  0.2694  0.9966
 3253TIP3    H231175   1.003   1.296  14.599 -1.5235  0.5840  0.4489
 3254TIP3   OH231176   1.549   0.572  10.660 -0.4593 -0.3349 -0.4296
 3254TIP3    H131177   1.595   0.655  10.663  1.0872 -1.1685 -0.0904
 3254TIP3    H231178   1.487   0.581  10.587 -0.1647  1.0136 -0.5250
 3255TIP3   OH231179   0.991   6.760   5.649 -0.5101  0.2234 -0.6830
 3255TIP3    H131180   0.990   6.814   5.570 -0.7046  1.9041  0.4032
 3255TIP3    H231181   0.918   6.793   5.701  0.1524 -0.2190  0.5751
 3256TIP3   OH231182   3.612   2.891  13.745  0.5246  0.1597  0.4381
 3256TIP3    H131183   3.693   2.927  13.708  0.5244 -0.5340 -0.2716
 3256TIP3    H231184   3.544   2.953  13.720  0.5357 -0.2661 -0.7165
 3257TIP3   OH231185   6.323   5.471  15.574 -0.1326  0.4085  0.2011
 3257TIP3    H131186   6.294   5.563  15.572  1.8014  1.0974  1.5631
 3257TIP3    H231187   6.365   5.457  15.489  0.6047  1.1546  0.4369
 3258TIP3   OH231188   1.887   5.062   4.024  0.0651 -0.2148  0.4234
 3258TIP3    H131189   1.801   5.040   3.988 -0.5855  0.4197  1.5300
 3258TIP3    H231190   1.905   5.149   3.989 -0.4838  0.3232  1.4163
 3259TIP3   OH231191   4.847   3.312   2.111 -0.0588  0.0413  0.1385
 3259TIP3    H131192   4.826   3.332   2.020 -2.8488  1.6467  0.9819
 3259TIP3    H231193   4.766   3.273   2.146  0.0999  1.5591  2.4334
 3260TIP3   OH231194   2.649   3.240   2.432  0.1428  0.8356 -0.0586
 3260TIP3    H131195   2.628   3.217   2.523  0.1387 -0.7870 -0.4334
 3260TIP3    H231196   2.564   3.253   2.390  0.0507 -0.5471 -0.3286
 3261TIP3   OH231197   1.216   4.645  11.543 -0.1594 -0.6697  0.0864
 3261TIP3    H131198   1.136   4.656  11.491 -0.0102 -0.4556 -0.0966
 3261TIP3    H231199   1.186   4.601  11.623 -0.4453 -0.6763 -0.0222
 3262TIP3   OH231200   2.133   5.205   6.809 -0.0159  0.1792 -0.5059
 3262TIP3    H131201   2.186   5.128   6.829 -0.1631  0.6853  2.2670
 3262TIP3    H231202   2.055   5.195   6.864 -1.6114  0.7283 -2.5623
 3263TIP3   OH231203   0.552   3.232   1.350  0.3994  0.2172 -0.0791
 3263TIP3    H131204   0.598   3.310   1.320  1.3847 -0.5807 -0.7161
 3263TIP3    H231205   0.516   3.256   1.436 -1.0245  1.9967 -1.1037
 3264TIP3   OH231206   4.605   1.574  10.842 -0.0330  0.4431  0.2054
 3264TIP3    H131207   4.628   1.485  10.868  2.2010  1.4331  1.8584
 3264TIP3    H231208   4.570   1.614  10.921 -0.1806  1.3202 -0.2918
 3265TIP3   OH231209   4.224   0.301   3.038  0.0672  1.1242 -0.5937
 3265TIP3    H131210   4.156   0.250   3.082  1.4480 -0.6958 -0.4251
 3265TIP3    H231211   4.285   0.323   3.108  0.1265  1.9269 -0.8947
 3266TIP3   OH231212   4.639   0.951  11.077  0.0977 -0.0696  0.0761
 3266TIP3    H131213   4.705   1.020  11.075 -1.3086  1.3379  0.5643
 3266TIP3    H231214   4.605   0.953  11.167 -1.6920  0.3098 -0.5779
 3267TIP3   OH231215   1.325   5.703   3.207 -0.5258 -0.0344 -0.9818
 3267TIP3    H131216   1.398   5.644   3.226 -1.3529 -1.1085 -1.0787
 3267TIP3    H231217   1.247   5.648   3.213 -1.4302  1.3023  0.0571
 3268TIP3   OH231218   1.138   3.653  14.036 -0.0214 -0.0499 -0.3042
 3268TIP3    H131219   1.184   3.643  14.120  0.3793  2.1862 -0.2072
 3268TIP3    H231220   1.050   3.679  14.060 -0.0919 -0.0328 -0.5807
 3269TIP3   OH231221   5.207   2.958  16.282 -0.2198  0.1823 -0.1813
 3269TIP3    H131222   5.289   2.997  16.253  0.8991 -0.9773  1.2478
 3269TIP3    H231223   5.159   2.940  16.202  1.7027 -0.7291 -1.1927
 3270TIP3   OH231224   0.340   0.040   1.665  0.1028 -0.1107  0.3752
 3270TIP3    H131225   0.275  -0.027   1.643  2.0351 -1.0939 -3.1249
 3270TIP3    H231226   0.385   0.005   1.743 -1.3086 -1.0632  0.8031
 3271TIP3   OH231227   3.229   0.477   2.496  0.5117  0.0959  0.5534
 3271TIP3    H131228   3.169   0.439   2.431  2.9851 -0.1900 -1.7648
 3271TIP3    H231229   3.237   0.410   2.564 -0.8828 -0.3233  0.3297
 3272TIP3   OH231230   5.083   5.091  13.858  0.3094 -0.3281 -0.3332
 3272TIP3    H131231   5.075   5.095  13.953  0.4554 -2.5202 -0.1640
 3272TIP3    H231232   5.132   5.170  13.834 -0.4648  0.6977  1.2867
 3273TIP3   OH231233   0.215   1.751   0.264 -0.4361 -0.1057  0.3119
 3273TIP3    H131234   0.293   1.732   0.315 -0.2297  0.6942  0.3055
 3273TIP3    H231235   0.206   1.846   0.268 -2.2482 -0.2809  1.5666
 3274TIP3   OH231236   3.260   5.565   4.357  1.1095 -0.9624  0.3429
 3274TIP3    H131237   3.166   5.546   4.352  1.1784 -1.8681  1.8346
 3274TIP3    H231238   3.264   5.660   4.367  0.2964 -0.9676  0.9126
 3275TIP3   OH231239   5.846   2.314   5.632  0.2519 -0.3394 -0.2766
 3275TIP3    H131240   5.846   2.218   5.637  1.1051 -0.2753  1.5259
 3275TIP3    H231241   5.783   2.334   5.562  1.0303 -2.2301 -1.6048
 3276TIP3   OH231242   0.977   2.791  12.376  0.4528 -0.0553 -0.0266
 3276TIP3    H131243   0.915   2.812  12.306  0.7635  1.2990  0.0931
 3276TIP3    H231244   1.043   2.859  12.371  0.4856  0.0633  1.5838
 3277TIP3   OH231245   0.505   4.253   3.189  0.1745 -0.1340  0.2330
 3277TIP3    H131246   0.471   4.342   3.197 -1.5173 -0.7597  0.4719
 3277TIP3    H231247   0.523   4.243   3.095 -0.7499  0.0974  0.0185
 3278TIP3   OH231248   1.601   4.051   2.012 -0.0408  0.7207 -0.2550
 3278TIP3    H131249   1.641   4.137   2.026 -1.0721  1.1507  0.0683
 3278TIP3    H231250   1.511   4.061   2.040  0.0896 -0.7718  0.7728
 3279TIP3   OH231251   4.297   3.977   2.516 -0.3924 -0.6070 -0.1258
 3279TIP3    H131252   4.350   4.027   2.576 -1.6231 -0.0320  0.5171
 3279TIP3    H231253   4.346   3.977   2.434  0.8060 -0.5188  0.5817
 3280TIP3   OH231254   1.169   2.548  15.050 -0.0009  0.1964 -0.8538
 3280TIP3    H131255   1.163   2.631  15.003  2.1468  0.5132 -0.6732
 3280TIP3    H231256   1.110   2.558  15.125 -0.2537  1.3049 -1.1865
 3281TIP3   OH231257   0.585   4.878  13.786  0.2977  0.1765 -0.7982
 3281TIP3    H131258   0.574   4.961  13.832 -0.1822  0.4029 -1.3107
 3281TIP3    H231259   0.554   4.812  13.847  0.3393  0.4079 -0.5262
 3282TIP3   OH231260   6.496   6.391  13.379 -0.1258 -0.2675 -0.0754
 3282TIP3    H131261   6.532   6.437  13.455 -0.4181 -0.6835  0.3187
 3282TIP3    H231262   6.570   6.342  13.343  0.1083  0.2488 -0.3006
 3283TIP3   OH231263   3.781   4.212   5.174  0.3179 -0.2857  0.0710
 3283TIP3    H131264   3.805   4.154   5.101  0.9578  1.3646 -1.1017
 3283TIP3    H231265   3.694   4.244   5.152  0.5175  0.2287  0.0207
 3284TIP3   OH231266   6.017   3.956  12.340  0.0046  0.3171  0.0840
 3284TIP3    H131267   6.030   4.008  12.261 -1.3332 -0.7646 -0.9116
 3284TIP3    H231268   6.026   3.865  12.311  1.1172 -0.0732  1.5349
 3285TIP3   OH231269   6.593   4.783   0.069 -0.2072 -0.6461 -0.2168
 3285TIP3    H131270   6.540   4.830   0.005  0.5403 -0.6270 -0.8298
 3285TIP3    H231271   6.664   4.843   0.090 -0.4815 -0.6156  0.7095
 3286TIP3   OH231272   4.962   3.706  15.825 -0.0582 -0.5082 -0.1471
 3286TIP3    H131273   5.018   3.642  15.782 -0.5728 -0.4053 -0.9893
 3286TIP3    H231274   4.905   3.739  15.756 -0.9116 -0.3396  0.6109
 3287TIP3   OH231275   4.695   5.848   3.981 -0.8412 -0.2472 -0.2119
 3287TIP3    H131276   4.781   5.843   3.938 -1.8116 -0.3553 -2.2212
 3287TIP3    H231277   4.683   5.942   3.997  0.5210 -0.3703  2.0787
 3288TIP3   OH231278   2.272   1.189   1.650 -0.3974  0.0521  0.2453
 3288TIP3    H131279   2.339   1.129   1.616 -0.0764  1.4384 -1.8098
 3288TIP3    H231280   2.189   1.146   1.632 -0.1310 -0.3934  0.0763
 3289TIP3   OH231281   4.516   3.355  17.180  0.4723 -0.2133  0.5027
 3289TIP3    H131282   4.555   3.307  17.107 -1.2874  0.2644 -0.8281
 3289TIP3    H231283   4.525   3.447  17.155  0.2238 -0.0196  1.0991
 3290TIP3   OH231284   4.802   4.199   0.261  0.1065  0.0984  0.2144
 3290TIP3    H131285   4.719   4.207   0.308 -0.0059 -2.1342  0.4800
 3290TIP3    H231286   4.855   4.141   0.315  1.0450 -0.2340 -1.0067
 3291TIP3   OH231287   0.149   1.442  15.883  0.0192 -0.5185  0.4508
 3291TIP3    H131288   0.073   1.410  15.932  0.2721 -1.0611  0.4969
 3291TIP3    H231289   0.216   1.456  15.950 -0.3066  0.8029  0.5236
 3292TIP3   OH231290   3.969   6.133  14.240  0.2869 -0.1893 -0.2760
 3292TIP3    H131291   3.973   6.103  14.331  0.4058  0.7720  0.0404
 3292TIP3    H231292   3.999   6.057  14.189 -0.2469 -0.9077  0.4400
 3293TIP3   OH231293   4.776   0.974   5.738 -0.0118 -0.3579 -0.1841
 3293TIP3    H131294   4.764   0.947   5.647 -0.2371 -0.8872 -0.0026
 3293TIP3    H231295   4.736   1.061   5.743  1.4086  0.3763 -0.9694
 3294TIP3   OH231296   1.991   4.735  11.061  0.6401  0.3968 -0.3394
 3294TIP3    H131297   2.063   4.736  10.998  0.8960  0.1355 -0.0606
 3294TIP3    H231298   2.003   4.653  11.109  1.3239  1.2436  1.0183
 3295TIP3   OH231299   3.839   0.962  12.133 -0.1169 -0.3399 -0.0255
 3295TIP3    H131300   3.782   0.913  12.192  1.0928 -1.7950 -0.0138
 3295TIP3    H231301   3.902   1.006  12.190  1.2690 -2.0259 -0.1947
 3296TIP3   OH231302   6.341   0.026  11.638  0.0035 -0.4626 -0.0791
 3296TIP3    H131303   6.295  -0.057  11.654 -1.3528  0.3510  0.4156
 3296TIP3    H231304   6.328   0.042  11.544 -1.1869  0.0041  0.1502
 3297TIP3   OH231305   4.602   6.018  16.695 -0.1395 -0.8681  0.0199
 3297TIP3    H131306   4.525   6.022  16.638 -2.0685 -0.2773  2.4608
 3297TIP3    H231307   4.578   6.073  16.770  2.8108 -0.4630  0.7745
 3298TIP3   OH231308   0.916   2.193   3.973 -0.2673  0.2861  0.0274
 3298TIP3    H131309   0.882   2.234   4.052 -0.6381 -1.0121  0.5716
 3298TIP3    H231310   1.009   2.182   3.990 -0.5623 -1.2197  0.8948
 3299TIP3   OH231311   1.761   5.175   1.826  0.2736 -0.3897  0.7168
 3299TIP3    H131312   1.843   5.128   1.813 -0.6308 -1.4350 -1.6285
 3299TIP3    H231313   1.694   5.107   1.829 -0.6277  0.4943  1.8536
 3300TIP3   OH231314   4.316   6.347  14.787 -0.0514 -0.2230 -0.5002
 3300TIP3    H131315   4.297   6.315  14.699 -0.7125 -0.9619 -0.1100
 3300TIP3    H231316   4.262   6.426  14.795 -0.2560 -0.3446 -0.6446
 3301TIP3   OH231317   4.309   1.988  15.815 -0.4625  0.3617  0.4285
 3301TIP3    H131318   4.388   2.027  15.854  0.6052 -1.7641  0.5637
 3301TIP3    H231319   4.257   1.959  15.890 -0.0386 -0.6651  0.3463
 3302TIP3   OH231320   4.294   3.796  16.365 -0.1102 -0.6716  0.2131
 3302TIP3    H131321   4.381   3.786  16.327 -0.0732  0.9768 -0.2198
 3302TIP3    H231322   4.266   3.884  16.338 -0.7741 -0.0546  2.6237
 3303TIP3   OH231323   3.563   2.351   3.486  0.1750  0.2366  0.1482
 3303TIP3    H131324   3.603   2.438   3.492  0.9863 -0.2020  1.3299
 3303TIP3    H231325   3.596   2.315   3.404  2.5986 -0.2861  1.2910
 3304TIP3   OH231326   5.346   5.757  13.902 -0.1256 -0.1464 -0.6516
 3304TIP3    H131327   5.318   5.681  13.852  2.0136 -1.9899  0.7722
 3304TIP3    H231328   5.316   5.741  13.991  2.3478 -0.6062  0.1960
 3305TIP3   OH231329   2.119   2.044  17.134  0.4711 -0.2968  0.3896
 3305TIP3    H131330   2.043   2.100  17.119 -0.6106 -1.7677  0.1922
 3305TIP3    H231331   2.184   2.103  17.173 -1.4804  0.5649  2.6117
 3306TIP3   OH231332   4.266   1.954   0.102  0.0200  0.8494  0.3161
 3306TIP3    H131333   4.312   1.978   0.183 -0.1995  3.5171 -0.2609
 3306TIP3    H231334   4.330   1.902   0.053  0.0429 -1.1238  2.2731
 3307TIP3   OH231335   5.957   1.001  15.895 -0.1871 -0.4153 -0.3636
 3307TIP3    H131336   5.963   0.913  15.857  1.0307 -0.4246 -0.2100
 3307TIP3    H231337   6.022   1.001  15.966 -2.4125 -0.4033  1.7814
 3308TIP3   OH231338   1.142   1.414   3.681 -0.0897  0.2030 -0.4207
 3308TIP3    H131339   1.158   1.505   3.656 -1.7004  0.2108 -1.5885
 3308TIP3    H231340   1.220   1.388   3.729  0.1685  2.3688  0.4329
 3309TIP3   OH231341   4.039   5.989  16.170  0.5623 -0.4205  0.2650
 3309TIP3    H131342   3.955   6.017  16.208  0.2716 -0.8025 -0.0788
 3309TIP3    H231343   4.065   6.061  16.113  0.6783 -0.1196  0.6972
 3310TIP3   OH231344   6.516   5.044   3.586  0.2937 -0.1407 -0.8397
 3310TIP3    H131345   6.606   5.059   3.558  0.5512  0.1731  0.1365
 3310TIP3    H231346   6.504   5.100   3.662 -0.1657 -1.5131  0.1405
 3311TIP3   OH231347   2.084   4.136  11.093 -0.4508  0.2361 -0.6042
 3311TIP3    H131348   2.141   4.180  11.157 -0.7037 -1.6171  0.9959
 3311TIP3    H231349   2.144   4.082  11.042 -0.3688  1.0134 -1.3582
 3312TIP3   OH231350   3.247   2.062   4.318 -0.0746  0.2297 -0.1967
 3312TIP3    H131351   3.331   2.095   4.287 -0.7063  0.5129 -1.7059
 3312TIP3    H231352   3.182   2.116   4.272 -1.0824 -0.5765  0.2497
 3313TIP3   OH231353   4.453   0.888  16.537 -1.1390  0.7023 -0.1240
 3313TIP3    H131354   4.508   0.812  16.557 -1.5593 -0.0383 -1.6586
 3313TIP3    H231355   4.422   0.918  16.622 -1.6173 -1.3331  0.4651
 3314TIP3   OH231356   2.101   5.125   5.929  0.3313  0.1826  0.1971
 3314TIP3    H131357   2.034   5.172   5.978 -0.1268  0.6237 -0.8050
 3314TIP3    H231358   2.051   5.066   5.872  0.7850  0.5670 -0.6151
 3315TIP3   OH231359   5.428   5.064   0.349 -0.1536 -0.4356 -0.1789
 3315TIP3    H131360   5.449   5.050   0.256 -0.4394  2.4027 -0.7723
 3315TIP3    H231361   5.335   5.040   0.357 -0.3314  0.0189 -0.8184
 3316TIP3   OH231362   2.414   5.364   5.453 -0.3102 -0.0796 -0.1566
 3316TIP3    H131363   2.508   5.356   5.468 -0.7156 -2.8813  1.5777
 3316TIP3    H231364   2.386   5.431   5.515  0.3364 -0.3362  0.4278
 3317TIP3   OH231365   0.074   0.487  12.559 -0.3589  0.2199 -0.4625
 3317TIP3    H131366  -0.008   0.499  12.608 -0.4826 -0.2279 -0.5561
 3317TIP3    H231367   0.107   0.576  12.545 -0.0814  0.3456  0.8390
 3318TIP3   OH231368   1.820   5.709   5.998 -0.6260  0.1084 -0.0690
 3318TIP3    H131369   1.746   5.724   6.058 -0.4583  2.2340 -0.3221
 3318TIP3    H231370   1.807   5.773   5.928  0.1185 -1.1845 -1.4340
 3319TIP3   OH231371   4.606   0.201   5.591  0.6398 -0.1777  0.7027
 3319TIP3    H131372   4.681   0.259   5.575  0.8547 -0.7868 -0.6212
 3319TIP3    H231373   4.620   0.127   5.531 -0.8641 -0.4475  0.6530
 3320TIP3   OH231374   2.454   4.749  14.982  0.1410 -0.0792  0.3395
 3320TIP3    H131375   2.429   4.720  14.894 -0.4163  1.2978  0.0189
 3320TIP3    H231376   2.538   4.794  14.969 -0.5854  1.2912  0.2720
 3321TIP3   OH231377   0.342   3.048   5.850  0.4094 -0.0359  0.3523
 3321TIP3    H131378   0.427   3.091   5.844  1.2104 -1.5706 -0.0312
 3321TIP3    H231379   0.354   2.980   5.916 -0.8660  0.4342  1.0990
 3322TIP3   OH231380   1.530   1.695  16.189  0.3720 -0.1522  0.4921
 3322TIP3    H131381   1.504   1.784  16.209 -0.7823 -0.4061  0.1720
 3322TIP3    H231382   1.608   1.680  16.243  0.1116  0.7694  1.1456
 3323TIP3   OH231383   3.462   5.546  17.276  0.3604  0.6009 -0.5247
 3323TIP3    H131384   3.403   5.520  17.347  1.6578 -0.8822  0.0691
 3323TIP3    H231385   3.475   5.466  17.225  1.6684  0.9391 -0.7582
 3324TIP3   OH231386   5.074   1.635  14.796  0.1506 -0.5882 -0.0029
 3324TIP3    H131387   5.124   1.695  14.852  0.1520  0.9099 -1.5428
 3324TIP3    H231388   5.114   1.549  14.811 -0.2351 -0.4024  2.7147
 3325TIP3   OH231389   3.990   3.647   1.572  0.3080  0.3317  0.7786
 3325TIP3    H131390   4.009   3.562   1.532  1.3094  1.0798 -0.4188
 3325TIP3    H231391   3.938   3.693   1.506  0.6021  0.9969  1.0041
 3326TIP3   OH231392   0.952   2.623  13.207 -0.0481  0.1137  1.2048
 3326TIP3    H131393   0.934   2.672  13.287  0.9084  1.4718  0.6226
 3326TIP3    H231394   1.030   2.665  13.170 -0.2909 -0.6747 -0.2822
 3327TIP3   OH231395   4.938   1.321  15.287  0.2910  0.3394 -0.0526
 3327TIP3    H131396   4.959   1.239  15.243  0.7605  0.1118  0.5897
 3327TIP3    H231397   4.923   1.383  15.215 -0.8434 -0.4818 -0.5519
 3328TIP3   OH231398   2.044   1.333   0.261  0.0730 -0.1824 -0.0185
 3328TIP3    H131399   2.119   1.282   0.232 -0.8552 -1.6569  0.0749
 3328TIP3    H231400   2.028   1.302   0.350 -0.2685  0.5697  0.1863
 3329TIP3   OH231401   4.885   4.356  15.156  0.3892 -0.2474 -0.1029
 3329TIP3    H131402   4.875   4.298  15.080 -2.1126  0.6500 -0.5511
 3329TIP3    H231403   4.928   4.434  15.122 -0.5263  0.0623 -0.5693
 3330TIP3   OH231404   2.753   0.258   4.141 -0.3161 -0.0123  0.2983
 3330TIP3    H131405   2.657   0.259   4.135 -0.3979  1.1129  1.3864
 3330TIP3    H231406   2.773   0.314   4.216  1.1204 -2.0970  1.5468
 3331TIP3   OH231407   4.631   2.665   4.931 -0.5670  0.6305  0.3447
 3331TIP3    H131408   4.725   2.684   4.937 -0.2710 -1.1306  2.7867
 3331TIP3    H231409   4.588   2.741   4.970 -0.0007  0.5257  1.2010
 3332TIP3   OH231410   2.421   5.304  12.171 -0.7406 -0.5797  0.4093
 3332TIP3    H131411   2.328   5.312  12.192 -0.1578 -0.4132  3.2503
 3332TIP3    H231412   2.464   5.368  12.228  1.1303 -0.5818 -0.9212
 3333TIP3   OH231413   3.504   6.741   5.559  0.2556 -0.8903 -0.3518
 3333TIP3    H131414   3.567   6.778   5.497 -0.0058 -0.9421 -0.6502
 3333TIP3    H231415   3.551   6.670   5.602  0.3558 -1.0145 -0.6681
 3334TIP3   OH231416   2.072   5.685   5.875 -0.2907 -0.1268 -0.8543
 3334TIP3    H131417   2.001   5.679   5.939  0.1536  0.0215 -0.3414
 3334TIP3    H231418   2.114   5.769   5.894  0.5527 -0.5973 -0.5826
 3335TIP3   OH231419   0.664   4.406   4.549 -0.6542 -0.4334  0.7200
 3335TIP3    H131420   0.705   4.335   4.500 -0.6935  0.0250  0.0191
 3335TIP3    H231421   0.695   4.393   4.639 -1.2808 -1.7995  0.7615
 3336TIP3   OH231422   3.003   6.240   0.681  0.3675 -0.6320  0.0909
 3336TIP3    H131423   3.006   6.298   0.605 -0.8013  0.6556  0.9827
 3336TIP3    H231424   3.061   6.168   0.659  1.3127  0.5333 -1.3469
 3337TIP3   OH231425   5.154   6.461   6.360 -0.8338 -0.2709 -0.4657
 3337TIP3    H131426   5.214   6.536   6.362 -0.8280 -0.2930  0.9680
 3337TIP3    H231427   5.210   6.385   6.373 -0.9767 -0.4392 -0.8153
 3338TIP3   OH231428   4.798   5.275  14.607  0.3492 -0.3909  0.0111
 3338TIP3    H131429   4.819   5.183  14.622 -1.0863 -0.8016 -0.4081
 3338TIP3    H231430   4.751   5.276  14.524 -0.5727  0.5877  0.5278
 3339TIP3   OH231431   2.760   6.390   5.698 -0.1556  0.1043 -0.1053
 3339TIP3    H131432   2.757   6.444   5.777  0.9233  0.8439 -0.5464
 3339TIP3    H231433   2.849   6.355   5.696 -0.1040  0.2654 -1.1049
 3340TIP3   OH231434   2.971   5.885  15.026 -0.3965 -0.2838 -0.1275
 3340TIP3    H131435   3.002   5.931  15.104 -0.5613  0.3248 -0.4154
 3340TIP3    H231436   2.876   5.882  15.035 -0.4448  0.1109 -0.4788
 3341TIP3   OH231437   6.243   6.435  12.455  0.0372  0.3921  0.0328
 3341TIP3    H131438   6.313   6.458  12.516  0.8848  0.7956 -1.0510
 3341TIP3    H231439   6.281   6.450  12.368 -1.0893 -0.2860 -0.6039
 3342TIP3   OH231440   2.384   1.451   3.311 -0.3133 -0.2660  0.0988
 3342TIP3    H131441   2.453   1.432   3.374  0.9658 -0.0065 -1.1851
 3342TIP3    H231442   2.335   1.369   3.303  2.1314 -1.6581 -1.7320
 3343TIP3   OH231443   5.205   2.982  13.436  0.3780 -0.4925  0.1430
 3343TIP3    H131444   5.162   2.943  13.512  1.2202 -2.3644 -0.2997
 3343TIP3    H231445   5.276   3.036  13.474 -0.4970  0.2805  0.7361
 3344TIP3   OH231446   0.833   6.622  12.088 -0.1612  0.2396  0.2371
 3344TIP3    H131447   0.798   6.584  12.169 -0.9806  0.5938  0.0547
 3344TIP3    H231448   0.812   6.715  12.093  4.6071  1.4738  2.1786
 3345TIP3   OH231449   3.704   5.001  11.496  0.0037 -0.4316  0.1923
 3345TIP3    H131450   3.750   4.996  11.413  0.9923 -1.8485  0.7832
 3345TIP3    H231451   3.767   5.040  11.557  0.2697 -1.8330  0.8655
 3346TIP3   OH231452   5.924   6.374   1.701 -0.2732  0.2660  0.0329
 3346TIP3    H131453   6.006   6.421   1.681  0.0015 -0.8348 -1.6813
 3346TIP3    H231454   5.895   6.341   1.616 -1.2729 -1.3321  0.9607
 3347TIP3   OH231455   1.232   5.850   2.404  0.3377  0.3219  0.1241
 3347TIP3    H131456   1.189   5.930   2.374 -0.3170 -0.3753 -0.8444
 3347TIP3    H231457   1.253   5.867   2.496 -1.8405  0.7772  0.5933
 3348TIP3   OH231458   6.226   5.225  13.897  0.3415 -0.2288  0.1420
 3348TIP3    H131459   6.178   5.143  13.883  1.2309 -0.8350  0.5786
 3348TIP3    H231460   6.308   5.213  13.850  0.2975  0.5956 -0.1581
 3349TIP3   OH231461   5.795   6.477   3.758 -0.6230 -0.1891  0.1889
 3349TIP3    H131462   5.700   6.463   3.760 -0.7084  0.3570  2.1494
 3349TIP3    H231463   5.806   6.569   3.782  0.4280 -0.4000  0.5491
 3350TIP3   OH231464   6.656   1.067  14.451  0.4042 -0.3316 -0.1344
 3350TIP3    H131465   6.569   1.093  14.481 -0.2946 -0.1910 -2.1402
 3350TIP3    H231466   6.647   0.974  14.428  0.4377 -0.0309 -1.4373
 3351TIP3   OH231467   5.053   5.369   1.967  0.5259  0.8807  0.5121
 3351TIP3    H131468   5.031   5.414   1.886 -0.6049 -2.3900 -1.1799
 3351TIP3    H231469   4.971   5.364   2.015 -0.0312 -1.4427 -0.5325
 3352TIP3   OH231470   0.102   0.557   3.140  0.0298 -0.6688 -0.2947
 3352TIP3    H131471   0.032   0.609   3.182  0.8719  0.5525 -0.3560
 3352TIP3    H231472   0.070   0.542   3.051 -0.6058 -1.0068 -0.0178
 3353TIP3   OH231473   1.531   4.837  14.558 -0.6428  0.1989  0.1459
 3353TIP3    H131474   1.562   4.907  14.501  0.7033 -1.6214 -1.5020
 3353TIP3    H231475   1.533   4.875  14.646  1.7569  1.6923 -0.4596
 3354TIP3   OH231476   0.290   0.954  15.369  0.1531 -0.1316  0.4639
 3354TIP3    H131477   0.235   1.028  15.397  0.9396 -0.6793  3.8464
 3354TIP3    H231478   0.369   0.995  15.334  1.1750  0.7648  3.5539
 3355TIP3   OH231479   0.832   3.785   4.682  0.1122  0.2756 -0.2553
 3355TIP3    H131480   0.848   3.729   4.758  0.0558 -0.5912 -0.8694
 3355TIP3    H231481   0.750   3.830   4.703  0.1322  0.0972  0.2246
 3356TIP3   OH231482   2.129   4.257  13.382  0.5404  0.3237 -0.3702
 3356TIP3    H131483   2.073   4.259  13.460  0.7272 -1.0388 -0.1704
 3356TIP3    H231484   2.139   4.349  13.357  0.1526  0.7593  0.9791
 3357TIP3   OH231485   0.797   4.743  14.843 -0.4676  0.4704 -0.0854
 3357TIP3    H131486   0.838   4.707  14.765 -0.4783  0.8927 -0.2885
 3357TIP3    H231487   0.706   4.760  14.817 -0.6329  0.0471  0.1998
 3358TIP3   OH231488   1.424   5.173  12.486  0.2632  0.2160 -0.1546
 3358TIP3    H131489   1.476   5.092  12.480 -0.0570  0.1237 -3.1662
 3358TIP3    H231490   1.348   5.148  12.537  3.3189  0.6037  5.3566
 3359TIP3   OH231491   6.744   6.415  14.377  0.8794 -0.1242 -0.2425
 3359TIP3    H131492   6.715   6.431  14.467 -0.9722 -1.8760 -0.4377
 3359TIP3    H231493   6.726   6.322  14.363 -0.5856  0.4715 -2.9745
 3360TIP3   OH231494   1.483   5.903  12.218  0.3573  0.1901  0.0268
 3360TIP3    H131495   1.528   5.954  12.285  0.9415 -0.4205  0.1065
 3360TIP3    H231496   1.428   5.967  12.173  1.9932  1.1673 -0.6925
 3361TIP3   OH231497   2.811   6.266  12.810  0.0953 -0.0576 -1.0156
 3361TIP3    H131498   2.778   6.177  12.803 -1.2175  0.4208 -1.3083
 3361TIP3    H231499   2.734   6.321  12.792  0.6740  1.1368  0.0048
 3362TIP3   OH231500   5.346   4.834  14.342 -0.1197 -0.0631 -0.2775
 3362TIP3    H131501   5.417   4.833  14.407  0.1250 -1.5135 -0.5197
 3362TIP3    H231502   5.348   4.746  14.304 -0.7133  0.5290 -1.7610
 3363TIP3   OH231503   4.346   4.122  12.239  0.3858 -0.0112 -0.2576
 3363TIP3    H131504   4.308   4.195  12.286  0.5506  0.4882 -0.8780
 3363TIP3    H231505   4.425   4.158  12.199  2.7036 -1.4624  2.5876
 3364TIP3   OH231506   1.235   6.669   0.478  0.1903  0.0906 -0.4651
 3364TIP3    H131507   1.224   6.624   0.562 -1.5974 -0.7120 -1.0744
 3364TIP3    H231508   1.215   6.761   0.497  0.1956 -0.0168  0.0677
 3365TIP3   OH231509   2.660   3.779   2.495 -0.3075 -0.0424  0.3640
 3365TIP3    H131510   2.685   3.764   2.586 -0.6636  0.4965  0.5558
 3365TIP3    H231511   2.573   3.741   2.488 -0.3370  0.0392  0.2861
 3366TIP3   OH231512   5.900   0.664   3.873 -0.5403 -0.0575  0.8515
 3366TIP3    H131513   5.865   0.750   3.849 -1.4318 -1.0379 -1.7176
 3366TIP3    H231514   5.956   0.640   3.799  1.7720 -0.6453  2.6823
 3367TIP3   OH231515   6.182   6.556  10.865 -0.3768 -0.6712  0.1656
 3367TIP3    H131516   6.181   6.650  10.849  2.1605 -0.2867  1.6480
 3367TIP3    H231517   6.236   6.520  10.795  1.1203 -0.5574  1.2113
 3368TIP3   OH231518   5.246   6.599   1.669 -0.1303  0.1048 -0.2230
 3368TIP3    H131519   5.308   6.587   1.741 -1.6098 -2.9244  0.7178
 3368TIP3    H231520   5.172   6.646   1.708 -1.1685 -2.0109  0.4841
 3369TIP3   OH231521   0.438   3.175  16.943  0.1744 -0.2414  0.1633
 3369TIP3    H131522   0.356   3.198  16.987 -0.9877 -0.8150 -1.5770
 3369TIP3    H231523   0.494   3.141  17.012 -0.8388  0.6870  1.4999
 3370TIP3   OH231524   3.896   4.467   3.269  0.3251  0.1620 -0.6409
 3370TIP3    H131525   3.890   4.436   3.178 -0.6904  0.2457 -0.6110
 3370TIP3    H231526   3.832   4.537   3.275 -1.3539 -1.3869  0.7611
 3371TIP3   OH231527   4.329   0.639  13.079 -0.1281  0.2855 -0.4120
 3371TIP3    H131528   4.326   0.607  12.989  1.0724 -0.0952 -0.3330
 3371TIP3    H231529   4.240   0.626  13.112  0.0954 -2.2608 -0.6302
 3372TIP3   OH231530   5.874   1.543  16.162  0.2409  0.5631  0.7301
 3372TIP3    H131531   5.845   1.558  16.252  1.3241 -0.4377  1.2673
 3372TIP3    H231532   5.953   1.596  16.154  0.6851 -0.0947  0.6923
 3373TIP3   OH231533   5.301   1.661  15.834  0.7519 -0.2408 -0.6536
 3373TIP3    H131534   5.310   1.751  15.867 -1.1566 -0.3768  0.3692
 3373TIP3    H231535   5.370   1.653  15.768  1.9153  1.4904  0.2492
 3374TIP3   OH231536   6.143   4.485   5.631 -0.1241 -0.3051 -0.2293
 3374TIP3    H131537   6.226   4.470   5.677  0.5108 -1.5819 -1.6914
 3374TIP3    H231538   6.079   4.437   5.682  0.1811  0.0222  0.4741
 3375TIP3   OH231539   3.263   3.441   5.770 -0.3439  0.1284 -0.1368
 3375TIP3    H131540   3.212   3.520   5.750  1.1414  0.9191 -0.9834
 3375TIP3    H231541   3.267   3.439   5.865  1.5508  2.4703 -0.0718
 3376TIP3   OH231542   0.928   0.302   0.695  0.0724  0.0688  0.6144
 3376TIP3    H131543   0.969   0.387   0.711  1.4330 -0.2385 -0.9183
 3376TIP3    H231544   0.846   0.305   0.744  0.6368  1.8083  1.5325
 3377TIP3   OH231545   0.572   1.711  16.304 -0.4107  0.4669  0.1643
 3377TIP3    H131546   0.514   1.673  16.369 -1.4226  1.5753 -0.0573
 3377TIP3    H231547   0.642   1.647  16.294 -1.2830 -0.6297  0.8706
 3378TIP3   OH231548   1.892   0.618   2.668  0.0098 -0.1180 -0.1503
 3378TIP3    H131549   1.799   0.609   2.649 -0.6705  2.9438  1.0762
 3378TIP3    H231550   1.896   0.629   2.763  1.5856  0.1359 -0.2201
 3379TIP3   OH231551   1.551   3.990  11.766  0.9594  0.3300 -0.2561
 3379TIP3    H131552   1.592   4.017  11.848  2.3844 -1.1397 -0.4529
 3379TIP3    H231553   1.457   3.989  11.785  1.1082  1.9754  0.7340
 3380TIP3   OH231554   4.069   3.961  15.805  0.0150 -0.2592  0.0221
 3380TIP3    H131555   4.134   3.960  15.876 -1.5242  0.4515  1.5267
 3380TIP3    H231556   4.096   4.034  15.749  1.4422 -1.0393 -0.3531
 3381TIP3   OH231557   5.587   3.582  13.948 -0.1702 -0.1133  0.5291
 3381TIP3    H131558   5.495   3.608  13.945  0.0013  0.6463  1.1922
 3381TIP3    H231559   5.635   3.665  13.945  0.4967 -0.5035  0.0962
 3382TIP3   OH231560   4.717   5.699   0.471 -0.1825  0.1573 -0.0112
 3382TIP3    H131561   4.756   5.704   0.383  0.0432 -0.3213  0.0579
 3382TIP3    H231562   4.792   5.687   0.529 -0.4954 -2.0134  0.0137
 3383TIP3   OH231563   2.581   4.135  15.427  0.2820  0.3541 -0.4692
 3383TIP3    H131564   2.495   4.175  15.439 -0.7066 -1.7759 -0.0305
 3383TIP3    H231565   2.642   4.208  15.434 -1.5371  2.2075 -2.3827
 3384TIP3   OH231566   5.472   3.405  13.748 -0.3384 -0.2024 -0.1526
 3384TIP3    H131567   5.469   3.499  13.770  1.0454 -0.1622 -0.0596
 3384TIP3    H231568   5.437   3.401  13.659  0.7755  0.5817 -0.6454
 3385TIP3   OH231569   0.258   2.254   3.784 -0.8991  0.1886 -0.1277
 3385TIP3    H131570   0.283   2.192   3.716  0.2376  0.4206  0.0599
 3385TIP3    H231571   0.302   2.223   3.863 -0.2231  1.2604 -0.0513
 3386TIP3   OH231572   4.602   4.658   5.571  0.7530  0.0943 -0.0335
 3386TIP3    H131573   4.628   4.621   5.487  1.4490 -1.3849  0.8055
 3386TIP3    H231574   4.655   4.612   5.636 -1.0794 -0.1401  1.3913
 3387TIP3   OH231575   2.994   5.936   3.864  0.3482  0.1736  0.0251
 3387TIP3    H131576   2.948   5.855   3.887 -0.6570  0.3828 -1.1316
 3387TIP3    H231577   3.052   5.910   3.792  0.7614  0.2735  0.3239
 3388TIP3   OH231578   0.152   2.701   1.303 -0.3015  0.3267  0.1943
 3388TIP3    H131579   0.112   2.663   1.381  0.1380 -1.1281 -0.2552
 3388TIP3    H231580   0.085   2.692   1.235 -0.3227  0.7012  0.1621
 3389TIP3   OH231581   0.819   1.086   2.365 -0.1362 -0.1897  0.2042
 3389TIP3    H131582   0.800   1.078   2.271  1.0266 -0.0472 -0.0643
 3389TIP3    H231583   0.746   1.137   2.400 -0.3234  0.2088 -0.7198
 3390TIP3   OH231584   2.069   4.598   1.343 -0.3441 -0.4631 -0.1115
 3390TIP3    H131585   2.121   4.598   1.263 -0.1551  0.2103  0.0075
 3390TIP3    H231586   2.133   4.593   1.414 -0.4904 -0.6599  0.0076
 3391TIP3   OH231587   2.958   4.270   5.948 -0.5030 -0.3069  0.5856
 3391TIP3    H131588   2.991   4.358   5.929  0.7928 -0.8440  0.2136
 3391TIP3    H231589   2.982   4.255   6.039 -0.7701 -0.2541  0.6639
 3392TIP3   OH231590   4.502   1.833  12.798 -0.0075  0.4666  0.6089
 3392TIP3    H131591   4.445   1.869  12.731  0.6491 -2.1732 -1.5434
 3392TIP3    H231592   4.448   1.831  12.877 -1.7970  0.9852 -0.5416
 3393TIP3   OH231593   2.282   0.595   0.208  0.3134 -0.1524  0.1537
 3393TIP3    H131594   2.245   0.515   0.246 -0.0215 -0.2668 -0.3973
 3393TIP3    H231595   2.226   0.613   0.132  2.3082 -1.2193 -1.6607
 3394TIP3   OH231596   5.208   1.477   6.064 -0.3497 -0.2488  0.1571
 3394TIP3    H131597   5.207   1.513   6.153 -1.2345  1.1487 -0.3886
 3394TIP3    H231598   5.124   1.431   6.056 -2.0197  2.7599 -1.1150
 3395TIP3   OH231599   0.042   5.968  11.008  0.2400 -0.6226 -0.1035
 3395TIP3    H131600   0.091   5.971  11.090  1.5706  0.5145 -0.9171
 3395TIP3    H231601  -0.036   6.022  11.025  0.0375 -1.1417  0.6843
 3396TIP3   OH231602   5.687   3.074  15.092  0.0129  0.2836  0.2482
 3396TIP3    H131603   5.595   3.050  15.083 -0.0884 -0.1781  2.2128
 3396TIP3    H231604   5.699   3.144  15.027 -1.8195  0.6555  0.2455
 3397TIP3   OH231605   2.260   1.942  11.262  0.2416 -0.0165 -0.3134
 3397TIP3    H131606   2.256   1.850  11.237 -0.6226  0.2891 -1.3907
 3397TIP3    H231607   2.352   1.966  11.252  0.1933 -0.3307 -1.6993
 3398TIP3   OH231608   2.652   6.021  13.025 -0.2837 -0.0084  0.4762
 3398TIP3    H131609   2.694   5.996  12.943 -3.3738 -0.3090 -1.1530
 3398TIP3    H231610   2.622   6.110  13.011 -1.6212 -0.3681  0.8977
 3399TIP3   OH231611   0.833   0.527   0.237  0.5082 -0.4034 -0.2264
 3399TIP3    H131612   0.763   0.515   0.301  0.6902 -1.7036 -0.2431
 3399TIP3    H231613   0.909   0.485   0.277  0.5033 -1.6870 -1.4814
 3400TIP3   OH231614   5.527   6.316   2.063  0.1317 -1.0316  0.2117
 3400TIP3    H131615   5.565   6.235   2.030  0.3051 -1.2502  0.9292
 3400TIP3    H231616   5.591   6.383   2.040  0.2578 -1.1836  0.1130
 3401TIP3   OH231617   0.809   0.771   2.329  0.1612  0.8027  0.9153
 3401TIP3    H131618   0.814   0.851   2.278 -0.2471  0.9864  1.1576
 3401TIP3    H231619   0.745   0.790   2.398  0.8934  0.6468  1.6497
 3402TIP3   OH231620   2.599   6.038  12.122 -0.2198  0.1459  0.3779
 3402TIP3    H131621   2.559   5.978  12.060  1.0095 -0.6519  0.3320
 3402TIP3    H231622   2.547   6.027  12.202 -0.2101 -0.7504  0.2744
 3403TIP3   OH231623   5.406   0.378   5.107  0.2422  0.2621 -0.7668
 3403TIP3    H131624   5.420   0.325   5.186 -2.9516  0.2070 -0.1026
 3403TIP3    H231625   5.442   0.325   5.036  0.6246 -1.0033  0.3307
 3404TIP3   OH231626   2.725   3.190  16.603 -0.2828  0.4255 -0.6372
 3404TIP3    H131627   2.813   3.222  16.586 -0.4330  1.0558 -0.2430
 3404TIP3    H231628   2.667   3.260  16.572 -0.6583 -0.1237 -1.2072
 3405TIP3   OH231629   3.099   0.660   1.813 -0.2847  0.1794  0.4553
 3405TIP3    H131630   3.147   0.665   1.895 -0.3558 -1.3935  0.6253
 3405TIP3    H231631   3.008   0.679   1.837 -0.3721 -0.6657  0.8323
 3406TIP3   OH231632   2.308   1.290  16.897 -0.7386  0.3559 -0.2732
 3406TIP3    H131633   2.381   1.347  16.870  0.4229 -0.7499  0.3851
 3406TIP3    H231634   2.230   1.343  16.885  0.1423  1.4668 -1.3728
 3407TIP3   OH231635   5.319   2.438   4.050  0.0269 -0.1835  0.3100
 3407TIP3    H131636   5.414   2.438   4.055  0.1149 -0.2353 -1.1052
 3407TIP3    H231637   5.299   2.385   3.973 -1.1167  0.4063  0.1826
 3408TIP3   OH231638   4.983   5.613  15.272 -0.2259  0.2051  0.1323
 3408TIP3    H131639   4.944   5.579  15.352 -0.0367  0.6157  0.3998
 3408TIP3    H231640   5.077   5.608  15.287 -0.1968  1.0122  0.2419
 3409TIP3   OH231641   3.585   4.383  11.257  0.1950 -0.2423  0.2120
 3409TIP3    H131642   3.620   4.309  11.306  0.1441 -0.5523 -0.2089
 3409TIP3    H231643   3.653   4.449  11.261  0.7366 -0.7484 -0.3968
 3410TIP3   OH231644   3.646   1.562   0.003  0.1949  0.3909 -0.2283
 3410TIP3    H131645   3.630   1.648   0.040 -0.1555  0.5070 -0.6471
 3410TIP3    H231646   3.671   1.508   0.078 -0.9256  0.5074  0.2505
 3411TIP3   OH231647   2.906   5.102  14.262 -0.3526  0.0713 -0.3451
 3411TIP3    H131648   2.858   5.048  14.324 -1.6978 -1.7836 -2.8018
 3411TIP3    H231649   2.950   5.039  14.205  0.0891  1.6312 -1.8188
 3412TIP3   OH231650   5.037   4.051  11.419 -0.2995 -0.5668 -0.0067
 3412TIP3    H131651   4.952   4.010  11.434  0.7969 -1.9200  3.5873
 3412TIP3    H231652   5.089   3.983  11.375 -0.3958 -0.6827  0.0572
 3413TIP3   OH231653   0.493   4.064   5.125 -0.1410  0.7876 -0.9058
 3413TIP3    H131654   0.500   4.100   5.213  1.6322  1.4194 -1.2710
 3413TIP3    H231655   0.540   4.127   5.070  1.7616 -1.3097 -1.7894
 3414TIP3   OH231656   4.861   5.744   4.236  0.1933  0.1251 -0.7719
 3414TIP3    H131657   4.882   5.669   4.292 -0.5072 -0.1024 -0.7990
 3414TIP3    H231658   4.887   5.716   4.148 -1.5491 -0.7573 -1.0592
 3415TIP3   OH231659   3.508   3.875  14.237  0.8173  0.3521  0.1678
 3415TIP3    H131660   3.439   3.835  14.290  0.5345 -0.2589 -0.6497
 3415TIP3    H231661   3.580   3.812  14.239  0.8319  0.3603 -0.1258
 3416TIP3   OH231662   1.617   6.535  17.050  0.3709 -0.0233 -0.2566
 3416TIP3    H131663   1.642   6.548  17.142  0.3962  0.7403 -0.3643
 3416TIP3    H231664   1.639   6.444  17.032  1.6333  0.1840  0.1091
 3417TIP3   OH231665   2.893   1.466  12.052  0.1226  0.3138  0.1412
 3417TIP3    H131666   2.958   1.416  12.003  0.6746  0.9689  0.1979
 3417TIP3    H231667   2.935   1.484  12.136  0.4033  1.9117 -0.3240
 3418TIP3   OH231668   0.391   2.860  11.561  0.2844  1.0158  0.0321
 3418TIP3    H131669   0.393   2.937  11.619 -0.1156 -0.6883  2.4495
 3418TIP3    H231670   0.314   2.811  11.589  0.4933 -0.2706 -1.5063
 3419TIP3   OH231671   5.435   0.861   2.168 -0.2538  0.2048 -0.2733
 3419TIP3    H131672   5.505   0.800   2.187 -0.1491  0.7503  1.1851
 3419TIP3    H231673   5.399   0.885   2.253 -0.5894  1.8203 -0.8269
 3420TIP3   OH231674   1.367   4.080   5.745 -0.0379 -0.4123 -0.6204
 3420TIP3    H131675   1.438   4.113   5.690 -1.1618  0.5859 -1.5154
 3420TIP3    H231676   1.296   4.061   5.684 -0.7125 -0.9566  0.3061
 3421TIP3   OH231677   3.287   2.631  15.748  0.1281  0.3767  0.2002
 3421TIP3    H131678   3.284   2.714  15.797  0.9404  0.2250  0.5317
 3421TIP3    H231679   3.298   2.564  15.816 -1.4923 -0.1147  0.0166
 3422TIP3   OH231680   4.435   2.643  15.348  0.1954 -0.2372 -0.3557
 3422TIP3    H131681   4.433   2.559  15.301 -0.0640  0.4202 -1.5652
 3422TIP3    H231682   4.343   2.668  15.356  0.1591 -0.8263  1.4618
 3423TIP3   OH231683   4.336   5.517   4.931  0.4666  0.7551  0.4765
 3423TIP3    H131684   4.262   5.497   4.988 -1.4163  2.1778 -1.2938
 3423TIP3    H231685   4.306   5.494   4.843  1.9671  1.7458 -0.3556
 3424TIP3   OH231686   1.924   2.373   5.788 -0.2762  0.0760 -0.3405
 3424TIP3    H131687   1.902   2.280   5.788 -1.1215  0.2616  0.7882
 3424TIP3    H231688   1.861   2.412   5.727 -0.5439  0.0378 -0.0916
 3425TIP3   OH231689   4.660   2.753   2.081  0.3262 -0.1993  0.2451
 3425TIP3    H131690   4.705   2.716   2.005 -0.3598 -1.5160  0.4480
 3425TIP3    H231691   4.568   2.731   2.067  0.1380 -0.0995  1.2530
 3426TIP3   OH231692   1.859   3.458   0.636  0.3308 -0.5191 -0.4486
 3426TIP3    H131693   1.900   3.543   0.621 -0.7274  0.0241 -0.3711
 3426TIP3    H231694   1.910   3.397   0.583  1.7341 -0.0221  0.2807
 3427TIP3   OH231695   0.721   4.922  14.147  0.0743 -0.1177  0.1188
 3427TIP3    H131696   0.691   4.993  14.092  0.8081  0.4132  0.3934
 3427TIP3    H231697   0.641   4.876  14.173 -0.6973  2.1651  2.0712
 3428TIP3   OH231698   1.591   3.899  15.402 -0.3316  0.7041 -0.5706
 3428TIP3    H131699   1.659   3.967  15.397  0.3630 -0.0106 -1.0913
 3428TIP3    H231700   1.632   3.829  15.453  0.0201 -0.4952 -2.4097
 3429TIP3   OH231701   1.979   5.874  16.386 -1.3396  0.4478  0.1285
 3429TIP3    H131702   1.940   5.873  16.473  0.1790  0.5975  0.8451
 3429TIP3    H231703   1.946   5.795  16.343 -1.4351 -0.0733  1.1512
 3430TIP3   OH231704   0.561   3.162  13.523 -0.0525 -0.3954  0.2085
 3430TIP3    H131705   0.628   3.188  13.460  0.4261  0.4909  1.0528
 3430TIP3    H231706   0.567   3.067  13.527  0.6576 -0.3775 -0.2648
 3431TIP3   OH231707   3.871   1.560  17.157 -0.0489  0.8361 -0.0093
 3431TIP3    H131708   3.913   1.486  17.200 -0.5261 -1.9914 -3.8358
 3431TIP3    H231709   3.782   1.562  17.193 -0.5907 -1.7191 -0.9960
 3432TIP3   OH231710   2.512   2.603  12.525 -0.2174 -0.5651  0.0857
 3432TIP3    H131711   2.557   2.679  12.561 -0.2058 -0.0401 -1.0013
 3432TIP3    H231712   2.476   2.633  12.441 -1.8079 -1.2235  0.4774
 3433TIP3   OH231713   3.453   4.533  16.548  0.1111 -0.5986  0.2577
 3433TIP3    H131714   3.421   4.443  16.547 -0.8391 -0.2666 -0.1136
 3433TIP3    H231715   3.532   4.530  16.603 -0.3960 -1.4941  0.9547
 3434TIP3   OH231716   4.622   2.615   1.337  0.0093  0.1247 -0.2284
 3434TIP3    H131717   4.635   2.699   1.292 -0.5156 -0.4599 -1.5263
 3434TIP3    H231718   4.548   2.630   1.395 -0.3813  0.4579 -0.7953
 3435TIP3   OH231719   3.465   0.076  11.986  0.3598  0.5362  0.3032
 3435TIP3    H131720   3.402   0.099  11.918  0.5636  1.6063  0.4550
 3435TIP3    H231721   3.435   0.122  12.064 -1.6038 -2.9921  1.8828
 3436TIP3   OH231722   5.745   1.479  14.634 -0.3799  0.2112 -0.0310
 3436TIP3    H131723   5.760   1.388  14.659  0.6041  0.2986 -0.2337
 3436TIP3    H231724   5.829   1.508  14.597  0.3354  2.1143  2.7527
 3437TIP3   OH231725   0.755   4.400   5.804 -0.3910  0.0398  0.2097
 3437TIP3    H131726   0.780   4.423   5.894  1.2714 -2.2745  0.4254
 3437TIP3    H231727   0.660   4.388   5.809 -0.2600 -0.6449  1.8405
 3438TIP3   OH231728   6.106   6.584  11.993 -0.3775  0.4332 -0.4587
 3438TIP3    H131729   6.056   6.529  12.053  1.4065 -0.2140  0.5284
 3438TIP3    H231730   6.095   6.542  11.908 -1.4896  0.3075 -0.2610
 3439TIP3   OH231731   3.576   5.220   3.463 -1.0214 -1.0726  0.5777
 3439TIP3    H131732   3.641   5.232   3.532  0.2866  0.0818 -0.7870
 3439TIP3    H231733   3.495   5.258   3.498  0.4368  2.6764  0.3042
 3440TIP3   OH231734   6.685   2.274  14.783  0.2023 -0.2838 -0.7492
 3440TIP3    H131735   6.705   2.188  14.747  1.7496 -0.4785  0.4523
 3440TIP3    H231736   6.707   2.266  14.876  0.9251  1.5543 -0.7182
 3441TIP3   OH231737   0.252   6.712  11.488 -0.2160 -0.1479  0.3723
 3441TIP3    H131738   0.249   6.807  11.475  0.8552 -0.0743  0.6206
 3441TIP3    H231739   0.206   6.698  11.571 -1.7574 -0.0240 -0.4194
 3442TIP3   OH231740   3.373   5.832   1.732 -0.1430  0.1065 -0.2718
 3442TIP3    H131741   3.365   5.919   1.770  0.1493 -0.8688  2.1750
 3442TIP3    H231742   3.375   5.847   1.637  1.3670  2.8744  0.1046
 3443TIP3   OH231743   6.361   3.882   0.381 -0.6240 -0.7256  0.5084
 3443TIP3    H131744   6.276   3.846   0.356 -1.7870  1.7669  0.5434
 3443TIP3    H231745   6.348   3.913   0.470 -0.4168  1.6111 -0.2142
 3444TIP3   OH231746   2.697   4.998  15.319  0.1291 -0.1891  0.0454
 3444TIP3    H131747   2.647   5.037  15.391  1.2361 -0.6979  1.1092
 3444TIP3    H231748   2.758   4.938  15.361  1.0370 -0.2500 -1.2942
 3445TIP3   OH231749   3.131   0.856  15.565 -0.0730  0.1922  0.1283
 3445TIP3    H131750   3.112   0.768  15.599 -0.5634  0.5193  0.7232
 3445TIP3    H231751   3.209   0.884  15.613  0.6144 -0.2610 -0.7000
 3446TIP3   OH231752   0.630   3.022  14.563  0.3992 -0.1871 -0.0352
 3446TIP3    H131753   0.536   3.033  14.546  0.4671 -1.0204 -1.0033
 3446TIP3    H231754   0.637   3.019  14.658 -0.4143  1.0403  0.0907
 3447TIP3   OH231755   2.769   3.784   5.999 -0.2252  0.5600  0.6235
 3447TIP3    H131756   2.740   3.865   6.039 -0.0620  1.0533 -0.2365
 3447TIP3    H231757   2.723   3.715   6.047 -0.1398  1.1325  1.5483
 3448TIP3   OH231758   5.198   4.911   4.160  0.0525 -0.1613 -0.1269
 3448TIP3    H131759   5.273   4.852   4.167  0.6021  0.5054 -0.3867
 3448TIP3    H231760   5.206   4.951   4.074  0.1409  0.9165  0.3724
 3449TIP3   OH231761   3.258   2.159  15.598 -0.1142 -0.1207 -0.1009
 3449TIP3    H131762   3.271   2.091  15.664  2.4708 -0.6905 -1.0839
 3449TIP3    H231763   3.247   2.111  15.516  0.1629  0.6227 -0.5830
 3450TIP3   OH231764   4.997   4.391  12.974 -0.3169 -0.7634 -0.2429
 3450TIP3    H131765   4.939   4.347  13.036  0.2981 -2.0166 -0.5202
 3450TIP3    H231766   4.942   4.405  12.897 -1.0814  0.7968  0.5402
 3451TIP3   OH231767   5.755   5.134  11.422 -0.5353 -0.4903  0.8233
 3451TIP3    H131768   5.668   5.173  11.412  0.0324  1.4126  2.5632
 3451TIP3    H231769   5.815   5.198  11.384  0.2425 -0.9626  1.2306
 3452TIP3   OH231770   0.112   2.932  15.242 -0.2190  0.2010  0.2827
 3452TIP3    H131771   0.060   2.853  15.256  1.6925 -0.7915  2.5402
 3452TIP3    H231772   0.086   2.963  15.156 -2.0092 -2.1471 -0.1193
 3453TIP3   OH231773   1.232   4.842  17.343  0.2537 -0.2317 -0.2733
 3453TIP3    H131774   1.315   4.798  17.325  0.8590  1.7205 -2.8266
 3453TIP3    H231775   1.167   4.794  17.292  0.1288 -0.5927  0.2108
 3454TIP3   OH231776   1.492   2.224   1.689 -0.5664  0.1522 -0.4765
 3454TIP3    H131777   1.416   2.229   1.746  1.0900 -0.0426  1.8976
 3454TIP3    H231778   1.534   2.142   1.712  2.6370  2.1309  1.5302
 3455TIP3   OH231779   3.220   1.395   0.987  0.3418 -0.4311 -0.2530
 3455TIP3    H131780   3.307   1.425   0.962  0.0939 -0.1739 -0.8055
 3455TIP3    H231781   3.198   1.327   0.924 -0.6090  0.7636 -1.2540
 3456TIP3   OH231782   5.619   0.447   3.608  0.1080 -0.0057  0.4204
 3456TIP3    H131783   5.610   0.542   3.604  0.0815 -0.0220  0.1183
 3456TIP3    H231784   5.566   0.421   3.684 -0.2323  0.1747  0.2451
 3457TIP3   OH231785   3.545   0.216  12.271  0.5093  0.0729 -0.1210
 3457TIP3    H131786   3.508   0.277  12.336  1.5113 -0.5637  1.0903
 3457TIP3    H231787   3.602   0.271  12.217 -0.3424  0.6124 -0.4978
 3458TIP3   OH231788   4.017   1.401   3.577 -0.3850 -0.2895 -0.2793
 3458TIP3    H131789   3.939   1.346   3.562 -0.5883 -0.0615 -0.0551
 3458TIP3    H231790   4.078   1.343   3.622 -0.5520 -0.3707 -0.1540
 3459TIP3   OH231791   0.987   4.037   2.410  0.1277  0.0468 -0.0871
 3459TIP3    H131792   1.036   4.106   2.454 -0.9766  2.1185 -1.9041
 3459TIP3    H231793   0.993   4.059   2.317 -2.6555 -0.6102 -0.5144
 3460TIP3   OH231794   6.484   2.205   5.584  0.5321 -0.1148  0.2775
 3460TIP3    H131795   6.550   2.145   5.618 -1.2911 -2.8540 -0.6354
 3460TIP3    H231796   6.403   2.153   5.585 -0.8687  1.8438 -2.0554
 3461TIP3   OH231797   4.322   0.372  16.246  0.1365 -0.4675  0.4202
 3461TIP3    H131798   4.361   0.301  16.196 -0.9677 -2.1089  1.7938
 3461TIP3    H231799   4.373   0.376  16.327 -0.3181 -0.2246  0.6983
 3462TIP3   OH231800   5.193   5.321  17.309 -0.1654  0.4733 -0.1716
 3462TIP3    H131801   5.144   5.401  17.288  0.3677  0.8068 -0.1431
 3462TIP3    H231802   5.210   5.327  17.403 -0.3469  0.2020 -0.1209
 3463TIP3   OH231803   6.731   5.599  17.221 -0.2562 -0.4235  0.5406
 3463TIP3    H131804   6.825   5.619  17.220 -0.5746  1.1951 -0.7795
 3463TIP3    H231805   6.707   5.592  17.129 -1.7949  1.0013  0.7950
 3464TIP3   OH231806   5.841   1.950   5.091 -0.1358 -0.1299  0.0712
 3464TIP3    H131807   5.821   2.034   5.132  0.6535 -0.0292  0.2698
 3464TIP3    H231808   5.764   1.896   5.108 -0.2367  0.2333  0.8344
 3465TIP3   OH231809   5.278   6.759   3.231 -0.4846 -0.2955  0.5203
 3465TIP3    H131810   5.362   6.790   3.265  0.0695  1.3902 -2.1493
 3465TIP3    H231811   5.301   6.694   3.164 -1.2902  0.1934 -0.2528
 3466TIP3   OH231812   5.257   4.006  16.111 -0.2745  0.1923  0.6412
 3466TIP3    H131813   5.287   4.085  16.155 -0.7840  0.3250  0.7663
 3466TIP3    H231814   5.172   4.031  16.073  0.5482  0.3407 -1.1763
 3467TIP3   OH231815   6.686   4.200   3.313  0.1751 -0.0956  0.7075
 3467TIP3    H131816   6.594   4.188   3.294  0.2040 -0.9553  1.0971
 3467TIP3    H231817   6.693   4.291   3.342 -0.4282  0.1749  0.0200
 3468TIP3   OH231818   2.988   2.721   4.497 -0.5511  0.0689 -0.0511
 3468TIP3    H131819   2.966   2.630   4.481 -2.0135  0.6232 -1.3716
 3468TIP3    H231820   3.077   2.731   4.464 -1.1164 -0.4221 -1.8029
 3469TIP3   OH231821   0.935   1.438   5.472  0.8626 -0.0038 -0.0783
 3469TIP3    H131822   0.920   1.479   5.387  1.4400  1.6987  0.6041
 3469TIP3    H231823   1.016   1.478   5.504  0.7131 -0.6975  1.2200
 3470TIP3   OH231824   3.339   4.189   1.439  0.0912  0.4774  0.0113
 3470TIP3    H131825   3.359   4.206   1.347  1.3988 -1.4646 -0.1330
 3470TIP3    H231826   3.404   4.240   1.488  2.1130 -1.5915 -0.3277
 3471TIP3   OH231827   3.401   3.301  14.579  0.1986  0.1016 -0.2492
 3471TIP3    H131828   3.437   3.238  14.642 -0.7524 -1.3197 -1.0568
 3471TIP3    H231829   3.352   3.247  14.517  1.0630  1.4412 -2.2077
 3472TIP3   OH231830   3.776   5.224   5.029  0.3801 -0.4285  0.4497
 3472TIP3    H131831   3.810   5.300   5.076  2.8650 -0.7383 -0.7212
 3472TIP3    H231832   3.825   5.150   5.064  1.1591 -0.8729 -1.4567
 3473TIP3   OH231833   0.072   5.925  11.618 -0.2537  0.4362  0.4849
 3473TIP3    H131834   0.137   5.979  11.574 -0.7729 -0.4013 -1.3882
 3473TIP3    H231835   0.122   5.872  11.680  0.4774  1.6969  1.0199
 3474TIP3   OH231836   5.420   5.906   4.835  0.3907 -0.5572  0.2902
 3474TIP3    H131837   5.358   5.976   4.858 -0.0468 -0.8336 -0.0427
 3474TIP3    H231838   5.442   5.923   4.744  1.1687 -0.1878  0.5455
 3475TIP3   OH231839   5.413   1.846  17.183 -0.7372 -0.2979  0.7807
 3475TIP3    H131840   5.442   1.780  17.120 -0.1433  0.2034  0.5123
 3475TIP3    H231841   5.357   1.798  17.244 -0.3439 -1.0406  0.5717
 3476TIP3   OH231842   5.645   1.733   5.948  0.3709  0.3614  0.5588
 3476TIP3    H131843   5.701   1.743   6.025  3.6161  0.6757 -1.6385
 3476TIP3    H231844   5.634   1.638   5.939  2.9459  0.0455 -0.3709
 3477TIP3   OH231845   6.207   2.755   0.377 -0.2725 -0.3556  0.0895
 3477TIP3    H131846   6.270   2.788   0.313  0.1703 -0.1977  0.5985
 3477TIP3    H231847   6.250   2.767   0.462  0.1069 -2.6187  0.2996
 3478TIP3   OH231848   0.992   5.386   0.922 -0.0316 -0.6306 -0.3717
 3478TIP3    H131849   0.932   5.311   0.917 -1.1188  0.2749 -1.4371
 3478TIP3    H231850   1.030   5.393   0.835 -1.2685  1.0789 -0.8258
 3479TIP3   OH231851   4.545   1.050   3.132  0.2390  0.1096 -0.2651
 3479TIP3    H131852   4.466   1.005   3.164 -0.0135  0.8711  0.2095
 3479TIP3    H231853   4.530   1.061   3.038  1.1683 -2.5317 -0.7984
 3480TIP3   OH231854   1.391   6.121   4.958 -0.2593 -0.5166  0.1518
 3480TIP3    H131855   1.454   6.122   4.886 -0.3179 -0.0752  0.1073
 3480TIP3    H231856   1.403   6.035   4.999  0.1173 -0.5765 -0.0827
 3481TIP3   OH231857   1.577   4.416   0.014 -0.4275 -0.4030  0.1410
 3481TIP3    H131858   1.646   4.422   0.080  0.1348 -1.4833 -0.3176
 3481TIP3    H231859   1.552   4.323   0.015  0.9868 -0.8842 -2.5526
 3482TIP3   OH231860   3.806   6.424   3.254  0.1187  0.4340 -0.1708
 3482TIP3    H131861   3.715   6.438   3.280  0.5399  2.5635  0.3601
 3482TIP3    H231862   3.851   6.402   3.336  0.5151  2.0049  0.0693
 3483TIP3   OH231863   0.649   1.407  17.152 -0.0606 -0.0350  0.2585
 3483TIP3    H131864   0.650   1.417  17.247 -0.7425  0.6033  0.2082
 3483TIP3    H231865   0.563   1.441  17.125 -0.3401 -1.2683 -0.4741
 3484TIP3   OH231866   5.083   5.432  15.483 -0.1773 -0.1046  0.0730
 3484TIP3    H131867   5.024   5.490  15.532  1.1925  0.3771  1.1961
 3484TIP3    H231868   5.163   5.430  15.534  0.7996 -0.7624 -1.4215
 3485TIP3   OH231869   3.064   5.572  11.984 -0.7556  0.1158 -0.1566
 3485TIP3    H131870   3.100   5.629  12.052  0.9098 -1.1675  0.1056
 3485TIP3    H231871   3.065   5.627  11.905  1.9430  0.2001 -0.1768
 3486TIP3   OH231872   2.894   0.316   3.124 -0.3531  0.1540 -0.5109
 3486TIP3    H131873   2.978   0.359   3.109  0.0813 -0.4583  0.1216
 3486TIP3    H231874   2.915   0.237   3.173 -1.4351  0.7359  0.9782
 3487TIP3   OH231875   1.205   2.959   0.968  0.6785 -0.1411  0.2609
 3487TIP3    H131876   1.115   2.978   0.945  1.0788 -0.4504 -1.6729
 3487TIP3    H231877   1.202   2.936   1.061 -0.8519  2.2407  0.8899
 3488TIP3   OH231878   1.522   1.888  16.712 -0.2708 -0.4819 -0.2767
 3488TIP3    H131879   1.584   1.832  16.759 -0.4316  0.5735  1.2576
 3488TIP3    H231880   1.542   1.977  16.741 -2.5377 -0.1104  0.3945
 3489TIP3   OH231881   3.736   5.109   1.483 -0.5169  0.1426 -0.1603
 3489TIP3    H131882   3.768   5.099   1.573  0.4194 -2.1240 -0.6845
 3489TIP3    H231883   3.666   5.174   1.490  0.8266  1.4871  1.8662
 3490TIP3   OH231884   2.873   2.070  13.592 -0.2107  0.8660  0.0526
 3490TIP3    H131885   2.779   2.077  13.604 -0.1751 -1.2598  2.3264
 3490TIP3    H231886   2.910   2.133  13.654 -0.1838 -0.0524  1.0193
 3491TIP3   OH231887   2.984   2.774  14.018  0.1137 -0.7340  0.1008
 3491TIP3    H131888   2.950   2.860  14.044 -2.0110 -0.8320 -2.0099
 3491TIP3    H231889   3.070   2.792  13.980 -0.3874  0.5223 -0.5046
 3492TIP3   OH231890   5.844   0.153  13.331  0.2400 -0.1380  0.0605
 3492TIP3    H131891   5.864   0.247  13.324 -2.6777  0.5339 -0.6251
 3492TIP3    H231892   5.882   0.114  13.253  1.5418  0.4374  0.3885
 3493TIP3   OH231893   4.981   2.855   5.650  0.5019  0.2377 -0.4656
 3493TIP3    H131894   5.021   2.805   5.720  1.1285  0.1677 -0.8696
 3493TIP3    H231895   4.996   2.947   5.674  1.6096  0.2068 -1.0134
 3494TIP3   OH231896   4.010   5.740   1.006  0.4494  0.9935  0.3126
 3494TIP3    H131897   3.949   5.707   0.940  0.2860  0.8475  0.5378
 3494TIP3    H231898   4.035   5.827   0.974  0.1574  1.0372  0.2005
 3495TIP3   OH231899   6.166   2.635   1.733  0.5334 -0.2737 -0.0010
 3495TIP3    H131900   6.121   2.592   1.806 -3.4170  1.9379 -0.9012
 3495TIP3    H231901   6.234   2.688   1.776  0.5542 -1.5673  1.7074
 3496TIP3   OH231902   2.241   0.142   5.604  0.2540 -0.4367 -0.3992
 3496TIP3    H131903   2.223   0.183   5.519  0.4026 -0.2254 -0.3280
 3496TIP3    H231904   2.317   0.190   5.638 -1.6711  1.5819  1.2962
 3497TIP3   OH231905   6.632   4.953   1.393 -0.3701 -0.3676  0.5833
 3497TIP3    H131906   6.573   4.985   1.325 -0.3991  0.3597  0.9415
 3497TIP3    H231907   6.606   4.862   1.407 -0.2756 -0.5624 -0.4655
 3498TIP3   OH231908   6.145   6.472  14.039 -0.2998  0.3812 -0.0327
 3498TIP3    H131909   6.114   6.387  14.009 -1.2972  0.3810  0.9332
 3498TIP3    H231910   6.074   6.532  14.016 -1.0524  0.3988  2.1386
 3499TIP3   OH231911   0.422   5.840   5.252 -0.0709 -0.0703  0.0701
 3499TIP3    H131912   0.491   5.792   5.298 -1.1416 -1.4341  0.3108
 3499TIP3    H231913   0.341   5.796   5.278 -0.9679  1.0279 -0.7848
 3500TIP3   OH231914   2.444   2.114  10.709 -0.6341 -0.0267  0.2535
 3500TIP3    H131915   2.518   2.065  10.675  0.5550  1.9705 -0.1927
 3500TIP3    H231916   2.369   2.083  10.659 -0.1009 -1.8864  0.5210
 3501TIP3   OH231917   0.765   5.330  11.601 -0.0735 -0.1404 -0.2516
 3501TIP3    H131918   0.686   5.285  11.631  0.4606 -0.4473  0.7669
 3501TIP3    H231919   0.748   5.423  11.619 -0.5632 -0.0960 -0.9110
 3502TIP3   OH231920   3.047   4.353  11.225  0.0678  0.1501  0.1871
 3502TIP3    H131921   3.071   4.432  11.176  0.1428  0.7012  1.0761
 3502TIP3    H231922   3.029   4.385  11.313 -3.4433 -0.2461 -0.2350
 3503TIP3   OH231923   5.368   0.266  14.289 -0.1932 -0.2951 -0.1795
 3503TIP3    H131924   5.417   0.185  14.284  1.8284  0.9059 -0.9216
 3503TIP3    H231925   5.394   0.306  14.372  0.6834  0.6826 -0.8985
 3504TIP3   OH231926   1.460   0.018   4.272 -0.1839  0.7352  0.0277
 3504TIP3    H131927   1.448   0.109   4.247 -1.8467  0.7539  0.7700
 3504TIP3    H231928   1.537  -0.011   4.224  0.2005  2.4506 -0.4227
 3505TIP3   OH231929   0.748   5.744   6.133 -0.3981  0.1692 -0.1901
 3505TIP3    H131930   0.757   5.671   6.193 -0.0771  0.7162  0.4386
 3505TIP3    H231931   0.834   5.754   6.093 -1.1415 -1.6218 -2.4749
 3506TIP3   OH231932   4.821   5.492  10.813  0.4390 -0.2355  0.0654
 3506TIP3    H131933   4.916   5.498  10.803  0.2967  0.1565 -1.1088
 3506TIP3    H231934   4.789   5.581  10.795 -0.0429  0.0632  2.0631
 3507TIP3   OH231935   2.238   3.029   0.076 -0.0364 -1.1152  0.1048
 3507TIP3    H131936   2.171   3.088   0.111  0.2866  0.4182 -1.6820
 3507TIP3    H231937   2.321   3.070   0.100  0.2098 -1.5144 -0.0557
 3508TIP3   OH231938   3.395   2.272   1.132 -0.0284  0.2299 -0.1769
 3508TIP3    H131939   3.328   2.270   1.063 -0.0593  1.5025 -0.2187
 3508TIP3    H231940   3.400   2.365   1.157  0.2990 -0.1361  1.2238
 3509TIP3   OH231941   5.371   2.981   5.119  0.7156 -0.0701  0.2587
 3509TIP3    H131942   5.428   2.905   5.121 -0.5398 -1.0740 -0.3422
 3509TIP3    H231943   5.339   2.985   5.029 -0.2539  0.3638  0.6004
 3510TIP3   OH231944   3.652   4.400   3.127  0.1525 -0.3114 -0.1951
 3510TIP3    H131945   3.582   4.400   3.061 -0.1658  2.4087  0.0262
 3510TIP3    H231946   3.625   4.467   3.190  0.8242 -2.3088  2.3460
 3511TIP3   OH231947   4.325   0.174  11.958  0.6801  0.1904  0.6562
 3511TIP3    H131948   4.316   0.268  11.975 -0.9205  0.1298  0.3446
 3511TIP3    H231949   4.333   0.168  11.863  0.0523 -0.0128  0.6092
 3512TIP3   OH231950   2.493   5.384   1.016 -0.7226  0.8805 -0.4495
 3512TIP3    H131951   2.450   5.302   1.039  0.4690  0.5185  0.5873
 3512TIP3    H231952   2.565   5.358   0.958  0.7028  0.9512  1.2100
 3513TIP3   OH231953   6.202   2.968  15.510 -0.1462 -0.9065  0.0653
 3513TIP3    H131954   6.111   2.940  15.521 -1.0449  2.0505  1.2085
 3513TIP3    H231955   6.250   2.921  15.578 -1.2749 -0.7632  0.9968
 3514TIP3   OH231956   3.971   4.869   0.964  0.2142  0.0307 -0.4132
 3514TIP3    H131957   3.886   4.826   0.971 -0.4668  1.2884 -0.7601
 3514TIP3    H231958   4.030   4.813   1.014 -0.1002 -2.6474 -2.7767
 3515TIP3   OH231959   1.493   0.815  16.652 -0.5023 -0.6628  0.0319
 3515TIP3    H131960   1.500   0.909  16.635  0.0017 -0.6745  0.1336
 3515TIP3    H231961   1.421   0.807  16.714 -1.0899 -0.4284 -0.6089
 3516TIP3   OH231962   5.735   4.046   4.034  0.3328 -0.2334 -0.4100
 3516TIP3    H131963   5.704   3.994   4.108  0.6951  0.1655  0.0316
 3516TIP3    H231964   5.659   4.099   4.008  0.5018  0.4212  0.3856
 3517TIP3   OH231965   1.523   6.099   0.130  0.6900 -0.5801 -0.4711
 3517TIP3    H131966   1.555   6.136   0.048 -0.3223 -0.0829 -0.6527
 3517TIP3    H231967   1.443   6.053   0.106 -0.1149  0.3449  0.3840
 3518TIP3   OH231968   0.102   4.711   3.152 -0.8975 -0.3104  0.3644
 3518TIP3    H131969   0.015   4.672   3.161 -0.7607 -0.9423 -0.8393
 3518TIP3    H231970   0.135   4.678   3.069  0.3348  0.2547  0.5993
 3519TIP3   OH231971   0.118   3.900  17.298 -0.8233  0.3857 -0.3883
 3519TIP3    H131972   0.177   3.876  17.226 -1.4416  0.3257 -0.8742
 3519TIP3    H231973   0.072   3.819  17.320 -0.2906  0.2851  0.4101
 3520TIP3   OH231974   1.923   2.349   5.375 -0.2694 -0.2427 -0.4798
 3520TIP3    H131975   2.014   2.347   5.405 -0.2639  1.0053 -0.3561
 3520TIP3    H231976   1.880   2.412   5.432 -1.1698 -0.6387 -0.6966
 3521TIP3   OH231977   3.700   1.301   2.996 -0.2765  0.6391  0.7852
 3521TIP3    H131978   3.713   1.264   2.909  0.3977  1.6724  0.4317
 3521TIP3    H231979   3.770   1.265   3.050 -1.3986 -0.9677  1.2522
 3522TIP3   OH231980   5.514   4.058   4.356 -0.4200 -0.2233 -0.3121
 3522TIP3    H131981   5.440   4.117   4.367 -1.9664 -2.1667  0.2103
 3522TIP3    H231982   5.551   4.049   4.444  0.6173  0.8873 -0.6006
 3523TIP3   OH231983   1.287   5.445   1.218  0.0257 -0.1077 -0.7593
 3523TIP3    H131984   1.245   5.504   1.155  0.7877 -0.2341 -1.4138
 3523TIP3    H231985   1.377   5.436   1.185  0.4277 -0.2132  0.3338
 3524TIP3   OH231986   2.056   5.697  13.044 -0.2542  0.6259  0.1247
 3524TIP3    H131987   2.117   5.627  13.020 -0.4311  0.2657  0.6901
 3524TIP3    H231988   2.038   5.681  13.137 -0.4788  1.2889  0.1972
 3525TIP3   OH231989   3.317   4.164  14.403  0.0066  0.5333  0.2206
 3525TIP3    H131990   3.408   4.193  14.414  0.2672  0.6249 -1.7861
 3525TIP3    H231991   3.323   4.079  14.361 -0.8508 -0.3919  1.8684
 3526TIP3   OH231992   0.706   4.621  16.171 -0.5542  0.4069  0.0070
 3526TIP3    H131993   0.611   4.635  16.161 -0.6295  1.6368  1.8993
 3526TIP3    H231994   0.721   4.627  16.265  1.5088  0.9046 -0.3120
 3527TIP3   OH231995   0.171   2.000   5.284  0.0574 -0.3494 -0.1010
 3527TIP3    H131996   0.225   1.934   5.240 -0.6421 -1.1575  0.2147
 3527TIP3    H231997   0.226   2.079   5.286  0.6936 -0.7492 -1.0031
 3528TIP3   OH231998   5.039   3.904  14.562  0.2177 -0.0374  0.0820
 3528TIP3    H131999   5.126   3.881  14.531 -0.1005 -1.0704 -0.0730
 3528TIP3    H232000   4.983   3.899  14.485  0.2535  2.1247 -0.1629
 3529TIP3   OH232001   3.910   6.666   5.573 -0.7001 -0.3254  0.4210
 3529TIP3    H132002   3.896   6.732   5.641 -1.6153  0.4102 -0.4485
 3529TIP3    H232003   3.845   6.598   5.592 -0.4576 -0.4825  0.7041
 3530TIP3   OH232004   5.256   6.194   3.309  0.3928  0.0177 -0.1393
 3530TIP3    H132005   5.290   6.267   3.362  0.2713 -0.8504  1.1924
 3530TIP3    H232006   5.319   6.184   3.238  0.8186  0.9195  0.0959
 3531TIP3   OH232007   6.369   0.859  12.321 -0.6410 -0.4118 -0.3785
 3531TIP3    H132008   6.401   0.770  12.306 -1.3911 -0.3750 -2.4310
 3531TIP3    H232009   6.411   0.911  12.253 -2.3883  0.2606 -0.9919
 3532TIP3   OH232010   1.551   3.364   4.376 -0.4505  0.1381  0.3286
 3532TIP3    H132011   1.503   3.320   4.306 -0.1269 -1.6281  1.1828
 3532TIP3    H232012   1.619   3.413   4.330  0.0518 -1.3623 -0.5983
 3533TIP3   OH232013   2.880   3.933   4.188  0.0120  0.2956 -0.5585
 3533TIP3    H132014   2.965   3.892   4.204 -0.0486 -0.2277 -1.5325
 3533TIP3    H232015   2.864   3.985   4.267  0.3938 -1.0213  0.4150
 3534TIP3   OH232016   1.514   2.503  16.387 -0.0667 -0.4027  0.2135
 3534TIP3    H132017   1.435   2.519  16.439  1.2612  0.7529  2.0175
 3534TIP3    H232018   1.584   2.498  16.452  1.5095 -0.2830 -1.4061
 3535TIP3   OH232019   5.415   4.876   2.663  0.0303 -0.1885 -0.4271
 3535TIP3    H132020   5.398   4.968   2.645 -0.5472 -0.2664 -0.2927
 3535TIP3    H232021   5.410   4.868   2.758 -0.1877 -0.4117 -0.4564
 3536TIP3   OH232022   0.568   2.673   5.037  0.0657  0.2138  0.1351
 3536TIP3    H132023   0.660   2.645   5.039  0.2581  0.6869 -1.2346
 3536TIP3    H232024   0.572   2.767   5.053 -0.3139  0.0180  1.4763
 3537TIP3   OH232025   0.442   1.305  13.764 -0.0384  0.2804  0.3323
 3537TIP3    H132026   0.445   1.210  13.748  0.1016  0.3689 -0.1932
 3537TIP3    H232027   0.428   1.313  13.859 -1.9966 -0.2693  0.1272
 3538TIP3   OH232028   1.751   0.261  17.280 -0.0169  0.1344 -0.0471
 3538TIP3    H132029   1.832   0.243  17.232 -0.4167  0.9206 -1.0545
 3538TIP3    H232030   1.717   0.175  17.302 -0.0441 -0.2782 -1.5840
 3539TIP3   OH232031   1.796   2.375   0.689  0.7601 -0.3501  0.0127
 3539TIP3    H132032   1.851   2.452   0.706 -0.0509  0.4108 -0.6879
 3539TIP3    H232033   1.715   2.412   0.652  0.9031 -1.6317 -1.6917
 3540TIP3   OH232034   0.434   6.405   6.537  0.4149 -0.0300  0.1597
 3540TIP3    H132035   0.512   6.398   6.481  0.1374  0.7919 -0.3405
 3540TIP3    H232036   0.449   6.341   6.607  1.4526 -0.0173 -0.0366
 3541TIP3   OH232037   4.904   1.090  17.215 -0.3134 -0.3567 -0.0979
 3541TIP3    H132038   4.827   1.143  17.199 -0.8641 -1.6976 -2.3426
 3541TIP3    H232039   4.940   1.072  17.128  1.2684 -1.5654  0.7369
 3542TIP3   OH232040   2.009   2.975   5.351 -0.3666  0.4252 -0.7451
 3542TIP3    H132041   1.970   3.030   5.283  1.2784  2.2848 -0.2941
 3542TIP3    H232042   2.065   3.035   5.401 -0.3393 -1.1988  1.3076
 3543TIP3   OH232043   2.118   2.209   0.128  0.5239 -0.5431 -0.4700
 3543TIP3    H132044   2.143   2.261   0.204 -0.2106 -2.1088  0.8997
 3543TIP3    H232045   2.040   2.251   0.094  0.0284 -0.6310  0.5217
 3544TIP3   OH232046   0.791   4.798  17.259  0.3298 -0.3946 -0.3867
 3544TIP3    H132047   0.825   4.795  17.348 -1.5436  0.7681  0.4405
 3544TIP3    H232048   0.772   4.706  17.238 -0.9742 -0.5313  1.1825
 3545TIP3   OH232049   1.573   2.014   5.856  0.8678 -0.0362  0.1527
 3545TIP3    H132050   1.660   2.050   5.871  0.6002  0.4882  0.4918
 3545TIP3    H232051   1.577   1.925   5.892  1.6300 -0.4800 -0.9862
 3546TIP3   OH232052   1.334   6.677   0.219  0.4487 -0.5850 -0.0412
 3546TIP3    H132053   1.330   6.769   0.193  1.0637 -0.5509 -0.0263
 3546TIP3    H232054   1.306   6.677   0.310 -0.3715 -0.5260 -0.2856
 3547TIP3   OH232055   6.131   3.466  14.211  0.3457  0.4443 -0.1890
 3547TIP3    H132056   6.088   3.387  14.245  0.9296 -0.5024 -1.5586
 3547TIP3    H232057   6.061   3.517  14.171  0.0200  0.4608  0.3936
 3548TIP3   OH232058   4.391   6.561  12.681 -0.2294  0.2368  0.0150
 3548TIP3    H132059   4.353   6.486  12.635  0.3045  0.1198 -0.2367
 3548TIP3    H232060   4.317   6.620  12.696 -0.2940  0.6666 -1.7402
 3549TIP3   OH232061   3.382   6.022  16.346 -0.0870  0.3992  0.3476
 3549TIP3    H132062   3.324   6.098  16.341  0.7923  1.0934  0.4006
 3549TIP3    H232063   3.463   6.056  16.384  1.2099 -0.0276 -1.8609
 3550TIP3   OH232064   0.998   4.354   5.597 -0.1049 -0.2321 -0.3249
 3550TIP3    H132065   1.042   4.437   5.579 -2.8057  0.7514 -3.4559
 3550TIP3    H232066   0.935   4.375   5.666  0.4530 -0.1656  0.1675
 3551TIP3   OH232067   3.429   2.656   4.017  0.1450 -0.2089  0.6224
 3551TIP3    H132068   3.401   2.606   4.093  0.8361  1.8271  2.2955
 3551TIP3    H232069   3.524   2.659   4.023  0.2782 -0.7370 -0.8244
 3552TIP3   OH232070   2.236   4.345   5.948 -0.4254 -0.5965  0.2879
 3552TIP3    H132071   2.145   4.316   5.940  0.0616 -2.0431 -0.4166
 3552TIP3    H232072   2.287   4.267   5.928  0.9835  0.7075 -1.4527
 3553TIP3   OH232073   0.238   0.306  12.440 -0.4675  0.3327  0.1880
 3553TIP3    H132074   0.246   0.353  12.357  0.4970  0.3067  0.2496
 3553TIP3    H232075   0.183   0.362  12.494 -0.3117  0.8207 -0.1475
 3554TIP3   OH232076   5.849   2.173  11.333  0.2098  0.6606 -0.3031
 3554TIP3    H132077   5.849   2.134  11.245  0.0953 -0.2412  0.0805
 3554TIP3    H232078   5.901   2.252  11.325  2.7400 -0.9168 -0.5469
 3555TIP3   OH232079   1.312   4.230  11.862 -0.1876  0.4073  0.2729
 3555TIP3    H132080   1.285   4.169  11.793 -0.7887  1.1190 -0.1384
 3555TIP3    H232081   1.387   4.277  11.825 -1.5331  1.9743 -0.6065
 3556TIP3   OH232082   0.202   4.051  13.822  0.3151  0.0432 -0.2280
 3556TIP3    H132083   0.179   3.967  13.784  0.0366 -0.4160  0.9267
 3556TIP3    H232084   0.119   4.099  13.828  0.1713 -0.3114  0.7955
 3557TIP3   OH232085   2.467   3.514   2.130 -0.5445 -0.3929 -0.3054
 3557TIP3    H132086   2.481   3.603   2.163 -2.1505 -0.5727  0.9582
 3557TIP3    H232087   2.533   3.461   2.174 -0.7827 -0.1328  0.3760
 3558TIP3   OH232088   1.084   6.631  16.090  0.0239  0.1071 -0.5433
 3558TIP3    H132089   1.108   6.584  16.010  0.2762 -1.5539  0.4448
 3558TIP3    H232090   1.168   6.650  16.132 -0.1291 -2.3574  1.0862
 3559TIP3   OH232091   5.984   6.436  13.329 -0.3277  0.0032  1.2418
 3559TIP3    H132092   5.938   6.356  13.302 -1.6225 -0.1000  3.5221
 3559TIP3    H232093   6.056   6.406  13.383  0.8418  0.2989 -0.1070
 3560TIP3   OH232094   1.194   2.720   4.948 -0.5548  0.7703 -0.3529
 3560TIP3    H132095   1.263   2.698   4.885 -0.9820 -0.6739 -0.3428
 3560TIP3    H232096   1.221   2.805   4.984  1.0379  0.4121 -0.6152
 3561TIP3   OH232097   1.262   3.175  13.837  0.2256  0.0076 -0.2854
 3561TIP3    H132098   1.340   3.126  13.812 -0.1107 -1.0991  0.7144
 3561TIP3    H232099   1.259   3.168  13.932 -0.7526  0.5691 -0.2620
 3562TIP3   OH232100   4.772   0.819   1.273 -0.0556 -0.3195 -0.3531
 3562TIP3    H132101   4.786   0.725   1.284  0.3350 -0.1851  0.3827
 3562TIP3    H232102   4.828   0.859   1.340 -1.7601  0.3673  0.7109
 3563TIP3   OH232103   5.175   4.244   2.607  0.5686 -0.7742  0.0683
 3563TIP3    H132104   5.245   4.187   2.576  3.3487  0.7914  2.7980
 3563TIP3    H232105   5.200   4.331   2.576 -0.6486 -0.2961  0.3877
 3564TIP3   OH232106   4.056   5.470  14.599 -0.2037  0.0804  1.0195
 3564TIP3    H132107   4.024   5.398  14.546 -1.8215  0.5915  1.2649
 3564TIP3    H232108   4.054   5.437  14.689 -0.8349  0.3938  1.1202
 3565TIP3   OH232109   4.431   3.269   0.237  0.6163  0.0657 -0.2332
 3565TIP3    H132110   4.417   3.364   0.235 -1.5340 -0.2077 -1.4399
 3565TIP3    H232111   4.411   3.240   0.147  0.5037 -1.6061  0.2942
 3566TIP3   OH232112   4.388   3.991   1.521  0.0069  0.2251 -0.3059
 3566TIP3    H132113   4.403   4.019   1.430 -3.2374  2.5423 -0.3084
 3566TIP3    H232114   4.314   3.931   1.516 -0.6497  0.9060  0.8368
 3567TIP3   OH232115   1.658   2.432   3.490  0.2383  0.3850 -0.8106
 3567TIP3    H132116   1.667   2.344   3.455 -0.8384  0.0117 -0.1808
 3567TIP3    H232117   1.704   2.429   3.575 -1.4123 -0.1365  0.1062
 3568TIP3   OH232118   6.113   0.694   3.675  0.1704  0.2770 -0.3326
 3568TIP3    H132119   6.138   0.767   3.731 -3.8231  0.5801  1.4133
 3568TIP3    H232120   6.078   0.735   3.596 -1.3285  0.3100  0.3118
 3569TIP3   OH232121   6.296   3.700   1.961 -0.2844  0.6918  0.1896
 3569TIP3    H132122   6.264   3.610   1.962  0.9961  0.2220  0.2688
 3569TIP3    H232123   6.216   3.754   1.957 -1.0072 -0.4543 -1.9762
 3570TIP3   OH232124   1.718   2.922  11.916  0.0680  0.1788 -0.1376
 3570TIP3    H132125   1.709   2.833  11.950  0.7912  0.0927 -0.1574
 3570TIP3    H232126   1.630   2.959  11.921  0.0759  0.0181  1.3756
 3571TIP3   OH232127   5.937   5.925  11.680 -0.0182 -1.0519  0.0633
 3571TIP3    H132128   6.011   5.950  11.624  1.1816  0.8294  2.2951
 3571TIP3    H232129   5.910   5.840  11.647  1.7271 -0.8368 -2.2206
 3572TIP3   OH232130   1.208   4.763   2.053  0.0381  0.3074 -0.3281
 3572TIP3    H132131   1.247   4.850   2.046  0.9205 -0.0687 -0.2181
 3572TIP3    H232132   1.151   4.756   1.977  1.9193  0.0367 -1.8034
 3573TIP3   OH232133   3.575   3.375   3.710  0.3312 -0.4452 -0.2252
 3573TIP3    H132134   3.506   3.326   3.755  2.2619 -2.2951  0.9155
 3573TIP3    H232135   3.535   3.405   3.629 -2.3456  0.2300  1.2242
 3574TIP3   OH232136   3.113   5.317  11.936  0.6597 -0.1460  0.0990
 3574TIP3    H132137   3.098   5.411  11.932 -0.4647 -0.2686  0.9016
 3574TIP3    H232138   3.207   5.307  11.923  0.5286  0.9190 -2.1036
 3575TIP3   OH232139   1.099   3.169  12.503  0.2686 -0.2418 -0.2345
 3575TIP3    H132140   1.149   3.092  12.530 -0.2296  0.1265  1.9034
 3575TIP3    H232141   1.020   3.133  12.462  0.4186 -0.8594  0.0042
 3576TIP3   OH232142   4.502   4.328   5.176 -0.1709  0.0762 -0.3396
 3576TIP3    H132143   4.496   4.237   5.147  2.1642 -0.9591  1.9932
 3576TIP3    H232144   4.455   4.378   5.109 -0.6406 -2.7080 -2.2540
 3577TIP3   OH232145   2.403   2.545   5.568  0.4161 -0.0950  0.2862
 3577TIP3    H132146   2.477   2.546   5.507 -0.1971  0.6682 -0.4715
 3577TIP3    H232147   2.346   2.617   5.538 -0.5586 -0.5724  0.9368
 3578TIP3   OH232148   3.402   2.497   5.170  0.4344 -0.2857  0.0026
 3578TIP3    H132149   3.431   2.406   5.170  1.7154  0.0459  1.8247
 3578TIP3    H232150   3.310   2.493   5.194  0.3653 -1.1264 -0.3809
 3579TIP3   OH232151   2.475   3.794  14.945 -0.8502 -0.2724  0.0749
 3579TIP3    H132152   2.503   3.858  14.879 -1.2546 -0.5342 -0.3572
 3579TIP3    H232153   2.451   3.848  15.021  0.2722 -0.0118  0.2659
 3580TIP3   OH232154   1.176   0.970   2.889 -0.2813  0.4553  0.9522
 3580TIP3    H132155   1.081   0.980   2.894 -0.2666  0.2187  1.9315
 3580TIP3    H232156   1.203   0.949   2.978  0.7598  1.0561  0.7965
 3581TIP3   OH232157   0.603   1.998   1.445 -0.1476  0.6906 -0.1310
 3581TIP3    H132158   0.629   1.959   1.362  1.1359 -1.8725  1.3646
 3581TIP3    H232159   0.514   2.030   1.429  0.2180  0.7138 -2.5836
 3582TIP3   OH232160   1.582   5.514   1.225 -0.3990 -1.0404  0.2978
 3582TIP3    H132161   1.599   5.573   1.298  1.3099 -0.9483 -0.1426
 3582TIP3    H232162   1.596   5.567   1.146 -2.1972 -1.1438 -0.1416
 3583TIP3   OH232163   3.962   6.047   1.305 -0.0010 -0.2248 -0.7213
 3583TIP3    H132164   4.026   5.986   1.270 -0.0673  0.0110 -1.2613
 3583TIP3    H232165   3.878   6.003   1.294 -0.0859  0.1001 -1.4362
 3584TIP3   OH232166   5.645   1.481   3.091  0.2118 -0.6926  0.3509
 3584TIP3    H132167   5.597   1.496   3.172  0.3926  0.9119  0.1851
 3584TIP3    H232168   5.669   1.568   3.060 -1.5716 -1.0911 -2.5051
 3585TIP3   OH232169   4.343   4.810  16.860  0.3724  0.6346 -0.0900
 3585TIP3    H132170   4.350   4.901  16.891 -0.3227  0.0311  1.9297
 3585TIP3    H232171   4.333   4.819  16.765 -1.4100  2.7630  0.2090
 3586TIP3   OH232172   3.385   3.932  15.348  0.0316  0.0139 -0.3314
 3586TIP3    H132173   3.394   3.838  15.337  1.9204  0.2679 -1.3523
 3586TIP3    H232174   3.328   3.942  15.425 -0.0198 -1.9339 -0.0672
 3587TIP3   OH232175   3.811   3.539   3.268  0.5623  0.8918  0.2549
 3587TIP3    H132176   3.819   3.613   3.208 -0.9654  0.8529 -0.0430
 3587TIP3    H232177   3.739   3.487   3.233 -0.0723  0.6269  1.8626
 3588TIP3   OH232178   6.096   0.729  12.924 -0.1458 -0.1928  0.0858
 3588TIP3    H132179   6.083   0.782  12.845 -1.2931 -1.3506 -0.5398
 3588TIP3    H232180   6.031   0.660  12.917 -0.9211  0.1926  2.5150
 3589TIP3   OH232181   5.548   0.344   3.359 -0.3414 -0.3087 -0.0171
 3589TIP3    H132182   5.618   0.281   3.378  0.2394 -0.0908 -1.3295
 3589TIP3    H232183   5.562   0.415   3.421  0.0581 -0.6628  0.3102
 3590TIP3   OH232184   4.471   0.943   0.321  0.6074  0.3973 -0.1179
 3590TIP3    H132185   4.399   0.974   0.376  0.0959 -0.9497 -0.0088
 3590TIP3    H232186   4.530   1.019   0.315  0.5262  0.6860  2.0253
 3591TIP3   OH232187   4.774   1.020   6.033  0.3114 -0.7108  0.3269
 3591TIP3    H132188   4.803   0.980   5.951 -2.3979 -1.2796 -0.4690
 3591TIP3    H232189   4.849   1.012   6.091  1.7961 -1.7489 -1.6005
 3592TIP3   OH232190   0.674   6.602  13.346 -0.4259  0.6995 -0.0957
 3592TIP3    H132191   0.681   6.684  13.395  1.5207  1.4218 -1.4696
 3592TIP3    H232192   0.762   6.586  13.313 -1.2536 -0.7641 -1.7557
 3593TIP3   OH232193   3.176   0.868  10.588 -0.2214 -0.4252 -0.4181
 3593TIP3    H132194   3.186   0.778  10.559 -1.5948 -0.8036  0.1993
 3593TIP3    H232195   3.082   0.885  10.583 -0.3679  0.0297  2.1275
 3594TIP3   OH232196   6.566   1.470  13.689  0.3460 -0.1333  0.4228
 3594TIP3    H132197   6.601   1.547  13.644  0.3181 -0.8740 -0.9341
 3594TIP3    H232198   6.505   1.431  13.626 -0.0192 -0.9774  1.2740
 3595TIP3   OH232199   2.398   2.717  13.989 -0.1214  0.2984  0.3024
 3595TIP3    H132200   2.417   2.810  14.000  0.2257  0.5110 -1.6995
 3595TIP3    H232201   2.304   2.713  13.971 -0.0002  0.3787 -0.4072
 3596TIP3   OH232202   4.872   3.162  12.838 -0.3440 -0.2776  0.0799
 3596TIP3    H132203   4.893   3.126  12.752  0.4420 -2.7675  1.2213
 3596TIP3    H232204   4.789   3.120  12.863 -0.8460  0.8220  0.3586
 3597TIP3   OH232205   2.316   5.319  16.317 -0.1443  0.0379  0.1114
 3597TIP3    H132206   2.390   5.377  16.298 -0.1312 -0.0471 -0.0906
 3597TIP3    H232207   2.356   5.243  16.358 -0.2505  0.5831  1.2776
 3598TIP3   OH232208   4.469   1.900   1.740  0.2408 -0.1914  0.4609
 3598TIP3    H132209   4.423   1.969   1.788  1.0846 -0.2208  1.3370
 3598TIP3    H232210   4.411   1.824   1.746 -0.7819  0.4593 -0.6716
 3599TIP3   OH232211   6.220   4.663  16.823  0.1237  0.1695 -0.3025
 3599TIP3    H132212   6.248   4.749  16.853  0.9889 -0.3028  0.2872
 3599TIP3    H232213   6.296   4.627  16.778 -0.7355  0.3296 -1.9735
 3600TIP3   OH232214   6.313   4.271   4.153  0.3459 -0.1516  0.1013
 3600TIP3    H132215   6.252   4.345   4.151  0.3571 -0.0997  1.1151
 3600TIP3    H232216   6.302   4.232   4.239  1.1322 -0.6672 -0.0125
 3601TIP3   OH232217   4.540   2.312   3.732  0.1412 -0.2942 -0.1747
 3601TIP3    H132218   4.577   2.228   3.707  3.4983  0.5206  1.5328
 3601TIP3    H232219   4.546   2.366   3.653  0.5397 -0.8428 -0.5210
 3602TIP3   OH232220   2.214   5.216  12.574  0.1816  0.4856  0.0803
 3602TIP3    H132221   2.210   5.183  12.484 -0.3287 -1.0535  0.6217
 3602TIP3    H232222   2.123   5.215  12.604  0.5132 -0.7612  1.1685
 3603TIP3   OH232223   2.036   4.948   2.613 -0.2963 -0.2378 -0.0463
 3603TIP3    H132224   2.011   4.958   2.705  1.1023  0.0259  0.3314
 3603TIP3    H232225   1.997   5.024   2.570  1.0553  0.9875  0.8008
 3604TIP3   OH232226   4.596   6.095   4.023  0.1715  0.5403 -0.3551
 3604TIP3    H132227   4.531   6.041   4.067  0.8472 -1.6244 -1.8580
 3604TIP3    H232228   4.594   6.178   4.070 -0.4241 -0.9914  2.5341
 3605TIP3   OH232229   4.148   2.642  15.368  0.2695  0.4579 -0.1951
 3605TIP3    H132230   4.144   2.553  15.335 -1.9414  0.9933 -1.6054
 3605TIP3    H232231   4.098   2.639  15.450 -0.2413  0.4777 -0.5001
 3606TIP3   OH232232   4.862   4.282   3.468 -0.4707  0.5637  0.2649
 3606TIP3    H132233   4.881   4.369   3.503  0.4038  0.4751  0.0306
 3606TIP3    H232234   4.853   4.296   3.373  0.4800  0.2818  0.1225
 3607TIP3   OH232235   1.403   0.367   5.211 -0.9157 -0.5989  0.1389
 3607TIP3    H132236   1.350   0.397   5.137  3.2817  0.2150 -2.8585
 3607TIP3    H232237   1.455   0.295   5.175  2.8462  1.2085  1.5269
 3608TIP3   OH232238   1.385   3.732  15.507 -0.7839  0.3969 -0.2876
 3608TIP3    H132239   1.297   3.769  15.502 -0.7512  0.3141 -2.5091
 3608TIP3    H232240   1.440   3.794  15.458  0.3294  0.2420  0.7217
 3609TIP3   OH232241   2.765   3.219   5.855 -0.3475 -0.0032  0.2778
 3609TIP3    H132242   2.860   3.233   5.855 -0.1822 -0.9027  1.4318
 3609TIP3    H232243   2.732   3.283   5.918 -0.3560 -0.4720  0.7561
 3610TIP3   OH232244   5.485   0.291   0.255  0.0562 -0.7817  0.2941
 3610TIP3    H132245   5.574   0.259   0.244  0.8030  1.7003 -1.6456
 3610TIP3    H232246   5.459   0.324   0.169 -2.5864 -0.9983  0.9060
 3611TIP3   OH232247   4.276   2.603   0.899  0.9274 -0.2598  0.2021
 3611TIP3    H132248   4.203   2.555   0.938  0.0428  2.6218  2.4172
 3611TIP3    H232249   4.347   2.594   0.961  1.0464  0.4460  0.1844
 3612TIP3   OH232250   4.547   6.392  17.186  0.0068  0.2100 -0.2111
 3612TIP3    H132251   4.596   6.316  17.154 -0.2105 -0.6158  1.3122
 3612TIP3    H232252   4.602   6.427  17.256 -0.5257  0.6410 -0.0093
 3613TIP3   OH232253   2.988   3.468   4.490  0.4584  0.1474  0.0245
 3613TIP3    H132254   3.053   3.480   4.560  1.1225  2.2293 -0.8862
 3613TIP3    H232255   3.013   3.530   4.422  0.0032 -2.0038 -2.2534
 3614TIP3   OH232256   2.535   1.463   2.067  0.3103 -0.3917  0.1344
 3614TIP3    H132257   2.616   1.436   2.022  1.1094  0.4857  0.9913
 3614TIP3    H232258   2.529   1.405   2.142  0.4621 -0.0951  0.3805
 3615TIP3   OH232259   0.611   1.687   1.990 -0.2899  0.3097  0.5102
 3615TIP3    H132260   0.574   1.626   2.053 -0.2174  0.6876  0.9258
 3615TIP3    H232261   0.659   1.632   1.928 -0.1560 -0.0457  0.9263
 3616TIP3   OH232262   0.163   0.338   4.406 -0.7765  0.2104  0.1008
 3616TIP3    H132263   0.245   0.290   4.419 -0.5708  0.5205 -0.0239
 3616TIP3    H232264   0.141   0.371   4.493  0.1270  1.5334 -0.1412
 3617TIP3   OH232265   6.129   6.541   4.241 -0.2917  0.3260  0.2724
 3617TIP3    H132266   6.188   6.474   4.205 -0.7105 -0.3472  0.8158
 3617TIP3    H232267   6.188   6.605   4.281  0.1477  0.7229 -0.9691
 3618TIP3   OH232268   4.118   1.541  16.225 -0.7747  0.5623  0.2750
 3618TIP3    H132269   4.083   1.455  16.248 -0.4568  0.6246  1.0115
 3618TIP3    H232270   4.057   1.603  16.265 -0.1626  0.6723  1.0483
 3619TIP3   OH232271   2.672   6.680  12.272 -0.4760 -0.8125  0.3475
 3619TIP3    H132272   2.621   6.654  12.349  1.3528 -2.0017  1.2476
 3619TIP3    H232273   2.696   6.597  12.230  1.9394 -0.4589  0.8530
 3620TIP3   OH232274   2.407   5.642   5.908  0.3710  0.5269 -0.1397
 3620TIP3    H132275   2.421   5.573   5.973 -2.5885 -1.0719 -1.0284
 3620TIP3    H232276   2.374   5.716   5.958 -1.2338 -0.4622  0.3374
 3621TIP3   OH232277   5.609   2.379   2.392 -0.4850 -0.1284  0.4103
 3621TIP3    H132278   5.564   2.322   2.330 -0.5333  0.4887 -0.1242
 3621TIP3    H232279   5.541   2.440   2.422 -0.2267  0.2064  0.3131
 3622TIP3   OH232280   1.462   6.630  13.596  0.0220  0.1972  0.1656
 3622TIP3    H132281   1.448   6.692  13.525  1.0047 -1.0701 -1.1837
 3622TIP3    H232282   1.540   6.661  13.641 -0.5674  0.9699  0.6623
 3623TIP3   OH232283   4.167   6.542   4.184  0.1261  0.4771 -0.2288
 3623TIP3    H132284   4.082   6.530   4.226 -0.9041  1.4195 -1.9300
 3623TIP3    H232285   4.220   6.586   4.250  0.0484 -2.0346  1.6435
 3624TIP3   OH232286   3.547   5.420   2.450 -0.6270 -0.4043  0.0030
 3624TIP3    H132287   3.456   5.394   2.438 -0.6895  0.6272 -2.4205
 3624TIP3    H232288   3.598   5.346   2.417 -0.6829  0.1476 -1.3776
 3625TIP3   OH232289   0.193   5.342   1.849 -0.7040 -0.0320  0.1555
 3625TIP3    H132290   0.113   5.370   1.892 -1.2903 -0.7827 -0.4294
 3625TIP3    H232291   0.167   5.325   1.758  0.4758  1.4252 -0.5077
 3626TIP3   OH232292   6.155   4.493   6.177  0.4483  0.2376  0.6755
 3626TIP3    H132293   6.145   4.588   6.188 -1.6057  0.0972  0.2605
 3626TIP3    H232294   6.108   4.455   6.251 -1.0165 -0.4712 -0.5643
 3627TIP3   OH232295   4.877   1.832   3.533  0.0173 -0.1803 -0.2081
 3627TIP3    H132296   4.866   1.738   3.522  1.3051 -0.3828  0.0863
 3627TIP3    H232297   4.789   1.868   3.521 -0.5357 -1.4380 -0.0874
 3628TIP3   OH232298   5.372   4.641  14.117 -0.3667  0.0676 -0.1768
 3628TIP3    H132299   5.311   4.574  14.145 -1.2494  1.0721  0.3730
 3628TIP3    H232300   5.338   4.671  14.032 -0.0174 -0.1313 -0.3875
 3629TIP3   OH232301   4.913   1.116   4.505 -0.2484 -0.4029 -0.0113
 3629TIP3    H132302   4.885   1.080   4.422 -0.1860 -2.5925  0.8561
 3629TIP3    H232303   4.861   1.070   4.571  1.4189 -0.5432  1.2969
 3630TIP3   OH232304   2.080   0.579  16.971  0.8826 -0.1192 -0.0714
 3630TIP3    H132305   2.122   0.517  17.031  2.6933  1.4727  0.3914
 3630TIP3    H232306   1.987   0.576  16.996  1.3936 -0.3400  2.0665
 3631TIP3   OH232307   4.077   2.599   5.963 -0.1372 -0.6980 -0.3081
 3631TIP3    H132308   3.999   2.634   5.921  0.4416 -1.0012 -1.6917
 3631TIP3    H232309   4.110   2.672   6.016 -0.4367 -0.0289 -1.0272
 3632TIP3   OH232310   6.635   5.642   0.906  0.4305  0.3239 -0.1131
 3632TIP3    H132311   6.553   5.666   0.861 -0.1789  0.2050  0.9008
 3632TIP3    H232312   6.669   5.726   0.938  1.5205  0.5746 -1.8243
 3633TIP3   OH232313   6.679   2.379  13.003  0.5284  0.1983  0.2183
 3633TIP3    H132314   6.723   2.307  13.048 -0.7254  0.3612  1.7865
 3633TIP3    H232315   6.748   2.443  12.988  1.1044 -0.0846  1.5000
 3634TIP3   OH232316   3.051   2.117  15.897  0.0289  0.6988 -0.0067
 3634TIP3    H132317   2.980   2.135  15.959 -1.3144 -1.0972 -0.9481
 3634TIP3    H232318   3.034   2.029  15.866  2.8909  0.0672 -0.0487
 3635TIP3   OH232319   1.241   6.273   1.239 -0.0330  0.2414  0.4673
 3635TIP3    H132320   1.158   6.226   1.249 -0.7021  1.3514  0.2580
 3635TIP3    H232321   1.230   6.352   1.292  0.6483  0.7078 -0.0781
 3636TIP3   OH232322   0.723   6.711  16.541 -0.0683  0.0549 -0.2622
 3636TIP3    H132323   0.649   6.732  16.483 -0.8215  1.1943  1.0421
 3636TIP3    H232324   0.800   6.744  16.494 -0.3864 -0.8177 -1.4730
 3637TIP3   OH232325   5.530   3.433  12.331  0.7003  0.3206 -0.2040
 3637TIP3    H132326   5.571   3.470  12.409 -2.0545  0.3033  1.4168
 3637TIP3    H232327   5.465   3.498  12.304  0.7321 -0.2307 -1.7340
 3638TIP3   OH232328   6.636   0.224  11.465 -0.2418 -0.4194 -0.8104
 3638TIP3    H132329   6.546   0.228  11.432 -0.5808  0.8367  0.1909
 3638TIP3    H232330   6.689   0.252  11.390 -0.8970  1.1135 -0.7528
 3639TIP3   OH232331   3.895   4.630  10.618  0.2096  1.0654  0.4955
 3639TIP3    H132332   3.824   4.635  10.682  0.5273  1.9214  0.8026
 3639TIP3    H232333   3.963   4.688  10.653  1.1266  0.1398  0.2862
 3640TIP3   OH232334   0.639   0.279  13.190  0.6226  0.3605  0.0547
 3640TIP3    H132335   0.666   0.346  13.253  2.3450 -0.9432  0.7820
 3640TIP3    H232336   0.717   0.227  13.175 -0.6075 -1.4038 -0.6119
 3641TIP3   OH232337   2.518   3.134   0.108 -0.2283 -0.2954  0.0098
 3641TIP3    H132338   2.511   3.076   0.184  0.9081  0.1586  0.4728
 3641TIP3    H232339   2.582   3.200   0.133 -1.4526  1.1694 -0.5194
 3642TIP3   OH232340   0.514   0.335  11.973 -0.3829 -0.8891  0.0838
 3642TIP3    H132341   0.443   0.358  11.913  0.7714 -0.8401 -1.3119
 3642TIP3    H232342   0.543   0.248  11.944  2.3983  0.4920 -1.7018
 3643TIP3   OH232343   2.765   2.175   0.792  0.2726 -0.0763  0.3408
 3643TIP3    H132344   2.796   2.171   0.882  0.5652  0.8648  0.2982
 3643TIP3    H232345   2.840   2.209   0.742 -0.2360  0.4845 -0.0646
 3644TIP3   OH232346   2.116   2.816  16.145  0.2076  0.5102 -0.0157
 3644TIP3    H132347   2.202   2.850  16.170  0.6627  0.1532 -1.0124
 3644TIP3    H232348   2.055   2.886  16.168  0.6890  0.5342  1.2252
 3645TIP3   OH232349   3.674   6.022  17.075  0.1357  0.6246  0.2217
 3645TIP3    H132350   3.763   6.017  17.111 -0.7261 -1.4363  2.3265
 3645TIP3    H232351   3.617   6.031  17.151 -1.6572 -1.8147 -0.6753
 3646TIP3   OH232352   6.290   6.680  13.645  0.5687  0.1634  0.2239
 3646TIP3    H132353   6.196   6.699  13.654  0.0320 -0.8921 -2.3446
 3646TIP3    H232354   6.297   6.587  13.663  0.9618  0.0508 -0.4858
 3647TIP3   OH232355   5.092   6.428   6.066 -0.1027  0.3151  0.5195
 3647TIP3    H132356   5.043   6.348   6.080 -0.2232 -0.1970 -2.2333
 3647TIP3    H232357   5.119   6.457   6.153 -0.6923 -2.2908  1.6252
 3648TIP3   OH232358   6.329   3.838  16.484  0.1516  0.3945  1.5148
 3648TIP3    H132359   6.235   3.826  16.495 -0.1193  0.0282 -0.8055
 3648TIP3    H232360   6.339   3.928  16.453  0.1292 -0.5829 -1.7040
 3649TIP3   OH232361   0.443   4.606   0.381  0.5269 -0.1363 -0.5009
 3649TIP3    H132362   0.435   4.518   0.418 -1.3670  0.2014 -0.0118
 3649TIP3    H232363   0.379   4.659   0.429 -0.1352  0.9402 -2.4441
 3650TIP3   OH232364   4.428   1.464  14.764  0.1314 -0.6006 -0.1520
 3650TIP3    H132365   4.482   1.534  14.801  0.1483  0.1112 -1.4399
 3650TIP3    H232366   4.345   1.470  14.811  0.6749 -0.7620  0.8460
 3651TIP3   OH232367   5.773   0.661   4.624  0.0707 -0.4350 -0.0017
 3651TIP3    H132368   5.816   0.732   4.577  2.8218 -0.7887  1.7677
 3651TIP3    H232369   5.709   0.703   4.680  0.1948  0.4205 -0.4911
 3652TIP3   OH232370   4.646   1.251   4.335  0.0620  0.1412  0.2987
 3652TIP3    H132371   4.698   1.285   4.408 -0.8528  3.0376 -0.2744
 3652TIP3    H232372   4.557   1.243   4.370 -0.3928  1.5876 -0.4178
 3653TIP3   OH232373   1.604   2.650  14.650 -0.4917  0.5296  0.2468
 3653TIP3    H132374   1.599   2.704  14.729 -2.1835  0.7348  0.0398
 3653TIP3    H232375   1.636   2.710  14.582 -0.9803  0.9058  0.3392
 3654TIP3   OH232376   3.290   3.125  16.126  0.2752 -0.3972  0.5319
 3654TIP3    H132377   3.334   3.050  16.086 -0.6615 -1.4382  1.3774
 3654TIP3    H232378   3.350   3.155  16.195  0.9501  0.0696 -0.2479
 3655TIP3   OH232379   6.424   6.083   2.038 -0.6344 -0.0424 -0.4654
 3655TIP3    H132380   6.503   6.137   2.040 -1.7629  1.7224 -1.3770
 3655TIP3    H232381   6.457   5.994   2.024  1.2650  0.3794  0.9181
 3656TIP3   OH232382   5.668   3.284  11.585 -0.9796  0.1647 -0.3196
 3656TIP3    H132383   5.724   3.207  11.577 -0.2988  0.5862  0.2703
 3656TIP3    H232384   5.675   3.328  11.500 -1.5601 -0.5422 -0.7382
 3657TIP3   OH232385   1.762   0.599  11.168  0.1729 -0.0591  0.0435
 3657TIP3    H132386   1.740   0.645  11.087 -1.2693 -0.4865  0.1664
 3657TIP3    H232387   1.815   0.525  11.140 -2.7776 -1.9817 -0.9495
 3658TIP3   OH232388   1.513   1.334  12.894 -0.3057  0.2542  0.2455
 3658TIP3    H132389   1.565   1.411  12.873 -0.1234  0.2407  0.6160
 3658TIP3    H232390   1.483   1.300  12.810 -0.1517  0.5673  0.0650
 3659TIP3   OH232391   5.745   0.981  12.676  0.1824 -0.0100  0.1749
 3659TIP3    H132392   5.723   0.973  12.583 -0.4560  0.8620  0.2400
 3659TIP3    H232393   5.821   0.923  12.688 -0.1717 -0.6773 -0.7276
 3660TIP3   OH232394   6.518   0.245   1.621 -0.2949  0.0567  0.0446
 3660TIP3    H132395   6.477   0.184   1.683  0.1394  1.1969  1.5077
 3660TIP3    H232396   6.576   0.190   1.569 -0.8809 -0.9860  0.4460
 3661TIP3   OH232397   3.549   2.182   6.049  0.0308  0.2351 -0.4952
 3661TIP3    H132398   3.639   2.154   6.069  0.8406  1.5555 -2.0089
 3661TIP3    H232399   3.494   2.114   6.087  1.7473 -1.8743 -1.5367
 3662TIP3   OH232400   1.143   6.131  13.439 -0.5485  0.4732  0.4030
 3662TIP3    H132401   1.126   6.219  13.473  1.2796  0.8383  0.4955
 3662TIP3    H232402   1.186   6.085  13.511  0.3745  0.1972 -0.2943
 3663TIP3   OH232403   5.635   4.104   2.989  0.0453 -0.8239  0.1719
 3663TIP3    H132404   5.562   4.072   3.043 -0.5646 -1.3695 -0.9312
 3663TIP3    H232405   5.687   4.158   3.049 -2.0022  0.7116  0.6813
 3664TIP3   OH232406   2.427   1.219   3.628  0.2181 -0.0343  0.2408
 3664TIP3    H132407   2.467   1.224   3.541 -0.6784  1.2356 -0.1101
 3664TIP3    H232408   2.386   1.132   3.630  2.0396 -0.9467  0.2193
 3665TIP3   OH232409   1.594   2.180  16.585  0.1061  0.3545 -0.4833
 3665TIP3    H132410   1.681   2.143  16.570  0.8630  0.0392  3.7001
 3665TIP3    H232411   1.610   2.272  16.605 -0.2738 -0.0280  1.7739
 3666TIP3   OH232412   2.020   4.977  13.401 -0.2831  0.2759  0.1728
 3666TIP3    H132413   1.942   5.014  13.361 -0.1956 -1.5750 -1.9261
 3666TIP3    H232414   2.059   4.923  13.332  0.4048 -2.4487  2.5102
 3667TIP3   OH232415   5.884   3.668   1.946 -0.3781  0.0322  0.1684
 3667TIP3    H132416   5.822   3.714   1.890  1.0015  3.2392  1.0448
 3667TIP3    H232417   5.846   3.673   2.034 -0.8906 -1.8941  0.0901
 3668TIP3   OH232418   5.094   4.208  11.127 -0.4557 -0.2450  0.3221
 3668TIP3    H132419   5.026   4.274  11.140  0.3672  0.2439  2.4441
 3668TIP3    H232420   5.050   4.125  11.144 -0.7152  0.0037  0.8781
 3669TIP3   OH232421   4.164   6.175   6.992  0.4714  0.6162  0.4020
 3669TIP3    H132422   4.214   6.207   6.917  1.2741 -0.4929  0.4336
 3669TIP3    H232423   4.072   6.178   6.963  0.7272  0.7269 -0.4247
 3670TIP3   OH232424   4.132   1.924   0.419 -0.8896  0.5467 -0.2620
 3670TIP3    H132425   4.143   1.842   0.371 -1.2945  0.6448 -0.5341
 3670TIP3    H232426   4.169   1.991   0.361 -1.2705  0.6502 -0.3925
 3671TIP3   OH232427   4.779   2.128  12.586 -0.0755 -0.1561  0.5370
 3671TIP3    H132428   4.796   2.066  12.516 -3.1134  0.0094 -0.4747
 3671TIP3    H232429   4.753   2.073  12.661 -0.1064 -0.2199  0.4792
 3672TIP3   OH232430   0.467   3.147   3.629 -0.6109 -0.3138 -0.2802
 3672TIP3    H132431   0.471   3.236   3.592 -1.2813  0.0502  0.4817
 3672TIP3    H232432   0.379   3.116   3.607 -1.1085 -0.0067  1.1389
 3673TIP3   OH232433   6.479   4.268  14.743  0.1378 -0.2094  0.1425
 3673TIP3    H132434   6.537   4.322  14.690 -0.9971  0.2943 -0.6108
 3673TIP3    H232435   6.483   4.181  14.702 -0.1215 -0.0222 -0.2767
 3674TIP3   OH232436   4.829   3.053  12.128 -0.0338  0.2094  0.5683
 3674TIP3    H132437   4.747   3.102  12.133 -1.1017 -1.4050 -0.1136
 3674TIP3    H232438   4.885   3.106  12.071 -2.4655 -0.9607 -3.2815
 3675TIP3   OH232439   3.871   6.708  12.433 -0.0996 -0.4717 -0.1758
 3675TIP3    H132440   3.828   6.793  12.442  1.6877  0.3495  1.4040
 3675TIP3    H232441   3.872   6.672  12.521  3.0416 -0.0330  0.1100
 3676TIP3   OH232442   4.172   3.764   2.610  0.8345  0.4386  0.3155
 3676TIP3    H132443   4.206   3.846   2.575  0.7235  0.1642 -0.4388
 3676TIP3    H232444   4.249   3.712   2.630  1.0591  1.7779  3.4884
 3677TIP3   OH232445   4.746   0.993   4.936 -0.1285  0.0316  0.2639
 3677TIP3    H132446   4.801   0.922   4.902  0.2276  0.3039  0.2666
 3677TIP3    H232447   4.806   1.048   4.987 -0.4862  0.1065  0.6087
 3678TIP3   OH232448   5.076   0.384   2.613  0.4120  0.1948 -0.5346
 3678TIP3    H132449   5.065   0.395   2.519  0.7582 -0.0638 -0.6085
 3678TIP3    H232450   5.014   0.444   2.652 -0.0336 -0.0021 -0.9331
 3679TIP3   OH232451   5.341   5.377  14.415  0.6171  0.5344 -0.6079
 3679TIP3    H132452   5.386   5.451  14.374  1.3091  0.5971  0.2323
 3679TIP3    H232453   5.253   5.409  14.433  0.8716  1.1162 -0.3675
 3680TIP3   OH232454   4.766   6.174  13.933  0.5618  0.3233  0.3021
 3680TIP3    H132455   4.724   6.227  14.001  2.2314  2.2946 -0.1241
 3680TIP3    H232456   4.694   6.146  13.877 -0.6827 -0.1864  2.0450
 3681TIP3   OH232457   3.085   3.803   1.839  0.2947 -0.0749 -0.5203
 3681TIP3    H132458   3.162   3.776   1.890  1.3250  1.7397 -1.0149
 3681TIP3    H232459   3.091   3.752   1.758  1.3184  0.4235 -0.7808
 3682TIP3   OH232460   0.761   5.736   3.799 -0.3151 -0.5670 -0.2594
 3682TIP3    H132461   0.674   5.774   3.782  0.4346  2.1947  1.3662
 3682TIP3    H232462   0.746   5.672   3.869 -0.9183  1.0620  1.1936
 3683TIP3   OH232463   6.373   0.135   6.021 -0.5119  0.0608  0.4521
 3683TIP3    H132464   6.448   0.102   6.071  0.0751 -1.0676 -1.0802
 3683TIP3    H232465   6.394   0.226   6.002  0.4010 -0.1893  0.2039
 3684TIP3   OH232466   0.424   2.154  14.048  1.2840 -0.3857  0.2954
 3684TIP3    H132467   0.420   2.159  14.143  2.3913  1.2657  0.3107
 3684TIP3    H232468   0.371   2.078  14.025  0.5046 -0.4620  2.1797
 3685TIP3   OH232469   3.101   0.083   5.006 -0.1547 -0.0331 -0.4813
 3685TIP3    H132470   3.131  -0.007   5.002 -1.2305 -0.4844  0.8774
 3685TIP3    H232471   3.017   0.083   4.961  0.1783  0.4502 -1.1113
 3686TIP3   OH232472   3.370   6.327  16.158  0.4144  0.0628 -0.0765
 3686TIP3    H132473   3.462   6.309  16.138  0.4125  0.2442 -0.2567
 3686TIP3    H232474   3.371   6.360  16.247  0.4441 -0.5846  0.1655
 3687TIP3   OH232475   2.139   6.474   0.648  0.1072 -0.6347  0.4375
 3687TIP3    H132476   2.115   6.462   0.739 -0.4400 -2.6626  0.0843
 3687TIP3    H232477   2.232   6.452   0.645 -0.1559 -1.8076  0.3359
 3688TIP3   OH232478   5.524   3.752   3.016 -0.2296 -0.1998 -0.2694
 3688TIP3    H132479   5.470   3.689   3.065 -1.9577  0.3411 -1.3950
 3688TIP3    H232480   5.614   3.728   3.038 -0.8992 -0.9190  1.9685
 3689TIP3   OH232481   4.146   6.433   1.229  0.2026  0.4431  0.1362
 3689TIP3    H132482   4.217   6.377   1.197  1.8982  1.3849  1.9467
 3689TIP3    H232483   4.087   6.443   1.155  0.8810 -2.0573 -0.8457
 3690TIP3   OH232484   1.156   5.724  14.991  0.1446  0.3117  0.0674
 3690TIP3    H132485   1.220   5.794  15.002  0.4365 -0.0270  0.5458
 3690TIP3    H232486   1.087   5.743  15.054  0.3656  0.0162  0.4049
 3691TIP3   OH232487   4.244   5.827  16.583  0.2702  0.2702  0.5237
 3691TIP3    H132488   4.196   5.747  16.605  0.3260  0.0593 -0.1017
 3691TIP3    H232489   4.261   5.820  16.489  2.3026 -0.0889  0.8767
 3692TIP3   OH232490   4.727   2.796   0.903 -0.3717 -0.0626 -0.8951
 3692TIP3    H132491   4.735   2.889   0.881 -0.2346  0.5731  1.5652
 3692TIP3    H232492   4.676   2.759   0.831 -0.1791  1.8419 -2.0874
 3693TIP3   OH232493   2.528   2.396  13.158  0.6103 -0.5318 -0.0725
 3693TIP3    H132494   2.609   2.358  13.123  0.2172 -1.6752  0.1950
 3693TIP3    H232495   2.556   2.449  13.232  1.3871  1.3859 -1.6432
 3694TIP3   OH232496   3.318   4.597   1.242 -0.4018 -0.3909  0.0428
 3694TIP3    H132497   3.408   4.628   1.255 -0.9899  0.8818  1.3327
 3694TIP3    H232498   3.322   4.549   1.159  1.0567  1.3015 -0.9543
 3695TIP3   OH232499   0.090   0.204  11.728 -0.2683  0.2803  0.4618
 3695TIP3    H132500   0.007   0.173  11.692 -0.1210  0.7470 -0.3066
 3695TIP3    H232501   0.088   0.178  11.820 -2.7276  3.1106  1.3775
 3696TIP3   OH232502   3.237   5.809   5.532 -0.7777  0.3587  0.2120
 3696TIP3    H132503   3.156   5.766   5.560 -1.6027  1.2384 -0.7135
 3696TIP3    H232504   3.281   5.833   5.613 -0.8949 -1.1089  0.7367
 3697TIP3   OH232505   0.918   1.288  13.208  0.1928 -0.4486 -0.4451
 3697TIP3    H132506   0.867   1.299  13.127  0.3863 -0.7553 -0.6128
 3697TIP3    H232507   0.869   1.336  13.274 -0.9397 -1.7077 -0.3363
 3698TIP3   OH232508   6.606   1.768   0.910  0.0417  0.0108 -0.5885
 3698TIP3    H132509   6.646   1.840   0.959  0.9471  0.0212 -1.3223
 3698TIP3    H232510   6.675   1.737   0.851 -0.8409 -0.3767 -1.4551
 3699TIP3   OH232511   5.163   5.624   4.355  0.7068  0.1606 -0.7489
 3699TIP3    H132512   5.146   5.718   4.350 -1.1424  0.0385  1.2732
 3699TIP3    H232513   5.223   5.614   4.429  0.5063 -0.2765 -0.6396
 3700TIP3   OH232514   4.050   3.740   5.686 -0.1770  0.4930 -0.2085
 3700TIP3    H132515   4.015   3.765   5.772 -1.2572  1.1244 -0.8068
 3700TIP3    H232516   4.102   3.816   5.659  1.5045 -0.3239  0.5444
 3701TIP3   OH232517   3.857   0.759  11.446 -0.6369 -0.0355 -0.3082
 3701TIP3    H132518   3.847   0.726  11.357 -2.1647  0.8867 -0.5182
 3701TIP3    H232519   3.950   0.752  11.464 -0.0885  0.9168 -2.4476
 3702TIP3   OH232520   2.615   2.827  14.584 -0.0363 -0.5539  0.6798
 3702TIP3    H132521   2.659   2.790  14.661  0.5368 -1.6473 -0.1394
 3702TIP3    H232522   2.521   2.813  14.602  0.1088 -1.1912  0.9991
 3703TIP3   OH232523   1.321   5.618   5.341 -0.0164  0.0495 -0.1972
 3703TIP3    H132524   1.391   5.683   5.348 -0.8882  0.9471  0.3604
 3703TIP3    H232525   1.346   5.550   5.404 -1.5851  2.2651  3.0830
 3704TIP3   OH232526   2.368   3.824   4.089  0.3177  0.2190 -0.6524
 3704TIP3    H132527   2.369   3.739   4.046  0.1752  0.3737 -0.9603
 3704TIP3    H232528   2.426   3.813   4.165  0.0310 -0.2514 -0.4948
 3705TIP3   OH232529   5.961   3.592  10.647  0.0836 -0.0132  0.2388
 3705TIP3    H132530   5.868   3.607  10.635 -0.4240  0.5782  3.8290
 3705TIP3    H232531   6.004   3.662  10.598 -1.4594  0.8131  0.0242
 3706TIP3   OH232532   2.436   4.647   4.639  0.2939 -0.2265 -0.0419
 3706TIP3    H132533   2.432   4.572   4.697  0.8782 -0.9923 -0.9625
 3706TIP3    H232534   2.461   4.720   4.695  4.5226 -1.5960  0.1541
 3707TIP3   OH232535   6.394   4.750   1.888 -0.1212  0.1712  0.5036
 3707TIP3    H132536   6.342   4.670   1.896 -0.7000  0.0613 -2.9445
 3707TIP3    H232537   6.477   4.722   1.849 -0.2983  1.2009 -0.6727
 3708TIP3   OH232538   4.398   1.511  13.012 -0.1494 -0.0914 -0.4773
 3708TIP3    H132539   4.458   1.445  12.978 -0.8369 -1.1567  0.3385
 3708TIP3    H232540   4.426   1.526  13.102  0.6779  1.5701 -0.9546
 3709TIP3   OH232541   0.107   6.716   3.861  0.1603 -0.4686  0.6034
 3709TIP3    H132542   0.161   6.768   3.801 -0.8166  1.3911  1.2649
 3709TIP3    H232543   0.049   6.666   3.804  0.5564 -0.2182 -0.0366
 3710TIP3   OH232544   3.321   4.140  15.010  1.1344 -0.0280 -0.2585
 3710TIP3    H132545   3.281   4.054  15.007 -1.8312  1.2439 -0.9765
 3710TIP3    H232546   3.331   4.166  14.918  1.4271  0.6373 -0.0521
 3711TIP3   OH232547   5.929   6.725   3.071  0.4065  0.0523 -0.0891
 3711TIP3    H132548   5.974   6.692   3.149  1.4560  1.3359 -0.1018
 3711TIP3    H232549   5.837   6.726   3.095  0.6241 -0.4418  0.8092
 3712TIP3   OH232550   2.349   2.285   1.691 -0.4680 -0.5379  0.0437
 3712TIP3    H132551   2.381   2.199   1.718  0.9580  0.0401  0.2825
 3712TIP3    H232552   2.344   2.336   1.772 -2.5323 -0.7233  0.1012
 3713TIP3   OH232553   0.778   4.211  13.276 -0.1116 -0.4543  0.9511
 3713TIP3    H132554   0.743   4.157  13.206  0.5474  0.3624 -0.0451
 3713TIP3    H232555   0.871   4.221  13.255  0.0272  0.0858  1.7553
 3714TIP3   OH232556   5.705   2.935  10.875  0.4601 -0.1581 -0.1255
 3714TIP3    H132557   5.698   2.846  10.910  0.4972 -0.0590  0.1357
 3714TIP3    H232558   5.633   2.942  10.812  0.2189 -0.2456  0.1360
 3715TIP3   OH232559   2.529   0.207  12.404 -0.7574 -0.2928 -0.0450
 3715TIP3    H132560   2.524   0.295  12.366  0.7567 -1.2659 -2.7259
 3715TIP3    H232561   2.454   0.161  12.367  0.3379 -1.0469 -1.4240
 3716TIP3   OH232562   5.921   4.085   0.785  0.0522  0.1135 -0.3119
 3716TIP3    H132563   5.871   4.062   0.864 -0.5086  1.8180 -0.1345
 3716TIP3    H232564   5.996   4.135   0.818  0.5255 -0.2717 -0.7819
 3717TIP3   OH232565   6.004   4.433  14.239  0.2554 -0.0999 -0.7048
 3717TIP3    H132566   5.994   4.393  14.325 -0.1031  0.3670 -0.5290
 3717TIP3    H232567   6.039   4.362  14.184  0.8262 -0.3036 -0.0999
 3718TIP3   OH232568   1.151   1.324  12.254  0.0189  0.1636  0.3770
 3718TIP3    H132569   1.243   1.321  12.280  0.2746 -0.9623 -0.5660
 3718TIP3    H232570   1.146   1.267  12.177 -1.0352  1.9963 -0.9708
 3719TIP3   OH232571   5.453   1.547   5.485 -0.9990  0.3796 -0.9103
 3719TIP3    H132572   5.415   1.460   5.495 -1.0212  0.3669 -1.1100
 3719TIP3    H232573   5.448   1.565   5.391 -1.5801  0.8595 -0.7943
 3720TIP3   OH232574   3.787   0.513  16.858 -0.6920  0.4416 -0.4886
 3720TIP3    H132575   3.787   0.455  16.935  1.8166 -0.0943 -0.8064
 3720TIP3    H232576   3.741   0.463  16.790 -0.6659 -0.1703 -0.0665
 3721TIP3   OH232577   2.266   5.319  14.403 -0.0796  0.2673 -0.3182
 3721TIP3    H132578   2.232   5.409  14.405  2.9794  1.5557  1.4341
 3721TIP3    H232579   2.315   5.314  14.321 -0.8365 -0.0760 -0.7571
 3722TIP3   OH232580   2.491   3.252   1.819  0.1044  0.1527  0.8137
 3722TIP3    H132581   2.437   3.234   1.742  1.8042 -1.3213 -0.1276
 3722TIP3    H232582   2.479   3.345   1.836 -2.5431 -0.0785  0.5620
 3723TIP3   OH232583   2.831   3.184   1.398  0.0415 -0.2106 -0.1810
 3723TIP3    H132584   2.826   3.202   1.492 -2.0318 -0.9987 -0.1017
 3723TIP3    H232585   2.809   3.267   1.356  2.3051  0.5304 -0.0638
 3724TIP3   OH232586   0.614   4.142  15.583 -0.5090 -0.0866 -0.2594
 3724TIP3    H132587   0.552   4.211  15.558 -1.7545 -0.8593  0.5492
 3724TIP3    H232588   0.657   4.118  15.501  0.0944  1.7543 -0.5275
 3725TIP3   OH232589   5.490   0.105  15.165 -0.3287  0.0225  0.2969
 3725TIP3    H132590   5.425   0.041  15.194  0.2021 -0.0678  1.3352
 3725TIP3    H232591   5.549   0.114  15.239  1.2630 -0.4280 -0.8630
 3726TIP3   OH232592   3.026   3.228   3.051 -0.7918 -0.5871 -0.1348
 3726TIP3    H132593   2.968   3.208   2.977 -1.6882 -0.4217  0.5130
 3726TIP3    H232594   3.094   3.160   3.046 -1.0014 -0.7533 -0.9368
 3727TIP3   OH232595   3.817   5.069  11.908 -0.5086 -0.0841 -0.1238
 3727TIP3    H132596   3.753   4.999  11.902  0.8679 -1.3233 -1.1641
 3727TIP3    H232597   3.770   5.147  11.878 -1.7450 -0.7883 -0.0802
 3728TIP3   OH232598   4.370   4.762  14.277  0.1053 -0.1200 -0.0893
 3728TIP3    H132599   4.321   4.736  14.200 -1.2490  2.1036 -0.0759
 3728TIP3    H232600   4.428   4.832  14.246  0.1622  0.2125  0.7409
 3729TIP3   OH232601   6.121   2.627  15.058  0.6763 -0.2218 -0.1894
 3729TIP3    H132602   6.051   2.575  15.098 -0.1108  0.1783 -1.0194
 3729TIP3    H232603   6.085   2.655  14.974  1.1834  1.4165  0.1025
 3730TIP3   OH232604   0.703   2.405   0.519 -0.9559  0.1095 -0.1011
 3730TIP3    H132605   0.761   2.413   0.443 -2.0546  2.5988 -0.8028
 3730TIP3    H232606   0.669   2.316   0.515  0.8156 -0.5612 -1.1477
 3731TIP3   OH232607   1.033   0.973   1.064  0.2312  0.1660 -0.0795
 3731TIP3    H132608   1.071   1.035   1.126 -3.4330  0.5421  2.1392
 3731TIP3    H232609   1.078   0.890   1.081  1.7393  1.0841  0.5269
 3732TIP3   OH232610   0.853   0.412  12.350 -0.3251 -0.0322  0.3576
 3732TIP3    H132611   0.891   0.344  12.295 -0.9020 -0.6260  0.6708
 3732TIP3    H232612   0.920   0.480  12.354 -0.5294  0.3511 -1.6403
 3733TIP3   OH232613   5.749   2.336   1.177 -0.3774  0.0390  0.4789
 3733TIP3    H132614   5.738   2.426   1.209 -2.9758 -0.3637  0.9724
 3733TIP3    H232615   5.786   2.289   1.252 -0.2575  0.4258  0.6701
 3734TIP3   OH232616   0.121   2.458   1.078  0.2088 -0.4766 -1.0138
 3734TIP3    H132617   0.064   2.444   1.154  1.5322 -1.2801 -0.1166
 3734TIP3    H232618   0.208   2.472   1.116  0.5972  0.9012 -2.3272
 3735TIP3   OH232619   1.519   1.043   5.507  0.0763  0.0212 -0.6581
 3735TIP3    H132620   1.563   1.076   5.428  1.6315  1.3760  0.7113
 3735TIP3    H232621   1.431   1.081   5.503  1.2026  2.8809 -0.0995
 3736TIP3   OH232622   2.652   4.150   4.844 -0.3034  0.3909  0.0338
 3736TIP3    H132623   2.653   4.226   4.786  0.0176  0.5243  0.2154
 3736TIP3    H232624   2.727   4.098   4.817 -1.4205 -0.6616 -1.1474
 3737TIP3   OH232625   6.368   5.365   1.663  0.1367  1.3122  0.9056
 3737TIP3    H132626   6.405   5.286   1.626 -0.4260  1.6243 -0.3701
 3737TIP3    H232627   6.373   5.352   1.758  2.2463  0.7905  0.7719
 3738TIP3   OH232628   4.148   0.262  13.564 -0.2297 -0.1959  0.0315
 3738TIP3    H132629   4.154   0.351  13.600 -0.4427  0.9814 -2.5429
 3738TIP3    H232630   4.232   0.249  13.520 -0.6421 -0.7687 -0.6048
 3739TIP3   OH232631   5.573   0.070   2.978 -0.2263  0.0323  0.2973
 3739TIP3    H132632   5.580   0.137   2.909 -0.0509 -0.8850 -0.6001
 3739TIP3    H232633   5.573  -0.013   2.931 -2.8642 -0.5886  1.1940
 3740TIP3   OH232634   0.870   3.996  12.878  0.3817  0.4768 -0.4501
 3740TIP3    H132635   0.785   4.019  12.839  0.0885 -0.0683 -0.1482
 3740TIP3    H232636   0.848   3.935  12.949  1.1021 -0.4647 -1.0056
 3741TIP3   OH232637   0.136   6.309   3.851 -0.0001  0.0723 -0.2497
 3741TIP3    H132638   0.098   6.224   3.875 -2.1094  1.6329  2.4548
 3741TIP3    H232639   0.072   6.348   3.791  0.5934  0.0964 -0.8792
 3742TIP3   OH232640   0.599   2.759  11.437 -0.6405  0.1183 -0.3955
 3742TIP3    H132641   0.620   2.689  11.498 -1.0635  0.8508  0.6187
 3742TIP3    H232642   0.520   2.799  11.472 -0.1472  1.4065 -0.6733
 3743TIP3   OH232643   1.901   3.701   5.981  0.2183  0.1728  0.3493
 3743TIP3    H132644   1.835   3.770   5.979 -0.9840 -0.9159  0.6796
 3743TIP3    H232645   1.860   3.628   5.935  1.5128 -0.2864 -0.1131
 3744TIP3   OH232646   6.280   2.871  12.167 -0.1744 -0.0740  0.3169
 3744TIP3    H132647   6.299   2.849  12.076  0.6209 -1.6120  0.8208
 3744TIP3    H232648   6.353   2.835  12.217 -0.4679  0.9611  1.5555
 3745TIP3   OH232649   5.739   4.591  14.977 -0.7273  0.0065  0.6415
 3745TIP3    H132650   5.810   4.654  14.990 -2.5975  1.8585  2.7942
 3745TIP3    H232651   5.699   4.582  15.063 -1.7470 -2.7305 -0.0105
 3746TIP3   OH232652   0.112   5.109  14.347 -0.0148 -0.2761 -0.0991
 3746TIP3    H132653   0.172   5.152  14.408  0.8416  1.0839 -1.8446
 3746TIP3    H232654   0.042   5.075  14.403  0.3032  1.6424  1.5761
 3747TIP3   OH232655   5.057   0.442   2.343 -0.5645  0.4686  0.1408
 3747TIP3    H132656   4.971   0.462   2.306 -0.5980  0.8486  0.4222
 3747TIP3    H232657   5.080   0.357   2.305  0.6387  2.0062 -2.9284
 3748TIP3   OH232658   4.162   2.200   3.005  0.1379 -0.1222  0.0864
 3748TIP3    H132659   4.117   2.196   2.921  1.0901 -0.1504 -0.4300
 3748TIP3    H232660   4.138   2.118   3.049  3.2480 -2.4178 -2.0655
 3749TIP3   OH232661   3.564   6.446  11.630 -0.0246 -0.3863 -0.2440
 3749TIP3    H132662   3.551   6.351  11.630 -0.4188 -0.3429 -1.2941
 3749TIP3    H232663   3.511   6.477  11.704 -0.8977 -0.8609 -0.6555
 3750TIP3   OH232664   1.694   4.481   3.343 -0.1317  0.4321 -0.1673
 3750TIP3    H132665   1.779   4.505   3.306  0.4011 -0.0592  0.6937
 3750TIP3    H232666   1.646   4.564   3.346 -0.0284  0.5563 -1.4998
 3751TIP3   OH232667   3.635   3.630  16.785 -0.0415 -0.4889  0.1843
 3751TIP3    H132668   3.662   3.609  16.875  0.6563  1.9033  0.6140
 3751TIP3    H232669   3.686   3.571  16.730  1.7717 -0.0252  1.2708
 3752TIP3   OH232670   5.606   1.471  12.938  0.4051  0.1326  0.2629
 3752TIP3    H132671   5.557   1.507  12.863  3.7467  0.8501 -1.8155
 3752TIP3    H232672   5.584   1.378  12.939 -2.0929  0.6569  0.4560
 3753TIP3   OH232673   2.419   3.710  14.330  0.5253 -0.2908 -0.0476
 3753TIP3    H132674   2.360   3.721  14.404  0.2861 -3.0184  0.2649
 3753TIP3    H232675   2.504   3.739  14.362  0.0884  0.1983  0.6982
 3754TIP3   OH232676   5.830   3.849  12.702 -0.2914 -0.2777  0.3745
 3754TIP3    H132677   5.888   3.851  12.777  0.0009 -0.3836  0.1523
 3754TIP3    H232678   5.758   3.791  12.728  0.6462 -1.6650 -0.0337
 3755TIP3   OH232679   0.548   0.014   3.350  0.3805 -0.2167 -0.3655
 3755TIP3    H132680   0.553   0.039   3.442  0.5785 -0.3870 -0.3270
 3755TIP3    H232681   0.638   0.026   3.318  0.4336 -0.6709 -0.3953
 3756TIP3   OH232682   4.975   1.430   4.124  0.1549  0.2238  0.1204
 3756TIP3    H132683   4.948   1.521   4.105 -1.4945  0.0662  1.4404
 3756TIP3    H232684   5.069   1.435   4.137  0.2986  1.5089 -1.1569
 3757TIP3   OH232685   3.215   2.161   5.838  0.3446  0.1213  0.0623
 3757TIP3    H132686   3.298   2.200   5.809  0.8457  0.3295  1.6887
 3757TIP3    H232687   3.155   2.235   5.844 -0.5993 -0.2642 -2.9818
 3758TIP3   OH232688   3.805   1.761  15.533  0.3752  0.3554  0.0838
 3758TIP3    H132689   3.794   1.673  15.498 -0.9906  0.7368 -0.5402
 3758TIP3    H232690   3.899   1.771  15.545  0.6213 -0.8728 -0.6556
 3759TIP3   OH232691   0.276   5.705  15.887 -0.0435 -0.5498 -0.2571
 3759TIP3    H132692   0.327   5.720  15.807  1.4586  1.8378  1.0305
 3759TIP3    H232693   0.325   5.751  15.955 -1.7680 -1.7292  1.8838
 3760TIP3   OH232694   5.546   2.682   0.455  0.0627 -0.4628 -0.6483
 3760TIP3    H132695   5.630   2.723   0.432 -0.6263  0.4935 -1.5250
 3760TIP3    H232696   5.545   2.683   0.550 -0.3019  2.4662 -0.5781
 3761TIP3   OH232697   3.605   5.429   2.706 -0.3769 -0.0299 -0.1593
 3761TIP3    H132698   3.601   5.471   2.620  0.2777  0.1470 -0.1154
 3761TIP3    H232699   3.515   5.404   2.725 -0.9188  1.8558  0.0527
 3762TIP3   OH232700   4.523   2.268  15.412  0.6548  0.5093 -0.6438
 3762TIP3    H132701   4.593   2.210  15.384 -1.5234 -1.8986 -1.4564
 3762TIP3    H232702   4.484   2.300  15.331 -0.9283 -0.4399 -0.2896
 3763TIP3   OH232703   1.769   4.769   5.677 -0.4663  0.5044  0.3086
 3763TIP3    H132704   1.708   4.701   5.704  1.0755 -1.1818 -0.1878
 3763TIP3    H232705   1.775   4.759   5.581 -0.9140  1.9869  0.1008
 3764TIP3   OH232706   5.093   0.876   3.381  0.4961 -0.5170  0.3523
 3764TIP3    H132707   5.142   0.795   3.368  1.2882 -0.2510  1.5278
 3764TIP3    H232708   5.013   0.848   3.427  1.3751 -0.5039  1.9462
 3765TIP3   OH232709   3.858   0.996   2.984  0.0108  0.1197  0.1731
 3765TIP3    H132710   3.764   0.999   3.001 -0.0954  1.6045 -0.4480
 3765TIP3    H232711   3.883   0.905   2.998 -0.4811  0.5208  5.6119
 3766TIP3   OH232712   6.079   6.255  11.512 -0.0614 -0.3159  0.1592
 3766TIP3    H132713   6.033   6.218  11.437  0.7578 -1.1834  0.0729
 3766TIP3    H232714   6.016   6.250  11.584 -0.3171 -0.9258 -0.1008
 3767TIP3   OH232715   5.321   5.802   3.991  0.4513  0.2177  0.6176
 3767TIP3    H132716   5.264   5.727   3.999  0.9996 -0.2156  0.5218
 3767TIP3    H232717   5.292   5.863   4.059 -0.6598  0.3698  0.0310
 3768TIP3   OH232718   1.258   4.036   0.193 -0.3129  0.2530  0.0013
 3768TIP3    H132719   1.210   4.118   0.179 -2.4827 -0.9556 -0.1832
 3768TIP3    H232720   1.218   3.974   0.131 -0.1417 -1.4658  1.5232
 3769TIP3   OH232721   6.271   3.302   3.244  0.8377 -0.1439  0.1480
 3769TIP3    H132722   6.267   3.239   3.171 -0.8695  0.1598 -0.0661
 3769TIP3    H232723   6.361   3.295   3.276  1.7934  0.0201 -2.2538
 3770TIP3   OH232724   2.642   5.356  10.715 -0.0053 -0.1308 -0.2280
 3770TIP3    H132725   2.654   5.314  10.800 -0.0754  0.4141  0.0555
 3770TIP3    H232726   2.638   5.449  10.735  0.0724  0.0063 -0.8422
 3771TIP3   OH232727   0.826   3.890  11.650 -0.3809  0.8679 -0.4408
 3771TIP3    H132728   0.869   3.872  11.567 -1.1090 -0.6562 -0.5148
 3771TIP3    H232729   0.760   3.957  11.629 -0.8866  0.1494 -1.2057
 3772TIP3   OH232730   2.217   5.234   5.050 -0.5039  0.3194  0.0856
 3772TIP3    H132731   2.291   5.288   5.077  2.4168 -3.0668 -0.3572
 3772TIP3    H232732   2.173   5.211   5.132 -0.4780  1.5378  0.4633
 3773TIP3   OH232733   3.769   2.432   1.834  1.1267 -0.6911 -0.2188
 3773TIP3    H132734   3.846   2.403   1.785  1.2822  0.0313 -0.4064
 3773TIP3    H232735   3.721   2.487   1.773  0.1395 -1.6131 -0.3024
 3774TIP3   OH232736   1.403   4.571  17.102 -0.1274 -0.5350  0.1632
 3774TIP3    H132737   1.469   4.506  17.075  0.5116 -0.1660  0.8093
 3774TIP3    H232738   1.414   4.643  17.040  1.2794  0.2738  1.3057
 3775TIP3   OH232739   0.621   1.682  12.828  0.1043 -0.1442  0.5311
 3775TIP3    H132740   0.685   1.656  12.762  0.0237  0.2734  0.2794
 3775TIP3    H232741   0.609   1.776  12.813 -0.5596 -0.2168  0.5754
 3776TIP3   OH232742   2.324   4.902   5.851 -0.3338  0.4171  0.2677
 3776TIP3    H132743   2.265   4.962   5.896 -1.0425  0.0645 -0.1748
 3776TIP3    H232744   2.372   4.858   5.922 -1.5661 -0.2715  0.7025
 3777TIP3   OH232745   4.058   5.721   6.104  0.4569 -0.1141 -0.4529
 3777TIP3    H132746   4.006   5.699   6.027  1.0831  0.7263 -1.1401
 3777TIP3    H232747   4.062   5.817   6.104  0.5161 -0.0960  0.6060
 3778TIP3   OH232748   2.828   5.464  12.715 -0.1147 -0.0567  0.1255
 3778TIP3    H132749   2.802   5.481  12.806 -1.3843 -0.4741 -0.1345
 3778TIP3    H232750   2.909   5.414  12.723 -0.2258 -0.1209  1.0393
 3779TIP3   OH232751   4.265   2.425  12.057  0.3589  0.1008 -0.0579
 3779TIP3    H132752   4.212   2.498  12.024  0.8429 -0.1416 -1.4386
 3779TIP3    H232753   4.275   2.443  12.151  1.9515  2.7780 -0.6384
 3780TIP3   OH232754   1.784   1.844   1.541  0.2336  0.4063  0.1559
 3780TIP3    H132755   1.834   1.923   1.520  0.9764  0.2778  1.3839
 3780TIP3    H232756   1.805   1.783   1.470  2.5497  0.0498  1.0696
 3781TIP3   OH232757   5.014   5.884   1.746 -0.1515  0.0084  0.0448
 3781TIP3    H132758   5.094   5.928   1.776 -0.6859  1.1472 -0.1744
 3781TIP3    H232759   4.951   5.898   1.816  0.0309 -1.5408  0.5617
 3782TIP3   OH232760   0.733   4.436   2.197  0.2203 -0.5933  0.3032
 3782TIP3    H132761   0.673   4.387   2.253 -1.6330  1.4764  0.2521
 3782TIP3    H232762   0.820   4.417   2.233 -0.6369 -1.8826  1.8239
 3783TIP3   OH232763   2.648   5.280   5.691  0.5471 -0.0254  0.5007
 3783TIP3    H132764   2.567   5.288   5.740  1.2346  0.6379  1.5635
 3783TIP3    H232765   2.652   5.188   5.664  0.9992 -0.8651  3.2088
 3784TIP3   OH232766   6.220   6.235  16.451 -0.1016 -0.2898  0.0286
 3784TIP3    H132767   6.182   6.322  16.439  0.9455  0.0851 -0.7618
 3784TIP3    H232768   6.311   6.252  16.474  0.3885 -1.1736 -1.1436
 3785TIP3   OH232769   5.628   4.123  10.512 -0.4273 -0.5272  0.5095
 3785TIP3    H132770   5.620   4.179  10.434 -0.8075 -0.7350  0.3971
 3785TIP3    H232771   5.695   4.166  10.565  1.1530 -1.3229 -0.7441
 3786TIP3   OH232772   3.834   3.784   1.381 -0.7612 -0.5984  0.6410
 3786TIP3    H132773   3.752   3.827   1.353 -1.0059 -2.3029 -1.5351
 3786TIP3    H232774   3.827   3.695   1.347  2.5763 -0.4319 -0.8519
 3787TIP3   OH232775   2.023   0.640  13.912  0.2889  0.1862  0.2122
 3787TIP3    H132776   2.089   0.578  13.943 -1.9724 -2.4421  0.2365
 3787TIP3    H232777   2.041   0.651  13.819  0.0149 -1.6387 -0.1003
 3788TIP3   OH232778   4.604   1.760  15.168 -0.3911  0.2070 -0.1138
 3788TIP3    H132779   4.642   1.686  15.216  0.3522  0.5035 -0.2327
 3788TIP3    H232780   4.675   1.823  15.161 -0.9839  0.8773 -0.1448
 3789TIP3   OH232781   0.127   2.580  13.674 -0.7043 -0.2019 -0.4097
 3789TIP3    H132782   0.184   2.552  13.602  0.7963 -0.9192  0.9835
 3789TIP3    H232783   0.075   2.651  13.637  2.9753  2.3900 -1.1019
 3790TIP3   OH232784   0.756   5.151  13.679 -0.2432  0.3633 -0.2640
 3790TIP3    H132785   0.680   5.207  13.692  1.3829  2.6472 -0.0310
 3790TIP3    H232786   0.806   5.193  13.609  1.2898 -0.5229  0.2374
 3791TIP3   OH232787   0.453   3.110   4.147 -0.3300 -0.3285 -0.2127
 3791TIP3    H132788   0.476   3.200   4.125 -0.0608  0.1596  1.8281
 3791TIP3    H232789   0.529   3.058   4.118  0.0338  0.2567 -0.3176
 3792TIP3   OH232790   3.474   1.493  14.315  0.2527  0.2674  0.9423
 3792TIP3    H132791   3.495   1.451  14.398  1.6038  1.5531  1.2914
 3792TIP3    H232792   3.390   1.455  14.289  0.9006 -1.8364  1.7409
 3793TIP3   OH232793   2.190   6.700  15.564 -0.2655 -0.5444  0.0359
 3793TIP3    H132794   2.194   6.716  15.658 -1.1572  2.4503 -0.3177
 3793TIP3    H232795   2.281   6.696  15.536  0.0796  1.1299  0.7477
 3794TIP3   OH232796   5.623   6.417  17.014  0.1380 -0.0795  0.5543
 3794TIP3    H132797   5.665   6.503  17.009  1.5033 -0.6453  1.6123
 3794TIP3    H232798   5.599   6.397  16.923  2.1567  0.3153 -0.1177
 3795TIP3   OH232799   3.105   2.668   1.434  0.7065 -0.0474 -0.1224
 3795TIP3    H132800   3.048   2.745   1.428  0.3737 -0.2810  0.0035
 3795TIP3    H232801   3.130   2.650   1.343 -0.9298 -1.0599 -0.4033
 3796TIP3   OH232802   6.259   4.805  15.389  0.9998 -0.0984 -0.0259
 3796TIP3    H132803   6.183   4.798  15.447  1.1959 -0.4217  0.1906
 3796TIP3    H232804   6.240   4.882  15.334 -0.2081 -1.0706 -1.0304
 3797TIP3   OH232805   0.825   4.331   6.080  1.1701  0.1808 -0.2346
 3797TIP3    H132806   0.859   4.246   6.053 -0.5739 -0.3386 -0.9448
 3797TIP3    H232807   0.834   4.332   6.175 -0.5751 -1.6591 -0.0010
 3798TIP3   OH232808   4.132   4.326   0.266 -0.3413  0.0453  0.2398
 3798TIP3    H132809   4.041   4.322   0.297 -0.3076  2.4469  0.8904
 3798TIP3    H232810   4.128   4.386   0.191  1.0888  2.9680  2.3113
 3799TIP3   OH232811   0.450   3.557   4.466  0.2217 -0.1619  0.0182
 3799TIP3    H132812   0.416   3.645   4.477  1.6899  0.5486 -0.8219
 3799TIP3    H232813   0.440   3.539   4.372  0.7749 -0.5172  0.0245
 3800TIP3   OH232814   1.508   3.579   2.746  0.2417  0.2076 -0.0108
 3800TIP3    H132815   1.561   3.530   2.808 -0.0556 -2.2522 -1.5446
 3800TIP3    H232816   1.418   3.570   2.778  0.4630  2.4371  1.3572
 3801TIP3   OH232817   1.542   4.649  16.011  0.3052 -0.1757  0.0851
 3801TIP3    H132818   1.489   4.690  15.943 -1.9511 -0.3979  1.6168
 3801TIP3    H232819   1.611   4.714  16.030  1.2088 -0.2542 -2.5582
 3802TIP3   OH232820   4.266   4.294  15.246  0.7029 -0.1238 -0.1403
 3802TIP3    H132821   4.291   4.299  15.339 -0.4991 -0.0866  0.1984
 3802TIP3    H232822   4.316   4.220  15.212 -0.4018 -1.5156  1.0786
 3803TIP3   OH232823   3.845   0.784   5.267 -0.1605 -0.2101 -0.1224
 3803TIP3    H132824   3.906   0.811   5.198  0.2750  2.1155  1.0412
 3803TIP3    H232825   3.899   0.780   5.346 -1.3065  0.9880  0.7606
 3804TIP3   OH232826   1.733   0.560  14.706 -0.3883 -0.4437 -0.0173
 3804TIP3    H132827   1.681   0.632  14.667  0.2045  0.2907  0.5208
 3804TIP3    H232828   1.711   0.484  14.652 -3.9856 -0.8213  1.6557
 3805TIP3   OH232829   5.610   3.026  14.729 -0.1776  0.0932 -0.0547
 3805TIP3    H132830   5.706   3.030  14.733 -0.2148  0.0651  1.7726
 3805TIP3    H232831   5.587   2.949  14.782 -1.2317  0.6410  0.3122
 3806TIP3   OH232832   1.585   5.701  13.311  0.1279  0.3232 -0.1495
 3806TIP3    H132833   1.513   5.717  13.372  0.9610  0.7154  0.7665
 3806TIP3    H232834   1.657   5.755  13.345  0.6854  0.3745 -1.3570
 3807TIP3   OH232835   2.977   3.557   2.725 -0.4935 -0.3513  0.3860
 3807TIP3    H132836   2.986   3.624   2.794  0.4969 -1.1251  1.0345
 3807TIP3    H232837   2.888   3.523   2.737 -1.0925  0.9598 -0.0809
 3808TIP3   OH232838   2.407   1.711  15.407 -0.3812  0.2197 -0.2306
 3808TIP3    H132839   2.333   1.767  15.430  0.6137  1.5794 -0.2259
 3808TIP3    H232840   2.416   1.653  15.482 -0.4525  1.1092  0.4862
 3809TIP3   OH232841   6.375   3.305  14.567  0.3272  0.1884 -0.1538
 3809TIP3    H132842   6.320   3.245  14.518 -0.9072 -0.5047  1.9668
 3809TIP3    H232843   6.464   3.270  14.557  0.1221  0.0876 -1.8407
 3810TIP3   OH232844   2.200   2.100   4.322  0.3979 -0.1284  0.3526
 3810TIP3    H132845   2.230   2.093   4.413 -0.5492 -1.9211  0.5632
 3810TIP3    H232846   2.202   2.010   4.289 -0.2644  0.3623 -1.0903
 3811TIP3   OH232847   3.578   4.148  14.238  0.4771  0.1339  0.0364
 3811TIP3    H132848   3.627   4.144  14.321 -2.5889 -0.5281  1.9881
 3811TIP3    H232849   3.566   4.057  14.213  0.7600  0.3097 -0.7474
 3812TIP3   OH232850   4.761   5.541  15.412 -0.3989  0.2351 -0.2091
 3812TIP3    H132851   4.761   5.636  15.408  0.3202  0.2256 -0.5141
 3812TIP3    H232852   4.700   5.514  15.344  1.5806  0.4199 -2.1460
 3813TIP3   OH232853   0.861   4.251  10.637  0.1821 -0.7014  0.3473
 3813TIP3    H132854   0.822   4.318  10.581 -0.8191  1.7285  3.6490
 3813TIP3    H232855   0.800   4.178  10.632  0.0180 -0.4832 -1.4881
 3814TIP3   OH232856   5.355   2.153  12.975 -0.3970 -0.0037  0.2913
 3814TIP3    H132857   5.272   2.106  12.988 -0.1042 -1.0702 -1.2963
 3814TIP3    H232858   5.420   2.099  13.019 -0.2547 -0.3575 -0.3407
 3815TIP3   OH232859   5.014   2.283  15.094  0.1438 -0.8880  0.5713
 3815TIP3    H132860   5.011   2.315  15.004 -0.7047 -0.7443  0.6409
 3815TIP3    H232861   5.096   2.316  15.129  1.0780 -1.9868 -0.5260
 3816TIP3   OH232862   4.725   3.012  13.016  0.2580 -0.0376 -1.1808
 3816TIP3    H132863   4.726   2.935  13.074  0.2711  0.1854 -0.8816
 3816TIP3    H232864   4.640   3.007  12.971  0.6779 -0.7826 -1.9229
 3817TIP3   OH232865   4.550   3.535  13.646  0.5817  0.3230  0.0568
 3817TIP3    H132866   4.614   3.484  13.596  1.8954  2.2208 -0.2904
 3817TIP3    H232867   4.603   3.588  13.705 -0.7023  1.7128  0.0112
 3818TIP3   OH232868   3.555   3.864  16.371  0.4641 -0.0236  0.5908
 3818TIP3    H132869   3.518   3.864  16.283 -1.8687  1.5390  1.4597
 3818TIP3    H232870   3.646   3.838  16.359 -0.1096 -1.1521 -2.0971
 3819TIP3   OH232871   0.077   5.720  12.464  0.0202 -0.2298 -0.0471
 3819TIP3    H132872  -0.000   5.742  12.412  1.0899  2.3250 -0.7069
 3819TIP3    H232873   0.130   5.800  12.464  1.9392 -1.3910  1.6996
 3820TIP3   OH232874   2.714   2.318  15.042 -0.1904 -0.7842 -0.0395
 3820TIP3    H132875   2.631   2.290  15.005  0.7108 -1.8844 -1.3211
 3820TIP3    H232876   2.693   2.347  15.131 -1.8807 -1.2995 -0.2515
 3821TIP3   OH232877   6.418   0.332  16.506 -0.6437  0.7344 -0.0260
 3821TIP3    H132878   6.460   0.249  16.528  0.7867  1.2831 -0.5159
 3821TIP3    H232879   6.430   0.386  16.584 -0.3177  0.9273 -0.2053
 3822TIP3   OH232880   2.574   1.194  15.530  0.1217  0.3506  0.4597
 3822TIP3    H132881   2.668   1.198  15.545 -0.1230 -0.8711  2.8896
 3822TIP3    H232882   2.564   1.144  15.449  1.5314  0.6892  0.0519
 3823TIP3   OH232883   4.410   2.253  16.088 -0.2781  0.1325 -0.1031
 3823TIP3    H132884   4.315   2.247  16.094 -0.1908 -2.6548 -0.3630
 3823TIP3    H232885   4.426   2.332  16.036 -2.6050 -1.1181 -3.0046
 3824TIP3   OH232886   3.196   6.512  13.648 -0.1146 -0.6695 -0.3452
 3824TIP3    H132887   3.256   6.553  13.711 -0.0023 -1.7995  0.3106
 3824TIP3    H232888   3.184   6.578  13.580  2.9063 -0.8186 -1.1782
 3825TIP3   OH232889   2.891   3.498   0.942  0.0590 -0.1377  0.0028
 3825TIP3    H132890   2.889   3.591   0.964  0.0286 -0.4044  1.2201
 3825TIP3    H232891   2.944   3.493   0.863  1.5274  0.7383  0.8851
 3826TIP3   OH232892   0.923   2.933   0.968  0.4738 -0.4724  0.0592
 3826TIP3    H132893   0.890   3.000   0.908 -0.0178 -0.5932  0.1912
 3826TIP3    H232894   0.854   2.925   1.034 -0.2211 -2.2653 -0.8231
 3827TIP3   OH232895   1.873   2.566  12.172  0.2177  0.1921 -0.0834
 3827TIP3    H132896   1.926   2.487  12.180  0.0868  0.0710 -0.4076
 3827TIP3    H232897   1.880   2.607  12.258  0.0750 -0.3083  0.1758
 3828TIP3   OH232898   5.757   3.174  11.864  0.5934 -0.2026  0.3545
 3828TIP3    H132899   5.803   3.091  11.870  1.2278  0.1461  0.4834
 3828TIP3    H232900   5.789   3.214  11.783  0.0163 -0.2449  0.1031
 3829TIP3   OH232901   2.138   6.228   2.164  0.5156 -0.3877  0.7565
 3829TIP3    H132902   2.221   6.253   2.122  0.2835  0.6100  0.8527
 3829TIP3    H232903   2.094   6.174   2.099  1.2630 -0.9797  0.7278
 3830TIP3   OH232904   1.203   1.668  14.212  1.2517  0.2377  0.5558
 3830TIP3    H132905   1.122   1.648  14.259  1.5383  2.6279  2.2934
 3830TIP3    H232906   1.190   1.630  14.125 -2.0726  1.1352  0.4958
 3831TIP3   OH232907   3.636   5.325   4.224  0.5103 -0.2673 -0.5999
 3831TIP3    H132908   3.691   5.255   4.191 -0.0911 -0.3568 -1.4531
 3831TIP3    H232909   3.584   5.284   4.293 -0.1841 -0.8097 -1.4207
 3832TIP3   OH232910   5.819   2.556   4.334 -0.2305  0.4367 -0.0167
 3832TIP3    H132911   5.892   2.501   4.363 -0.3387 -0.5173 -1.4378
 3832TIP3    H232912   5.861   2.630   4.290  0.0026 -1.3176 -3.0436
 3833TIP3   OH232913   1.205   0.377   6.069 -0.7712 -0.1013 -0.2083
 3833TIP3    H132914   1.194   0.302   6.129  0.6935  0.4685  0.8165
 3833TIP3    H232915   1.288   0.416   6.094 -0.9326  1.1730 -1.5386
 3834TIP3   OH232916   6.642   1.247  15.370  0.2434 -0.6144 -0.4762
 3834TIP3    H132917   6.585   1.261  15.446 -1.0305  0.7174 -1.6259
 3834TIP3    H232918   6.582   1.247  15.295  1.5625 -1.1244 -1.5654
 3835TIP3   OH232919   0.504   6.570  13.015 -0.6221  0.0263  0.0700
 3835TIP3    H132920   0.503   6.664  13.033 -0.5389 -0.2238  1.4440
 3835TIP3    H232921   0.417   6.539  13.043 -0.1526 -0.5261  0.9663
 3836TIP3   OH232922   6.304   3.725  13.336 -0.0242  0.1519 -0.1255
 3836TIP3    H132923   6.309   3.811  13.293 -1.7121 -0.2160 -1.1476
 3836TIP3    H232924   6.395   3.700  13.349  0.5614  0.8548 -2.3990
 3837TIP3   OH232925   5.639   6.241  10.566 -0.0510  0.4878  0.1697
 3837TIP3    H132926   5.716   6.281  10.527 -0.0544 -0.4776 -0.8837
 3837TIP3    H232927   5.625   6.289  10.648  1.9571  0.3428  0.6306
 3838TIP3   OH232928   2.000   3.586  12.330  0.0591 -0.5378  0.0277
 3838TIP3    H132929   2.047   3.568  12.411  0.0355  0.1061  0.1945
 3838TIP3    H232930   1.911   3.556  12.345 -0.1242  0.2211  0.5031
 3839TIP3   OH232931   5.267   2.205   0.369  0.1981 -0.1003 -0.7789
 3839TIP3    H132932   5.340   2.220   0.429  0.7871 -2.2538 -0.8817
 3839TIP3    H232933   5.293   2.249   0.288  0.9770 -0.1237 -0.5455
 3840TIP3   OH232934   0.524   4.335  15.161 -0.0500  0.2768 -0.2346
 3840TIP3    H132935   0.490   4.384  15.237  1.1294 -0.5890  0.8970
 3840TIP3    H232936   0.619   4.346  15.166  0.1427 -1.0072 -0.7347
 3841TIP3   OH232937   3.630   2.519  13.479 -0.1490  0.4405 -0.1940
 3841TIP3    H132938   3.616   2.424  13.488  0.0005  0.6108  2.8562
 3841TIP3    H232939   3.680   2.528  13.397  0.5738 -2.2023 -0.1370
 3842TIP3   OH232940   0.739   1.183   4.514  0.4569 -1.3515 -0.3152
 3842TIP3    H132941   0.677   1.225   4.573 -0.7476 -1.7159 -1.2875
 3842TIP3    H232942   0.808   1.248   4.502 -0.3772 -0.4259 -0.2422
 3843TIP3   OH232943   1.054   1.727   4.072  0.2769  0.4551 -0.1720
 3843TIP3    H132944   1.019   1.706   3.986  0.3644 -0.0974 -0.0781
 3843TIP3    H232945   1.109   1.803   4.058 -1.4649  1.7832 -0.2125
 3844TIP3   OH232946   5.718   5.890  15.318 -0.0828 -0.0593  0.1923
 3844TIP3    H132947   5.810   5.864  15.327  0.3608  1.2172 -0.4444
 3844TIP3    H232948   5.669   5.808  15.327  0.7266 -0.3419  5.4899
 3845TIP3   OH232949   0.775   1.259  14.080  0.1240  0.5189 -0.1401
 3845TIP3    H132950   0.790   1.351  14.103  1.4199  0.3806 -0.3502
 3845TIP3    H232951   0.860   1.217  14.091 -0.6708 -0.8914  0.9192
 3846TIP3   OH232952   2.795   3.531  17.146  0.5402 -0.3803 -0.0477
 3846TIP3    H132953   2.845   3.456  17.114  1.5719 -0.6504  2.0447
 3846TIP3    H232954   2.813   3.600  17.082  2.0904 -1.0344 -0.3837
 3847TIP3   OH232955   2.082   4.567  11.621  0.2101  0.6243  0.5032
 3847TIP3    H132956   2.008   4.541  11.566 -1.6361  3.5179  1.3883
 3847TIP3    H232957   2.043   4.580  11.708  2.1788  0.4337  1.4637
 3848TIP3   OH232958   6.702   1.371  16.603  0.4014  0.2812 -0.4598
 3848TIP3    H132959   6.708   1.391  16.697 -1.0660  0.9911 -0.4852
 3848TIP3    H232960   6.703   1.276  16.599  2.2705  0.2319  0.1096
 3849TIP3   OH232961   0.062   2.578   1.832  0.1829  0.2979 -0.2346
 3849TIP3    H132962   0.030   2.495   1.797  2.4456 -1.0988  0.7470
 3849TIP3    H232963   0.064   2.565   1.927 -1.3418  2.2715  0.1326
 3850TIP3   OH232964   6.312   2.843  14.474 -0.4486 -0.1225 -0.1203
 3850TIP3    H132965   6.361   2.821  14.395 -0.0548 -0.9521  0.3405
 3850TIP3    H232966   6.347   2.784  14.541 -2.7213 -1.4364  0.0020
 3851TIP3   OH232967   0.183   4.728  14.024  0.2565 -0.2386 -0.2197
 3851TIP3    H132968   0.159   4.812  14.064  0.7795 -0.6916  1.1045
 3851TIP3    H232969   0.151   4.662  14.086  0.7232 -0.9853 -0.7582
 3852TIP3   OH232970   4.909   0.510   2.775 -0.2933 -0.0545  0.6125
 3852TIP3    H132971   4.832   0.535   2.826  0.5658  0.6594  1.6063
 3852TIP3    H232972   4.980   0.563   2.811  0.9008 -1.5133  0.5112
 3853TIP3   OH232973   3.479   4.439   0.310 -0.5328  0.5751 -0.5800
 3853TIP3    H132974   3.544   4.440   0.240 -0.6748  0.2475 -0.7174
 3853TIP3    H232975   3.395   4.449   0.265 -0.4557  4.8128 -0.2002
 3854TIP3   OH232976   3.687   5.290  16.584  0.5228  0.4466 -0.4590
 3854TIP3    H132977   3.706   5.255  16.498  0.8484  1.7829 -0.9643
 3854TIP3    H232978   3.591   5.290  16.590  0.5141 -0.2550 -0.5464
 3855TIP3   OH232979   4.353   6.598   3.308  0.6520  0.1371  0.0122
 3855TIP3    H132980   4.402   6.662   3.257  0.7525 -0.2881 -0.4284
 3855TIP3    H232981   4.412   6.524   3.318  0.0561 -0.4586 -0.6915
 3856TIP3   OH232982   4.295   0.818  15.557  0.4128 -0.1990 -0.0085
 3856TIP3    H132983   4.255   0.817  15.470 -1.5248 -1.7980  0.8072
 3856TIP3    H232984   4.289   0.727  15.586  1.1895  0.2705  1.7218
 3857TIP3   OH232985   3.948   1.501   1.772  0.1394 -0.3202 -0.9589
 3857TIP3    H132986   3.934   1.440   1.699  0.1367 -2.4115  0.6889
 3857TIP3    H232987   3.882   1.476   1.837  0.4169  1.1970 -0.0449
 3858TIP3   OH232988   1.159   4.592  13.504 -0.6839  0.5538  0.0275
 3858TIP3    H132989   1.242   4.638  13.519  0.2007 -0.7819 -0.5389
 3858TIP3    H232990   1.154   4.584  13.408 -2.4810  2.3622 -0.0794
 3859TIP3   OH232991   4.596   4.827   5.184  0.6033 -0.1122 -0.5651
 3859TIP3    H132992   4.529   4.889   5.213  1.9799  2.0948 -1.7861
 3859TIP3    H232993   4.548   4.761   5.134 -0.6465  1.5093 -1.5872
 3860TIP3   OH232994   4.823   0.032  15.476 -0.2908 -0.1110  0.9077
 3860TIP3    H132995   4.812   0.102  15.412  1.8000  0.8525  1.5370
 3860TIP3    H232996   4.884  -0.030  15.435  0.9703  0.4548  1.8692
 3861TIP3   OH232997   6.533   4.047   0.242  0.0545 -0.3944 -0.7410
 3861TIP3    H132998   6.470   4.031   0.313 -0.0692  0.7816 -0.5605
 3861TIP3    H232999   6.507   3.987   0.172 -0.5834 -0.7024 -0.2469
 3862TIP3   OH233000   3.018   4.173   3.478 -0.9537  0.0118 -0.5208
 3862TIP3    H133001   2.990   4.263   3.460  2.6201  1.5685  0.7393
 3862TIP3    H233002   3.085   4.155   3.413  1.1082 -0.1681  1.5272
 3863TIP3   OH233003   0.606   5.529  13.458  0.7838 -0.1357 -0.2779
 3863TIP3    H133004   0.515   5.519  13.432  0.5372  1.1709  0.0397
 3863TIP3    H233005   0.602   5.570  13.545  1.6466 -1.6072  0.5024
 3864TIP3   OH233006   1.425   3.431   6.009  0.3727  0.1773 -0.1519
 3864TIP3    H133007   1.431   3.409   6.102  1.3699 -0.6548 -0.3924
 3864TIP3    H233008   1.333   3.418   5.987 -0.8686  4.3552  1.6276
 3865TIP3   OH233009   3.919   0.375   5.163  0.6675 -0.2313  0.2830
 3865TIP3    H133010   3.975   0.306   5.196  0.2341 -0.3464  0.7836
 3865TIP3    H233011   3.856   0.391   5.233  0.5340  0.4089  0.0235
 3866TIP3   OH233012   2.446   5.391  15.502  0.2974  0.5332 -0.1386
 3866TIP3    H133013   2.492   5.440  15.570 -0.0586  0.2855  0.2845
 3866TIP3    H233014   2.364   5.438  15.489  0.0419  0.1672  0.1283
 3867TIP3   OH233015   2.982   3.237  16.516  0.0365  0.2141  0.3436
 3867TIP3    H133016   3.040   3.286  16.574  0.9810  1.9224 -1.8870
 3867TIP3    H233017   3.039   3.171  16.476 -0.4016 -0.3734  0.6683
 3868TIP3   OH233018   3.901   5.986  16.556 -0.2038 -0.1463  0.2728
 3868TIP3    H133019   3.881   5.912  16.499 -0.2987  0.6635 -0.7749
 3868TIP3    H233020   3.955   5.948  16.625 -0.9268 -1.3461  0.2212
 3869TIP3   OH233021   4.609   3.758   0.411  0.2894  0.6874 -0.0551
 3869TIP3    H133022   4.598   3.730   0.320 -0.0908  0.0367  0.1877
 3869TIP3    H233023   4.671   3.697   0.448 -0.7743 -0.0536  0.5607
 3870TIP3   OH233024   1.285   6.142   6.386  0.2542  0.7147 -0.3105
 3870TIP3    H133025   1.274   6.234   6.365  0.3338  0.5230 -1.2480
 3870TIP3    H233026   1.277   6.138   6.482 -1.2772  1.4748 -0.3639
 3871TIP3   OH233027   2.367   3.918  11.201 -0.2189  0.0757  0.1036
 3871TIP3    H133028   2.396   3.994  11.251 -0.4494 -1.1003  2.1194
 3871TIP3    H233029   2.413   3.844  11.241 -0.3900 -0.9333 -1.4744
 3872TIP3   OH233030   4.188   2.200  11.700  0.2010 -0.6212  0.1902
 3872TIP3    H133031   4.110   2.254  11.705 -0.3141 -1.3411  0.0918
 3872TIP3    H233032   4.261   2.262  11.707 -0.3589  0.1755 -0.7694
 3873TIP3   OH233033   5.700   2.133  13.546 -0.0402  0.0890 -0.2546
 3873TIP3    H133034   5.737   2.218  13.569 -2.3434  1.0831  0.0388
 3873TIP3    H233035   5.686   2.089  13.630 -1.0177  0.3990 -0.2503
 3874TIP3   OH233036   2.262   3.934   3.249 -0.1754  0.2018  0.7877
 3874TIP3    H133037   2.235   4.002   3.311  2.1807 -0.5216  2.7530
 3874TIP3    H233038   2.230   3.853   3.287 -1.2729 -0.0401 -0.5499
 3875TIP3   OH233039   2.762   1.265   2.367  0.0796  0.1552  0.3165
 3875TIP3    H133040   2.819   1.304   2.433 -0.0837  0.0633  0.5120
 3875TIP3    H233041   2.792   1.303   2.284  1.9558 -1.6034  0.0946
 3876TIP3   OH233042   2.231   2.681   0.683 -0.2450  0.4853  0.2759
 3876TIP3    H133043   2.228   2.777   0.677  0.8734  0.4601 -1.1833
 3876TIP3    H233044   2.195   2.651   0.599 -0.4070 -0.3801  0.6495
 3877TIP3   OH233045   2.322   1.953  16.027 -0.1616 -0.0794  0.0704
 3877TIP3    H133046   2.383   1.987  16.093  0.6923  0.1253 -0.8061
 3877TIP3    H233047   2.337   2.007  15.950 -2.2806  0.7255  0.1622
 3878TIP3   OH233048   5.569   4.682   4.999  0.1078  0.1137 -0.3584
 3878TIP3    H133049   5.627   4.609   4.979 -1.6936 -1.1561 -1.2949
 3878TIP3    H233050   5.561   4.681   5.095  0.1172 -0.9331 -0.3570
 3879TIP3   OH233051   2.591   3.437  16.552  0.7307  0.5266 -0.2072
 3879TIP3    H133052   2.556   3.442  16.463 -1.4157  2.3377  0.6248
 3879TIP3    H233053   2.665   3.498  16.552  1.1361  0.0491 -0.8854
 3880TIP3   OH233054   0.680   2.592   0.170 -0.2466  0.3502 -0.2620
 3880TIP3    H133055   0.695   2.591   0.076  0.6251  0.5477 -0.1340
 3880TIP3    H233056   0.762   2.559   0.208 -0.4972  0.5085  0.4333
 3881TIP3   OH233057   0.715   5.023   1.197 -0.5296 -0.2162  0.2257
 3881TIP3    H133058   0.653   5.033   1.125  0.7998 -0.0130 -0.9440
 3881TIP3    H233059   0.749   4.934   1.186 -1.3354 -0.6972  1.4739
 3882TIP3   OH233060   4.935   3.660   0.979 -0.1124  0.1662  0.0753
 3882TIP3    H133061   5.002   3.688   1.042  0.8646 -1.5322 -0.1398
 3882TIP3    H233062   4.916   3.569   1.003 -1.0321  0.0569 -0.9969
 3883TIP3   OH233063   4.912   2.605  14.704 -0.7113  0.3475  0.3726
 3883TIP3    H133064   4.902   2.584  14.611 -1.8138 -0.4633  0.6519
 3883TIP3    H233065   4.832   2.651  14.728 -0.3899  0.6483  0.8966
 3884TIP3   OH233066   5.956   2.073   5.886  0.0037 -0.0207  0.0309
 3884TIP3    H133067   5.922   2.003   5.942 -0.1719  0.2355  0.2441
 3884TIP3    H233068   5.901   2.070   5.808 -0.1137 -0.0087  0.1128
 3885TIP3   OH233069   3.469   5.077   0.654 -0.5177  0.4009  0.0436
 3885TIP3    H133070   3.429   5.123   0.580  0.6649  2.5291  0.6520
 3885TIP3    H233071   3.408   5.090   0.726 -0.6222  0.1820 -0.0019
 3886TIP3   OH233072   0.097   2.240  12.342 -0.0657  0.5701  0.3913
 3886TIP3    H133073   0.146   2.318  12.370  1.3740  0.6578 -2.0290
 3886TIP3    H233074   0.063   2.202  12.423  1.4574  2.2433  1.9042
 3887TIP3   OH233075   0.993   1.606  15.194 -0.1957  0.4290  0.8068
 3887TIP3    H133076   1.068   1.653  15.158 -1.4654  1.1054 -1.1335
 3887TIP3    H233077   0.926   1.613  15.126 -1.2524 -2.1747  1.4608
 3888TIP3   OH233078   2.913   5.583  14.600 -0.1154 -0.6656  0.4808
 3888TIP3    H133079   2.992   5.561  14.650 -1.2436 -2.2801  1.6544
 3888TIP3    H233080   2.889   5.503  14.555 -1.8636 -0.6424  1.2840
 3889TIP3   OH233081   4.609   3.488   0.153  0.3686 -0.1963  0.1499
 3889TIP3    H133082   4.539   3.552   0.139 -0.7295 -1.2599  0.6203
 3889TIP3    H233083   4.664   3.495   0.075 -0.4487  0.4249 -0.3878
 3890TIP3   OH233084   1.493   1.602  14.996 -0.7440 -0.5775  0.4163
 3890TIP3    H133085   1.580   1.567  15.017 -0.5365 -0.8948 -0.9146
 3890TIP3    H233086   1.508   1.695  14.979 -0.9396 -0.2815  1.7572
 3891TIP3   OH233087   2.906   6.134   1.654 -0.1288 -0.6254  0.3434
 3891TIP3    H133088   2.885   6.050   1.614  1.2199 -0.3803 -0.9934
 3891TIP3    H233089   2.924   6.192   1.580 -0.8566  0.8121  1.2382
 3892TIP3   OH233090   5.157   3.748   5.560  0.1831 -0.2218  0.7611
 3892TIP3    H133091   5.203   3.708   5.487  0.6444 -0.9184  1.4172
 3892TIP3    H233092   5.223   3.799   5.606 -0.0512  0.0351  0.8161
 3893TIP3   OH233093   6.763   1.267  15.030 -0.4968 -0.0912  0.1156
 3893TIP3    H133094   6.679   1.311  15.022 -0.1568  0.6514  0.5693
 3893TIP3    H233095   6.742   1.180  15.064 -1.0213  0.3214  0.8564
 3894TIP3   OH233096   1.690   5.510  15.386  0.4166 -0.1106 -0.0352
 3894TIP3    H133097   1.786   5.503  15.386  0.2963 -3.9882 -0.0900
 3894TIP3    H233098   1.672   5.595  15.346  3.8068  0.8268  0.0985
 3895TIP3   OH233099   3.770   4.507   4.508 -0.8406 -0.1794  0.0608
 3895TIP3    H133100   3.737   4.461   4.585 -0.3598 -0.5690  0.0397
 3895TIP3    H233101   3.864   4.487   4.507 -0.6441  0.7108 -0.0105
 3896TIP3   OH233102   3.724   0.969  14.064 -1.1020  0.3522  0.4255
 3896TIP3    H133103   3.717   0.889  14.116 -0.6499 -0.1112 -0.2004
 3896TIP3    H233104   3.637   1.007  14.065 -1.0030  0.5749  1.8605
 3897TIP3   OH233105   0.204   5.824  14.538 -0.5615  0.3116 -0.2717
 3897TIP3    H133106   0.242   5.836  14.451  0.1481  1.5987  0.1926
 3897TIP3    H233107   0.114   5.798  14.521 -0.4247  0.5017 -1.3888
 3898TIP3   OH233108   4.157   6.283  16.925  0.6886 -0.7274  0.1077
 3898TIP3    H133109   4.189   6.219  16.861 -0.3864 -0.3537 -0.8220
 3898TIP3    H233110   4.210   6.361  16.910  1.0958 -0.9490  0.3509
 3899TIP3   OH233111   3.891   6.740   4.999 -0.2366 -0.7018  0.0958
 3899TIP3    H133112   3.856   6.811   5.053  0.3644 -0.9342  0.8100
 3899TIP3    H233113   3.814   6.687   4.976 -1.0884  1.4728 -2.5048
 3900TIP3   OH233114   2.221   3.331  13.380 -0.3099 -0.1810 -0.1230
 3900TIP3    H133115   2.282   3.265  13.346 -0.6600 -0.6229  0.0883
 3900TIP3    H233116   2.206   3.304  13.471 -0.5522  0.1224 -0.0753
 3901TIP3   OH233117   4.630   3.289  11.720 -0.4345  0.2219 -0.1494
 3901TIP3    H133118   4.579   3.236  11.660  0.5163 -2.2147  1.0283
 3901TIP3    H233119   4.581   3.287  11.802  1.2774 -2.0304  0.9584
 3902TIP3   OH233120   4.949   4.840  14.470 -0.2397 -0.0294  0.7282
 3902TIP3    H133121   4.938   4.768  14.532 -0.3757 -0.8896 -0.2660
 3902TIP3    H233122   4.865   4.847  14.426 -0.3779  1.0729  1.1535
 3903TIP3   OH233123   6.339   4.683  15.662 -0.3609 -0.2648 -0.3963
 3903TIP3    H133124   6.397   4.746  15.704  1.1831 -1.7494 -0.1523
 3903TIP3    H233125   6.361   4.599  15.704 -1.1532 -1.2291 -1.8286
 3904TIP3   OH233126   1.678   0.943   3.804 -0.4192 -0.2027  0.3936
 3904TIP3    H133127   1.584   0.927   3.814 -1.0646  2.0850 -1.0663
 3904TIP3    H233128   1.694   1.022   3.856  0.5501 -0.1494  0.0312
 3905TIP3   OH233129   6.115   2.653  13.992  0.1821  0.0487 -0.2640
 3905TIP3    H133130   6.033   2.640  14.039 -0.6324  1.1755 -1.3325
 3905TIP3    H233131   6.090   2.669  13.901  1.6134 -0.1546 -0.7242
 3906TIP3   OH233132   6.644   6.695   1.178 -0.9344  0.4042 -0.5423
 3906TIP3    H133133   6.585   6.769   1.166 -0.9939  0.5558  0.5913
 3906TIP3    H233134   6.586   6.620   1.191 -0.8708  0.3082 -0.8005
 3907TIP3   OH233135   0.810   6.178   2.538 -0.2542 -0.1363 -0.1828
 3907TIP3    H133136   0.899   6.198   2.509 -0.2926  0.4544  0.0848
 3907TIP3    H233137   0.781   6.107   2.481  0.6806 -0.8937  0.2572
 3908TIP3   OH233138   2.336   5.531  15.272 -0.4163 -0.0374  0.2292
 3908TIP3    H133139   2.339   5.478  15.192 -2.1521  0.2393 -0.0398
 3908TIP3    H233140   2.277   5.603  15.251  1.0792  1.4680  0.9423
 3909TIP3   OH233141   6.750   2.215   5.897  0.3100 -0.3328  0.1954
 3909TIP3    H133142   6.688   2.142   5.901 -0.6670  0.3884 -0.8235
 3909TIP3    H233143   6.832   2.176   5.867 -0.6574 -0.7949 -2.0583
 3910TIP3   OH233144   6.331   2.017   2.452  0.1702 -0.1371 -0.2917
 3910TIP3    H133145   6.303   2.019   2.543 -1.6088 -0.1053 -0.8048
 3910TIP3    H233146   6.300   1.932   2.419 -1.4657  0.8868 -1.5156
 3911TIP3   OH233147   5.654   1.169  11.294 -0.0038  0.0271  0.0749
 3911TIP3    H133148   5.609   1.190  11.213 -2.9300 -0.9676  1.3250
 3911TIP3    H233149   5.639   1.075  11.307 -1.1548  0.4874  2.6018
 3912TIP3   OH233150   0.469   1.619   0.347 -1.0978 -0.8542  0.2789
 3912TIP3    H133151   0.532   1.683   0.315 -1.0217 -0.3743  1.3211
 3912TIP3    H233152   0.485   1.540   0.296  0.2990 -0.7204  0.4749
 3913TIP3   OH233153   5.648   6.746  17.004 -0.1156  0.3418  0.1609
 3913TIP3    H133154   5.621   6.750  17.096  0.9202  0.4916  0.4728
 3913TIP3    H233155   5.641   6.836  16.973  1.6315  0.7251  0.7446
 3914TIP3   OH233156   4.387   6.423  15.423  0.2663  0.3299 -0.1969
 3914TIP3    H133157   4.359   6.407  15.513 -0.4669  1.0977 -0.2705
 3914TIP3    H233158   4.443   6.500  15.429  0.9156 -0.1297 -0.2912
 3915TIP3   OH233159   5.236   0.975  13.585  0.0830 -0.3329  0.0236
 3915TIP3    H133160   5.324   0.955  13.552 -0.4491 -0.9363 -1.0581
 3915TIP3    H233161   5.231   0.926  13.668 -0.1329 -2.4208 -1.1544
 3916TIP3   OH233162   0.021   6.233   3.152  0.2287  0.5329 -0.2805
 3916TIP3    H133163   0.094   6.295   3.151  0.2421  0.5420 -1.7951
 3916TIP3    H233164   0.028   6.187   3.069 -0.4844 -0.6893  0.3119
 3917TIP3   OH233165   4.631   0.688  11.369 -0.3231  0.1359  0.4705
 3917TIP3    H133166   4.568   0.658  11.304 -0.5203 -1.3238  1.2981
 3917TIP3    H233167   4.600   0.775  11.395 -0.4914  0.5374 -1.0281
 3918TIP3   OH233168   3.465   3.666   1.170 -0.4916 -0.0360 -0.4847
 3918TIP3    H133169   3.487   3.630   1.256  0.8551  0.8718 -0.4160
 3918TIP3    H233170   3.374   3.695   1.178 -0.2538  0.4090  0.7582
 3919TIP3   OH233171   5.063   4.796  16.702 -0.1306  0.1230  0.2615
 3919TIP3    H133172   5.140   4.743  16.725 -1.2671 -1.9649 -0.4393
 3919TIP3    H233173   5.095   4.886  16.701  1.7780 -0.4460  2.1539
 3920TIP3   OH233174   4.374   0.261  14.904 -0.3252  0.0052  0.4207
 3920TIP3    H133175   4.358   0.314  14.826 -2.1505  0.0148  0.7551
 3920TIP3    H233176   4.316   0.186  14.895  0.6512 -0.8420  0.9955
 3921TIP3   OH233177   6.278   5.107  15.787  0.2057  0.3276  0.7187
 3921TIP3    H133178   6.319   5.187  15.754 -1.5171  1.1396  0.4753
 3921TIP3    H233179   6.192   5.105  15.746  0.3275 -1.8558  0.4416
 3922TIP3   OH233180   0.586   5.726   5.893 -0.1367 -0.3687  0.9935
 3922TIP3    H133181   0.631   5.719   5.977  0.4717  0.2023  0.7249
 3922TIP3    H233182   0.587   5.820   5.873  2.0599 -0.7080 -0.8721
 3923TIP3   OH233183   6.612   4.615   1.803  0.4302  0.8266  0.4889
 3923TIP3    H133184   6.655   4.529   1.801 -3.3139 -1.2478  0.1325
 3923TIP3    H233185   6.641   4.658   1.723  0.0525 -1.4685 -0.9809
 3924TIP3   OH233186   6.416   5.897   6.215  0.2457 -0.2095  0.1227
 3924TIP3    H133187   6.457   5.821   6.257  0.1750  0.5836  1.6871
 3924TIP3    H233188   6.358   5.859   6.149  0.5678 -1.5002  0.5511
 3925TIP3   OH233189   6.762   3.506  11.947  0.5942 -0.3801  0.2231
 3925TIP3    H133190   6.713   3.574  11.995  1.4626  1.7389 -1.6849
 3925TIP3    H233191   6.800   3.451  12.015  0.6438  1.6518  1.9559
 3926TIP3   OH233192   5.313   3.937   3.933 -0.1720 -0.4873  0.2222
 3926TIP3    H133193   5.319   3.984   3.850  3.4190  0.6483  0.9527
 3926TIP3    H233194   5.342   3.848   3.913 -2.6717 -1.2750 -0.2884
 3927TIP3   OH233195   2.469   0.732  15.906 -0.1520 -0.1044 -0.5002
 3927TIP3    H133196   2.551   0.743  15.954  0.2855 -1.9838 -0.7716
 3927TIP3    H233197   2.402   0.769  15.965  0.6911  0.0790  0.3655
 3928TIP3   OH233198   3.660   5.305  14.891 -0.6398  0.4220  0.0624
 3928TIP3    H133199   3.630   5.238  14.953 -2.2885  1.1404  0.1106
 3928TIP3    H233200   3.589   5.370  14.891 -0.3680  0.7816 -2.0677
 3929TIP3   OH233201   5.732   6.007   5.165 -0.0702 -0.1341 -0.2997
 3929TIP3    H133202   5.756   5.916   5.148  0.1238  0.2829 -2.6524
 3929TIP3    H233203   5.637   6.008   5.156  0.0309  0.0854 -1.6931
 3930TIP3   OH233204   0.326   6.610   0.367  0.1539  0.1578  0.2245
 3930TIP3    H133205   0.379   6.675   0.320  0.3429 -0.5838 -0.6170
 3930TIP3    H233206   0.322   6.642   0.457  2.2239  0.1194  0.3645
 3931TIP3   OH233207   4.612   3.720   4.779  0.0559 -0.3620  0.1890
 3931TIP3    H133208   4.539   3.711   4.719 -0.5856  0.1483  0.8760
 3931TIP3    H233209   4.688   3.689   4.730 -0.0635  1.9873 -1.6234
 3932TIP3   OH233210   5.570   1.870   1.318 -0.1506  0.1950 -0.9133
 3932TIP3    H133211   5.603   1.926   1.389  2.1304 -1.7158 -0.3165
 3932TIP3    H233212   5.646   1.858   1.261 -0.9430 -1.1966 -1.7154
 3933TIP3   OH233213   3.961   5.603   5.416  0.7126  0.1140  0.1938
 3933TIP3    H133214   3.918   5.518   5.409  0.2729  0.3408  0.0995
 3933TIP3    H233215   4.053   5.585   5.399  0.5697 -0.2927 -0.1764
 3934TIP3   OH233216   4.930   2.799   2.821  0.1426 -0.6681  0.7285
 3934TIP3    H133217   4.895   2.888   2.831  0.5071 -0.4802  0.3546
 3934TIP3    H233218   4.854   2.742   2.832  0.1348 -0.3874  2.3962
 3935TIP3   OH233219   1.259   6.604  14.229 -0.2443  0.0282 -0.4048
 3935TIP3    H133220   1.220   6.686  14.199  1.2848  0.9919  0.0826
 3935TIP3    H233221   1.302   6.568  14.151 -0.5194 -0.0734 -0.5107
 3936TIP3   OH233222   1.127   1.135   1.269  0.2027 -0.1091  0.2562
 3936TIP3    H133223   1.095   1.209   1.320  0.3267  0.0660  0.0778
 3936TIP3    H233224   1.218   1.124   1.296  0.3262  0.1083 -0.0736
 3937TIP3   OH233225   1.879   5.854  16.638 -0.5739  0.2851 -0.3490
 3937TIP3    H133226   1.946   5.813  16.693  0.6704  1.3380 -1.0369
 3937TIP3    H233227   1.864   5.940  16.678 -0.1097  0.8106 -1.2667
 3938TIP3   OH233228   0.719   3.528  17.198 -0.6938 -0.2004 -0.0473
 3938TIP3    H133229   0.692   3.524  17.106  0.7315 -1.5715 -0.4671
 3938TIP3    H233230   0.752   3.439  17.216 -2.5682 -0.4949  2.3288
 3939TIP3   OH233231   3.672   5.979  11.023 -0.6671  0.6844 -0.0521
 3939TIP3    H133232   3.688   5.889  10.995 -1.5635  0.1091  1.2147
 3939TIP3    H233233   3.637   6.022  10.945 -0.9965 -0.2718 -0.4414
 3940TIP3   OH233234   6.612   1.468   4.483 -0.1229 -0.4474 -0.0958
 3940TIP3    H133235   6.539   1.438   4.537 -0.5154 -1.2587 -1.0376
 3940TIP3    H233236   6.690   1.434   4.527 -0.3574 -0.1126  0.5809
 3941TIP3   OH233237   0.219   2.675   2.740  0.0636  0.6299 -0.2796
 3941TIP3    H133238   0.307   2.639   2.726 -0.6386 -0.4893 -2.4221
 3941TIP3    H233239   0.232   2.769   2.744  1.3385  0.5155 -1.0714
 3942TIP3   OH233240   1.989   4.400   2.599  0.0477  0.3538  0.6055
 3942TIP3    H133241   1.973   4.381   2.506 -0.9965  0.4353  0.7497
 3942TIP3    H233242   2.028   4.487   2.599 -1.7337  1.2018  0.3185
 3943TIP3   OH233243   3.233   4.013   2.750 -0.2142  0.5724 -0.1154
 3943TIP3    H133244   3.299   4.010   2.680  1.6505 -0.1821  1.5873
 3943TIP3    H233245   3.167   3.950   2.723  1.6534 -1.5092 -0.1650
 3944TIP3   OH233246   0.028   0.027  13.515  0.0502  0.5586 -0.2211
 3944TIP3    H133247   0.094  -0.005  13.453  1.9498  1.1375  1.4174
 3944TIP3    H233248   0.073   0.095  13.565 -2.4687  2.5899 -0.4927
 3945TIP3   OH233249   2.854   0.535  15.618 -0.5883 -0.3443  0.2062
 3945TIP3    H133250   2.910   0.459  15.609 -0.3317  0.0429 -1.9883
 3945TIP3    H233251   2.896   0.587  15.687  0.8654 -0.8154 -0.2775
 3946TIP3   OH233252   4.331   1.537   5.569  0.4301  0.0786  0.3096
 3946TIP3    H133253   4.278   1.493   5.635 -0.1369  2.1259  1.2823
 3946TIP3    H233254   4.398   1.472   5.546 -0.6781 -1.4796  1.2412
 3947TIP3   OH233255   4.573   6.388   2.413  0.0535  0.3022 -0.0730
 3947TIP3    H133256   4.659   6.375   2.372 -0.4108  0.6462 -1.1898
 3947TIP3    H233257   4.593   6.423   2.500  1.0397  1.5522 -0.7597
 3948TIP3   OH233258   1.939   5.651  15.467 -0.0938  0.1990  0.0522
 3948TIP3    H133259   1.871   5.714  15.444 -0.6073  1.0700  3.4342
 3948TIP3    H233260   2.013   5.705  15.494  0.3568 -0.6966  0.6384
 3949TIP3   OH233261   1.555   1.873  16.444 -0.8481  0.5201 -0.2347
 3949TIP3    H133262   1.558   1.912  16.531 -1.4730  0.5234 -0.2070
 3949TIP3    H233263   1.564   1.779  16.459  1.6230  0.6916 -0.3702
 3950TIP3   OH233264   5.066   3.340  16.588 -0.0492 -0.0839  0.0478
 3950TIP3    H133265   5.051   3.433  16.571 -4.1324 -0.7210 -1.0070
 3950TIP3    H233266   5.004   3.318  16.657  0.2809 -2.1731 -0.2649
 3951TIP3   OH233267   5.663   1.782   0.071  0.3927 -0.2938  0.4854
 3951TIP3    H133268   5.640   1.696   0.106  1.6736 -0.8045  0.1194
 3951TIP3    H233269   5.629   1.781  -0.019 -2.4505  0.8315  1.4335
 3952TIP3   OH233270   1.927   5.925   4.592 -0.0897  0.2612 -0.3422
 3952TIP3    H133271   1.866   5.952   4.662 -0.7165 -1.2641 -0.2532
 3952TIP3    H233272   2.014   5.945   4.627 -0.4929  2.5750 -0.5059
 3953TIP3   OH233273   2.028   5.950  11.508  0.3246  0.1471 -0.2565
 3953TIP3    H133274   2.008   6.021  11.569  1.1634  0.4971 -0.3740
 3953TIP3    H233275   2.122   5.956  11.495  0.2325 -0.2594 -1.1721
 3954TIP3   OH233276   1.920   4.929  16.756  0.1253 -0.3353 -0.1360
 3954TIP3    H133277   1.921   4.984  16.678 -0.6757 -1.1403 -0.7354
 3954TIP3    H233278   1.830   4.934  16.788  0.2567 -0.6312  0.2899
 3955TIP3   OH233279   0.368   2.471  11.138 -0.1984 -0.4280  0.4853
 3955TIP3    H133280   0.283   2.489  11.097  0.6713 -0.4717 -1.4812
 3955TIP3    H233281   0.426   2.537  11.100  0.8923 -1.1437  0.8696
 3956TIP3   OH233282   5.692   6.272  12.192  0.5697 -0.1808 -0.4841
 3956TIP3    H133283   5.611   6.239  12.230  1.4153 -0.7833  0.8774
 3956TIP3    H233284   5.663   6.335  12.125 -1.0542  1.9784  2.0174
 3957TIP3   OH233285   1.167   1.963   0.445 -0.9669  0.2113  0.0359
 3957TIP3    H133286   1.077   1.970   0.413 -0.5321  2.4606 -0.8810
 3957TIP3    H233287   1.213   2.033   0.401  1.2307 -0.7917  0.6270
 3958TIP3   OH233288   5.444   5.714   1.072  0.1100 -0.2937 -0.4028
 3958TIP3    H133289   5.474   5.684   1.158 -0.2598 -1.4872 -0.6650
 3958TIP3    H233290   5.349   5.721   1.081  0.1329  0.1980 -0.5319
 3959TIP3   OH233291   0.788   6.346   3.593 -0.5580 -1.2057  0.4124
 3959TIP3    H133292   0.868   6.316   3.550 -0.9062 -3.7868  1.3581
 3959TIP3    H233293   0.727   6.273   3.581 -1.5012 -0.9131  2.9985
 3960TIP3   OH233294   4.805   3.084  11.375  0.2074 -0.1835  0.2225
 3960TIP3    H133295   4.720   3.070  11.416  0.2677 -0.8905  0.1171
 3960TIP3    H233296   4.784   3.118  11.288 -0.0432 -2.0249 -0.4728
 3961TIP3   OH233297   6.207   1.673  14.586 -0.1396  0.1444 -0.0614
 3961TIP3    H133298   6.128   1.716  14.619  0.4512  1.4948 -0.3568
 3961TIP3    H233299   6.203   1.685  14.491 -0.3563 -1.1619 -0.2300
 3962TIP3   OH233300   3.600   3.745   1.720  0.3691  0.6271 -0.3742
 3962TIP3    H133301   3.656   3.791   1.782  0.3494  1.7148 -1.1380
 3962TIP3    H233302   3.523   3.801   1.710  1.1357  1.3833 -2.6830
 3963TIP3   OH233303   3.350   2.357   4.522  0.2994 -0.3117  0.2271
 3963TIP3    H133304   3.410   2.295   4.564  0.3339 -0.0505  0.5720
 3963TIP3    H233305   3.264   2.335   4.557  0.1038 -1.0400 -0.6814
 3964TIP3   OH233306   5.468   2.977   0.544  0.4172  0.5582  0.0293
 3964TIP3    H133307   5.392   2.926   0.575  0.6457  0.5699  0.6266
 3964TIP3    H233308   5.538   2.953   0.604  1.4217 -0.9046 -1.6487
 3965TIP3   OH233309   1.443   1.949   5.195 -0.4454  0.3846  0.4396
 3965TIP3    H133310   1.350   1.941   5.173 -0.0604  0.5281 -1.3954
 3965TIP3    H233311   1.475   2.019   5.138  0.4950  1.3360  2.0812
 3966TIP3   OH233312   0.088   0.759  17.162 -0.0187  0.1836  0.0448
 3966TIP3    H133313   0.096   0.714  17.078 -1.3026 -0.1229  0.0667
 3966TIP3    H233314   0.147   0.834  17.155  1.4911 -0.9808 -0.3235
 3967TIP3   OH233315   6.167   5.417  11.484  0.7786 -0.1541  0.2194
 3967TIP3    H133316   6.185   5.492  11.427  1.2292  0.0335  0.6070
 3967TIP3    H233317   6.151   5.455  11.570 -1.9506 -0.2609 -0.1548
 3968TIP3   OH233318   5.900   0.627  12.369 -0.1558  0.1654  0.0967
 3968TIP3    H133319   5.819   0.677  12.377 -0.3506  0.2642 -2.0439
 3968TIP3    H233320   5.875   0.545  12.326  0.5633 -0.7314  1.3165
 3969TIP3   OH233321   5.158   2.625  15.163 -0.1152  0.0588  0.7141
 3969TIP3    H133322   5.070   2.664  15.159 -0.0367  0.1287 -0.6189
 3969TIP3    H233323   5.208   2.672  15.097  1.1407  0.4886  1.9214
 3970TIP3   OH233324   4.827   5.146   2.163 -0.0115 -0.1503  0.1081
 3970TIP3    H133325   4.825   5.149   2.067 -0.1430 -0.3835  0.1020
 3970TIP3    H233326   4.749   5.193   2.190  0.3499  0.4464  0.1143
 3971TIP3   OH233327   1.066   4.935  12.893  0.6907  0.0642  0.6395
 3971TIP3    H133328   1.078   5.022  12.932  1.7693  0.5578 -0.7369
 3971TIP3    H233329   1.128   4.879  12.940 -0.3974 -0.1388  1.9181
 3972TIP3   OH233330   1.623   2.256   5.622 -0.0140 -0.3086  0.0161
 3972TIP3    H133331   1.612   2.161   5.620  0.3049 -0.5623  3.3738
 3972TIP3    H233332   1.581   2.287   5.542 -2.8810 -3.0513  0.2581
 3973TIP3   OH233333   2.880   2.742   5.586 -0.0544  0.3710 -0.7552
 3973TIP3    H133334   2.919   2.826   5.609  0.6262 -0.2931  0.7147
 3973TIP3    H233335   2.939   2.677   5.625 -1.6637 -0.7253 -0.0320
 3974TIP3   OH233336   4.440   4.724  14.567  0.2034  0.3553 -0.2346
 3974TIP3    H133337   4.418   4.814  14.593 -1.5009  0.1180 -0.6977
 3974TIP3    H233338   4.403   4.715  14.479 -0.1859 -0.9638  0.0371
 3975TIP3   OH233339   2.960   4.566  12.941  0.0457 -0.2193  0.3538
 3975TIP3    H133340   2.923   4.526  13.020  0.0343  1.5541  1.3173
 3975TIP3    H233341   2.954   4.498  12.874  0.9296 -2.1394  2.0884
 3976TIP3   OH233342   3.848   0.110   2.529  0.1413  0.2576 -0.0318
 3976TIP3    H133343   3.928   0.149   2.495 -0.6123  0.9097 -1.1278
 3976TIP3    H233344   3.785   0.183   2.531 -0.5228 -0.3154  0.4836
 3977TIP3   OH233345   4.546   5.153   0.737  0.0528 -0.0447 -0.8661
 3977TIP3    H133346   4.508   5.109   0.813  2.2060  0.2610  0.4743
 3977TIP3    H233347   4.534   5.246   0.755 -1.4046  0.0259 -2.0253
 3978TIP3   OH233348   5.959   4.332  13.402  0.4132 -0.3015  0.0419
 3978TIP3    H133349   6.019   4.383  13.346 -0.3305  0.6836  0.1112
 3978TIP3    H233350   5.984   4.241  13.387 -1.1333 -0.2842 -3.5705
 3979TIP3   OH233351   3.261   6.098   0.903  0.0899  0.1321 -0.5674
 3979TIP3    H133352   3.186   6.038   0.901 -0.3227  0.5465  1.3217
 3979TIP3    H233353   3.324   6.056   0.962  1.5050 -0.3137 -2.2764
 3980TIP3   OH233354   3.244   4.829  11.420  0.4552 -0.2383 -0.0536
 3980TIP3    H133355   3.321   4.878  11.390  0.1812 -0.7261 -1.6016
 3980TIP3    H233356   3.215   4.780  11.344 -1.8073  0.4405  0.2985
 3981TIP3   OH233357   4.152   0.235  14.407  0.7382  0.1215  0.2557
 3981TIP3    H133358   4.071   0.287  14.415  1.0146  0.3946  1.5643
 3981TIP3    H233359   4.208   0.268  14.477  0.7132 -2.3280  1.5379
 3982TIP3   OH233360   1.826   0.353  11.485 -0.0132 -0.1032  0.3463
 3982TIP3    H133361   1.867   0.439  11.475  0.0916  0.2347  3.0838
 3982TIP3    H233362   1.795   0.351  11.575 -0.8944 -2.5843  0.0590
 3983TIP3   OH233363   6.322   4.116   2.507  0.0354 -0.1719 -0.3085
 3983TIP3    H133364   6.300   4.104   2.415  0.9736 -0.8597 -0.4575
 3983TIP3    H233365   6.321   4.027   2.544 -0.0345  0.0644  0.2814
 3984TIP3   OH233366   3.475   5.359   3.885  0.2302 -0.3552  0.0566
 3984TIP3    H133367   3.448   5.360   3.977  1.9233  0.0602  0.5818
 3984TIP3    H233368   3.416   5.296   3.844 -0.1414 -1.0428  1.5593
 3985TIP3   OH233369   5.166   1.782  11.404  0.1664 -0.4018  0.3243
 3985TIP3    H133370   5.156   1.694  11.442 -3.0500 -0.3775 -0.2050
 3985TIP3    H233371   5.125   1.840  11.468 -1.4725  0.1493 -1.1583
 3986TIP3   OH233372   4.576   0.655  15.488 -0.0884 -0.0533 -0.5821
 3986TIP3    H133373   4.667   0.641  15.513  0.2878 -0.4426 -2.0811
 3986TIP3    H233374   4.556   0.583  15.428 -1.4095 -0.0092 -0.2311
 3987TIP3   OH233375   6.753   1.481  15.575  1.0049  0.0531  0.0805
 3987TIP3    H133376   6.787   1.504  15.662  0.5829  1.6216 -0.1223
 3987TIP3    H233377   6.828   1.488  15.516  0.9581  0.6039  0.0810
 3988TIP3   OH233378   1.797   4.577   5.450 -0.1523 -0.6209 -0.2541
 3988TIP3    H133379   1.891   4.593   5.454 -0.3074  0.4506 -0.7149
 3988TIP3    H233380   1.763   4.644   5.391 -1.3226 -0.4774  0.5481
 3989TIP3   OH233381   0.421   0.935   3.826 -0.2162 -0.1740 -0.3229
 3989TIP3    H133382   0.334   0.975   3.832 -0.3365 -0.4954  0.1260
 3989TIP3    H233383   0.404   0.841   3.816  0.0744 -0.4148  1.2047
 3990TIP3   OH233384   6.305   1.255  12.568 -0.1791  0.3306 -0.2499
 3990TIP3    H133385   6.357   1.300  12.502 -0.9376 -0.1998 -1.2269
 3990TIP3    H233386   6.355   1.265  12.649  1.8811 -0.8960 -1.3020
 3991TIP3   OH233387   5.943   6.458   4.647 -0.2463  0.1971 -0.6064
 3991TIP3    H133388   5.946   6.530   4.584 -3.0746 -0.2588 -1.3854
 3991TIP3    H233389   5.946   6.379   4.593 -0.0282 -0.2409  0.0361
 3992TIP3   OH233390   0.712   0.208  14.413  0.4255 -0.6132 -0.0592
 3992TIP3    H133391   0.752   0.288  14.378 -1.1981  0.5631  0.6630
 3992TIP3    H233392   0.771   0.181  14.483 -0.4082  1.6350  1.6452
 3993TIP3   OH233393   3.850   0.955  14.949 -0.1492 -0.0064 -0.0985
 3993TIP3    H133394   3.757   0.975  14.938 -0.0585  0.0293 -0.8789
 3993TIP3    H233395   3.870   0.979  15.039 -0.7389  0.6071 -0.1278
 3994TIP3   OH233396   6.555   3.243   3.999 -0.6532  0.0960  0.3285
 3994TIP3    H133397   6.553   3.202   3.913 -0.6618  0.6902  0.0394
 3994TIP3    H233398   6.463   3.254   4.022 -0.7099 -1.9480  1.3538
 3995TIP3   OH233399   0.294   1.288  10.664  0.3030 -0.1946  0.0425
 3995TIP3    H133400   0.386   1.276  10.641  0.0775 -1.0779 -0.4307
 3995TIP3    H233401   0.276   1.217  10.726 -0.7007 -1.5820 -1.7696
 3996TIP3   OH233402   4.798   6.739   0.666  0.1439 -0.5485 -0.1187
 3996TIP3    H133403   4.759   6.660   0.704 -4.3190  1.3288 -0.1823
 3996TIP3    H233404   4.737   6.764   0.596  2.4287  1.9635 -1.3962
 3997TIP3   OH233405   6.344   2.999   0.031 -0.0672  0.2030 -0.1593
 3997TIP3    H133406   6.372   2.967   0.116 -2.7511 -0.8131  0.4427
 3997TIP3    H233407   6.331   3.093   0.045 -1.7371 -0.1562  0.9909
 3998TIP3   OH233408   0.696   3.409   3.148  0.0495  0.8662  0.7419
 3998TIP3    H133409   0.744   3.333   3.115 -1.3570 -1.3424  3.3556
 3998TIP3    H233410   0.613   3.408   3.099  0.3818  1.2650  0.1646
 3999TIP3   OH233411   5.520   4.262  15.147 -0.2098 -0.0348  0.3281
 3999TIP3    H133412   5.540   4.247  15.055 -2.8151  0.2067 -0.3496
 3999TIP3    H233413   5.572   4.340  15.171  2.1090 -1.3116 -0.2597
 4000TIP3   OH233414   1.069   3.667  12.878 -0.7684  0.7317 -0.9031
 4000TIP3    H133415   1.085   3.758  12.904  1.4248 -0.0452  0.7496
 4000TIP3    H233416   1.014   3.632  12.948  0.7618  0.0584  0.0022
 4001TIP3   OH233417   2.449   4.909  15.253  0.9858 -0.5989  0.3756
 4001TIP3    H133418   2.543   4.922  15.264  0.8597  0.7540 -0.0025
 4001TIP3    H233419   2.419   4.987  15.208 -0.9683  0.8915  3.8680
 4002TIP3   OH233420   4.788   5.085  13.546 -0.4008  0.4481  0.1577
 4002TIP3    H133421   4.849   5.012  13.558 -0.0261  0.7563  0.1382
 4002TIP3    H233422   4.800   5.140  13.623  1.3111  1.9238 -1.0952
 4003TIP3   OH233423   0.109   3.757   2.085 -0.3403  0.3423 -0.5596
 4003TIP3    H133424   0.101   3.699   2.010 -2.9685 -0.0606 -0.0438
 4003TIP3    H233425   0.186   3.724   2.133  1.0823  0.3174 -2.7238
 4004TIP3   OH233426   5.773   3.956   6.347  0.2977  0.2045 -0.1108
 4004TIP3    H133427   5.784   4.048   6.326  2.6508 -0.4444 -2.1647
 4004TIP3    H233428   5.837   3.939   6.416  0.7026 -0.1304 -0.5638
 4005TIP3   OH233429   6.391   2.843   3.037  0.1861  0.3115 -0.4654
 4005TIP3    H133430   6.430   2.792   3.108  1.0446 -0.9013 -1.7520
 4005TIP3    H233431   6.451   2.917   3.026  0.5083  0.0533 -0.4728
 4006TIP3   OH233432   3.445   0.776   2.297  0.0145 -0.2446  1.0958
 4006TIP3    H133433   3.505   0.704   2.276 -1.5159 -1.5445  0.9986
 4006TIP3    H233434   3.372   0.734   2.343 -1.5495  1.0206 -0.1123
 4007TIP3   OH233435   4.539   3.063   4.385 -0.1314 -0.1075 -0.0884
 4007TIP3    H133436   4.461   3.097   4.429 -0.3459 -1.2706  0.4608
 4007TIP3    H233437   4.512   3.053   4.294 -1.4911 -2.7982  0.4925
 4008TIP3   OH233438   4.093   1.290   5.223  0.0511  0.2165  0.1562
 4008TIP3    H133439   4.173   1.242   5.243  0.2735  0.2653 -0.5973
 4008TIP3    H233440   4.090   1.361   5.287 -0.5659 -1.1035  1.6455
 4009TIP3   OH233441   3.384   4.445  15.990 -0.2863  0.4863 -0.5073
 4009TIP3    H133442   3.293   4.475  15.989 -0.0610  1.2308 -0.0615
 4009TIP3    H233443   3.378   4.352  16.011 -0.9454  0.5145 -0.5314
 4010TIP3   OH233444   0.402   6.286   2.509 -0.0621 -0.0131  0.0621
 4010TIP3    H133445   0.349   6.356   2.469  0.4562  0.2577 -0.1616
 4010TIP3    H233446   0.461   6.258   2.439 -0.9533 -1.3980 -0.1658
 4011TIP3   OH233447   0.694   4.849  11.634 -0.1235  0.0511  0.1170
 4011TIP3    H133448   0.609   4.835  11.593 -0.1865  1.5126 -0.3114
 4011TIP3    H233449   0.693   4.941  11.660  0.5407 -0.4127  1.9920
 4012TIP3   OH233450   2.523   2.772  17.150  0.1524 -0.5172 -0.7698
 4012TIP3    H133451   2.499   2.804  17.063  0.9257  0.0697 -0.7822
 4012TIP3    H233452   2.580   2.698  17.133 -2.1036 -2.3680 -0.7413
 4013TIP3   OH233453   1.909   4.879   6.468 -0.5001 -0.5171  0.0371
 4013TIP3    H133454   1.985   4.821   6.457 -0.8652 -1.0061  0.0586
 4013TIP3    H233455   1.900   4.923   6.383  1.3517  1.4809  0.7809
 4014TIP3   OH233456   2.045   1.530   3.383 -0.1441  0.3408  0.0343
 4014TIP3    H133457   1.999   1.448   3.368  0.2723  0.2857 -1.0667
 4014TIP3    H233458   2.120   1.507   3.438  0.8700 -0.3428 -1.5603
 4015TIP3   OH233459   1.340   5.681   0.056 -0.3686 -0.2728  0.2195
 4015TIP3    H133460   1.247   5.661   0.060 -0.2675 -0.9814 -0.6594
 4015TIP3    H233461   1.345   5.776   0.060 -1.0759 -0.2656  1.0644
 4016TIP3   OH233462   1.463   6.046   5.491  0.0385  0.0801 -0.2799
 4016TIP3    H133463   1.482   5.958   5.459 -0.7831 -0.1438 -0.1731
 4016TIP3    H233464   1.374   6.065   5.460 -0.5264  0.1282  1.2670
 4017TIP3   OH233465   2.155   2.042  12.169 -0.6895  0.4332 -0.6569
 4017TIP3    H133466   2.183   2.053  12.260 -3.1088  1.5589  0.0296
 4017TIP3    H233467   2.186   2.121  12.125 -0.5335  0.4438 -0.5299
 4018TIP3   OH233468   6.371   0.282  14.260  0.3504  0.3141  0.2365
 4018TIP3    H133469   6.425   0.233  14.198  0.7745  0.6140  0.3592
 4018TIP3    H233470   6.417   0.273  14.344 -1.3233 -1.8837  1.0197
 4019TIP3   OH233471   3.822   3.873  14.125 -0.3540  0.2047  0.2358
 4019TIP3    H133472   3.772   3.899  14.202  1.6531 -0.1099  1.7041
 4019TIP3    H233473   3.849   3.956  14.085 -0.9529  0.3613  0.1428
 4020TIP3   OH233474   3.271   6.719   6.180  0.0207  0.2835 -0.3814
 4020TIP3    H133475   3.231   6.802   6.206  2.2520  0.7132  2.1514
 4020TIP3    H233476   3.234   6.654   6.240  2.3742  0.5860  1.5876
 4021TIP3   OH233477   3.810   0.745   0.633  0.1361  0.2339 -0.0167
 4021TIP3    H133478   3.795   0.661   0.676 -1.5449  0.5527  0.1124
 4021TIP3    H233479   3.880   0.786   0.684 -0.1311 -0.4226  0.9113
 4022TIP3   OH233480   0.678   5.679  10.899 -0.3135  0.3135 -0.1893
 4022TIP3    H133481   0.616   5.639  10.960  0.5477  0.1410  0.5864
 4022TIP3    H233482   0.711   5.756  10.945  0.2341  0.2626 -0.4879
 4023TIP3   OH233483   5.433   2.182   6.187 -0.3286 -0.0960  0.2641
 4023TIP3    H133484   5.484   2.101   6.188  0.9726  0.6790  2.2685
 4023TIP3    H233485   5.451   2.220   6.101  0.8613 -0.8361  0.1604
 4024TIP3   OH233486   3.741   1.731   2.142  0.0837 -0.4243  0.2346
 4024TIP3    H133487   3.707   1.746   2.054 -0.1731  0.2337  0.4384
 4024TIP3    H233488   3.735   1.636   2.154 -0.4565 -0.4566 -0.2249
 4025TIP3   OH233489   3.650   1.749  11.363  0.7146 -0.3272 -0.1973
 4025TIP3    H133490   3.612   1.665  11.387  0.7769 -0.5263 -0.7672
 4025TIP3    H233491   3.601   1.777  11.286  1.9000 -0.7461 -1.1452
 4026TIP3   OH233492   5.605   5.328  10.353 -0.4656  0.8951  0.1715
 4026TIP3    H133493   5.613   5.402  10.293 -1.0063  1.7993  1.1835
 4026TIP3    H233494   5.691   5.322  10.395 -0.2623  0.6176 -0.2786
 4027TIP3   OH233495   2.277   6.503  14.098 -0.2211 -0.4124 -0.9940
 4027TIP3    H133496   2.342   6.453  14.049 -0.6305 -1.5499 -0.4014
 4027TIP3    H233497   2.317   6.590  14.108  1.0487 -0.9651 -0.9828
 4028TIP3   OH233498   6.089   5.747  15.818 -0.4339  0.6702 -0.2494
 4028TIP3    H133499   6.010   5.790  15.786  0.4905  1.4435 -1.6120
 4028TIP3    H233500   6.071   5.654  15.811 -1.2037  0.8386 -0.5921
 4029TIP3   OH233501   2.908   3.967   0.603 -0.1883  0.0864 -0.2970
 4029TIP3    H133502   2.931   4.001   0.517  1.5074  1.0702  0.4879
 4029TIP3    H233503   2.836   3.906   0.587  1.0614 -0.9195 -2.6073
 4030TIP3   OH233504   4.295   1.138  17.069 -0.0743 -0.1024 -0.0287
 4030TIP3    H133505   4.381   1.140  17.026 -0.3563  2.9677 -0.7245
 4030TIP3    H233506   4.254   1.058  17.037  2.7055 -2.0307  0.8447
 4031TIP3   OH233507   4.834   2.291   2.413 -0.0297  0.0313 -0.1252
 4031TIP3    H133508   4.882   2.323   2.489 -2.1216 -1.9080  2.1783
 4031TIP3    H233509   4.796   2.370   2.374  1.6131  1.1379  0.4113
 4032TIP3   OH233510   4.688   6.354  15.623  0.3359  0.2794  0.3447
 4032TIP3    H133511   4.675   6.313  15.537  0.1453 -0.3429  0.6664
 4032TIP3    H233512   4.677   6.282  15.686  3.2766  0.0987  0.7855
 4033TIP3   OH233513   2.218   4.998  15.444  0.2073  0.3290 -0.4453
 4033TIP3    H133514   2.146   5.061  15.446 -0.6292 -0.6105  0.8394
 4033TIP3    H233515   2.213   4.959  15.357 -1.1015  0.0230 -0.2664
 4034TIP3   OH233516   5.039   5.118  12.024  0.1727  0.6044  0.4489
 4034TIP3    H133517   5.041   5.049  11.957 -1.9346  1.0505 -0.1407
 4034TIP3    H233518   4.960   5.099  12.075  0.5705  1.5463  1.4401
 4035TIP3   OH233519   6.060   2.892   5.047  0.5093  0.0263 -0.6262
 4035TIP3    H133520   5.987   2.949   5.071  0.9163  0.9311 -1.4950
 4035TIP3    H233521   6.048   2.814   5.101 -0.8602  0.3346 -0.4592
 4036TIP3   OH233522   2.720   6.444  13.608 -0.1259 -0.7326  0.9356
 4036TIP3    H133523   2.720   6.358  13.650  0.6722 -0.8475  0.7235
 4036TIP3    H233524   2.721   6.425  13.515 -0.5593 -0.4863  0.8797
 4037TIP3   OH233525   5.808   5.022   2.043 -0.7393  0.0020 -0.0207
 4037TIP3    H133526   5.813   5.117   2.050 -0.9969  0.0395 -0.3345
 4037TIP3    H233527   5.857   4.990   2.118 -0.8278  0.3830  0.2006
 4038TIP3   OH233528   0.456   1.259   0.456 -0.0296  0.8863 -0.0110
 4038TIP3    H133529   0.398   1.215   0.394 -0.0583 -2.5570  2.1771
 4038TIP3    H233530   0.403   1.330   0.492 -2.1272 -0.7314  0.2742
 4039TIP3   OH233531   5.572   5.935   0.928  0.3525  0.5774  0.1363
 4039TIP3    H133532   5.621   6.001   0.977 -0.4025  0.8748  0.5080
 4039TIP3    H233533   5.537   5.877   0.996  0.5871  0.0849 -0.1580
 4040TIP3   OH233534   1.095   4.983  12.377 -0.2906 -0.5237 -0.2281
 4040TIP3    H133535   1.088   5.047  12.448 -0.2168 -1.8675  1.0398
 4040TIP3    H233536   1.012   4.935  12.380  0.5298 -1.9529  0.3352
 4041TIP3   OH233537   0.600   0.702   0.228  0.4191 -0.4071  0.0029
 4041TIP3    H133538   0.580   0.761   0.155  2.1561 -0.3175 -0.4521
 4041TIP3    H233539   0.661   0.638   0.191  1.7728 -0.0436  1.4836
 4042TIP3   OH233540   6.352   4.685   3.804  0.0201 -0.2844 -0.6880
 4042TIP3    H133541   6.430   4.706   3.753  0.5650 -2.0008 -0.6461
 4042TIP3    H233542   6.317   4.607   3.761  0.8457 -2.1790  1.8293
 4043TIP3   OH233543   0.872   6.436  15.751  0.1884 -0.0656  0.2731
 4043TIP3    H133544   0.949   6.450  15.807  1.2364  1.3633 -1.4140
 4043TIP3    H233545   0.909   6.409  15.667 -1.2172 -0.2935 -0.2915
 4044TIP3   OH233546   6.107   4.486  15.810 -0.3322 -0.5253 -0.1793
 4044TIP3    H133547   6.106   4.580  15.792  0.3013 -0.6515 -0.9328
 4044TIP3    H233548   6.198   4.467  15.833 -0.3572 -1.0246 -0.4650
 4045TIP3   OH233549   4.761   0.875  17.335 -0.2380  0.7334 -0.5198
 4045TIP3    H133550   4.825   0.929  17.290  0.0975  0.0633 -0.8679
 4045TIP3    H233551   4.811   0.801  17.369 -0.8079  0.2644 -0.6871
 4046TIP3   OH233552   3.659   5.843   5.999 -0.7021 -0.6246 -0.0327
 4046TIP3    H133553   3.653   5.876   6.088  0.4034 -1.1346  0.2452
 4046TIP3    H233554   3.645   5.920   5.944  1.1484  0.2261  0.5981
 4047TIP3   OH233555   4.735   2.455   5.730 -0.0272  0.1835 -1.0904
 4047TIP3    H133556   4.810   2.434   5.675  1.3640 -1.3654  1.2308
 4047TIP3    H233557   4.725   2.550   5.722  1.1085  0.2131 -2.7087
 4048TIP3   OH233558   0.688   4.049   0.498 -0.3929  0.0118  0.0844
 4048TIP3    H133559   0.686   4.000   0.415  0.0272 -1.6700  1.0306
 4048TIP3    H233560   0.775   4.090   0.498 -0.4710  0.1865 -0.3993
 4049TIP3   OH233561   2.388   0.921  14.854  0.9049  0.5374  0.4330
 4049TIP3    H133562   2.327   0.917  14.928  0.0239  0.3924 -0.2765
 4049TIP3    H233563   2.408   1.014  14.845 -0.2782  0.7521 -0.1528
 4050TIP3   OH233564   1.650   2.005  14.930 -0.4651 -0.5402  0.3220
 4050TIP3    H133565   1.576   1.946  14.913 -1.0357  0.0283  0.7610
 4050TIP3    H233566   1.703   1.959  14.995 -0.7473 -0.7041  0.4409
 4051TIP3   OH233567   3.577   3.630   5.239  0.2558 -0.3690  0.3842
 4051TIP3    H133568   3.574   3.671   5.325  1.3280  2.2203 -0.7047
 4051TIP3    H233569   3.663   3.586   5.236  0.0053 -0.8994  0.7851
 4052TIP3   OH233570   0.839   4.560   0.280  0.1497  0.5311 -0.6128
 4052TIP3    H133571   0.872   4.608   0.204 -0.7322  1.2887 -0.5338
 4052TIP3    H233572   0.798   4.627   0.334 -1.2360 -0.3257 -0.5679
 4053TIP3   OH233573   4.202   0.511   5.229 -0.1851  0.2518  0.2352
 4053TIP3    H133574   4.259   0.482   5.158 -0.0647  0.0994  0.3912
 4053TIP3    H233575   4.113   0.494   5.198 -0.0905 -1.3252  0.7536
 4054TIP3   OH233576   2.190   1.590   4.909 -0.3619 -0.2822 -0.2204
 4054TIP3    H133577   2.167   1.681   4.931 -2.2123 -0.6104 -0.6163
 4054TIP3    H233578   2.123   1.563   4.846  3.0929 -0.2396 -4.3719
 4055TIP3   OH233579   1.729   2.877  10.941 -0.0043 -0.0178  0.3768
 4055TIP3    H133580   1.714   2.859  10.848  0.7926 -0.8054  0.3785
 4055TIP3    H233581   1.642   2.891  10.977 -0.6191 -2.4105  0.0197
 4056TIP3   OH233582   3.953   4.374   4.851  0.5224  0.2520  0.7951
 4056TIP3    H133583   4.004   4.453   4.868 -0.6110  1.3656 -0.7088
 4056TIP3    H233584   4.004   4.303   4.892  3.0588  1.3333 -0.2679
 4057TIP3   OH233585   1.091   4.676  16.280 -0.1298  0.1818  0.3553
 4057TIP3    H133586   1.009   4.724  16.279  0.2379  0.8182  0.1623
 4057TIP3    H233587   1.158   4.742  16.300  0.5599  0.0541 -1.3341
 4058TIP3   OH233588   3.406   1.316  13.989 -0.5974 -0.3516 -0.2005
 4058TIP3    H133589   3.336   1.357  14.040 -1.4888 -0.4241 -1.3168
 4058TIP3    H233590   3.465   1.388  13.967 -0.2891 -0.2949  0.7758
 4059TIP3   OH233591   0.217   5.763   4.375  0.6691 -0.3789  0.1926
 4059TIP3    H133592   0.188   5.688   4.428 -0.2896 -0.2315 -0.1136
 4059TIP3    H233593   0.172   5.838   4.412  2.4717  0.2637  1.2101
 4060TIP3   OH233594   0.489   6.693  13.674  0.5675 -0.2797  0.5054
 4060TIP3    H133595   0.422   6.629  13.696  0.0522  0.7480  2.1014
 4060TIP3    H233596   0.550   6.690  13.748 -0.1617  1.9264  1.2821
 4061TIP3   OH233597   5.175   3.690   2.796 -0.3410 -0.7987 -0.6858
 4061TIP3    H133598   5.257   3.732   2.821 -0.7993 -0.4870  0.3832
 4061TIP3    H233599   5.200   3.604   2.764  0.2699 -1.5870  1.6913
 4062TIP3   OH233600   3.818   3.494   1.351  0.3936  0.0842  0.0631
 4062TIP3    H133601   3.902   3.449   1.350  0.4829  0.2567 -0.3913
 4062TIP3    H233602   3.753   3.425   1.350  0.5243 -0.0362 -1.1479
 4063TIP3   OH233603   4.365   0.930   5.456 -0.2306  0.3664 -0.6399
 4063TIP3    H133604   4.305   0.954   5.385 -1.6366  0.5249  0.5790
 4063TIP3    H233605   4.378   0.836   5.445 -0.2988  0.4160 -1.1969
 4064TIP3   OH233606   1.079   4.868   5.634  0.0171  0.8968  0.0710
 4064TIP3    H133607   1.025   4.852   5.557  1.6693  0.4244 -1.0297
 4064TIP3    H233608   1.085   4.783   5.677 -1.1800  1.2267  0.9587
 4065TIP3   OH233609   2.271   3.326   2.004  0.7008 -0.7379  0.2973
 4065TIP3    H133610   2.326   3.404   2.015  0.1988 -0.3031 -0.1946
 4065TIP3    H233611   2.242   3.330   1.913 -1.0529 -0.3175  0.8249
 4066TIP3   OH233612   1.461   1.317   0.460  0.5698  0.3848  0.7942
 4066TIP3    H133613   1.409   1.297   0.538 -0.7159  0.4031 -0.0283
 4066TIP3    H233614   1.403   1.296   0.386  2.3318 -1.2165 -0.2223
 4067TIP3   OH233615   3.290   5.284  15.082  0.2834 -0.0736  0.6175
 4067TIP3    H133616   3.195   5.299  15.076  0.0268 -1.6260  0.3303
 4067TIP3    H233617   3.298   5.202  15.131  1.1765 -2.6290 -3.2779
 4068TIP3   OH233618   2.123   0.071  12.932  0.2309  0.5924 -0.1311
 4068TIP3    H133619   2.167   0.046  13.013  0.3420  1.9769  0.2625
 4068TIP3    H233620   2.148   0.162  12.918  0.4078  0.3124 -1.8666
 4069TIP3   OH233621   4.866   6.503   6.319  0.1757 -0.1854  0.7811
 4069TIP3    H133622   4.948   6.453   6.324  1.6192  2.0930  2.0605
 4069TIP3    H233623   4.829   6.480   6.234  2.6996 -0.5793 -0.3185
 4070TIP3   OH233624   3.510   4.520   6.141  0.3799 -0.4478  0.6130
 4070TIP3    H133625   3.468   4.576   6.206  1.5002  2.3048 -0.8608
 4070TIP3    H233626   3.591   4.565   6.119  1.8479 -3.1875 -0.0289
 4071TIP3   OH233627   3.665   1.669  16.135  0.3883 -0.7221 -0.0629
 4071TIP3    H133628   3.731   1.738  16.128 -0.8743  0.6468  0.6943
 4071TIP3    H233629   3.663   1.648  16.228 -0.3307 -0.6168 -0.0445
 4072TIP3   OH233630   2.382   2.183   0.041  0.0310 -0.0400 -0.0014
 4072TIP3    H133631   2.288   2.187   0.055 -0.0706  2.5142 -0.8670
 4072TIP3    H233632   2.413   2.116   0.102 -2.3184 -0.9862  0.2477
 4073TIP3   OH233633   5.810   4.408  10.267 -0.3529 -0.1225  0.4445
 4073TIP3    H133634   5.865   4.379  10.194 -1.2068 -0.9230  0.0970
 4073TIP3    H233635   5.862   4.389  10.345  0.3655  0.2722  0.0689
 4074TIP3   OH233636   5.807   3.281  15.272  0.1629  0.5205 -0.5906
 4074TIP3    H133637   5.731   3.264  15.216 -1.1890  2.5573  0.5172
 4074TIP3    H233638   5.824   3.374  15.263  0.1460  0.8582  2.0222
 4075TIP3   OH233639   3.008   0.310  17.181 -0.5213 -0.3822  0.5904
 4075TIP3    H133640   2.953   0.248  17.228 -0.0686 -1.1206  0.1845
 4075TIP3    H233641   3.044   0.259  17.108  2.6656 -0.6714  2.2066
 4076TIP3   OH233642   0.065   2.342  16.126  0.1818 -0.1234 -0.1533
 4076TIP3    H133643  -0.013   2.289  16.109  0.2054  0.0959 -1.0076
 4076TIP3    H233644   0.091   2.375  16.039  0.2660  1.1520  0.3362
 4077TIP3   OH233645   1.788   2.969  11.652 -0.0121  0.2338  0.4048
 4077TIP3    H133646   1.772   2.985  11.745  1.6229 -0.1675  0.7846
 4077TIP3    H233647   1.856   2.901  11.651  0.0018  0.2483 -1.0860
 4078TIP3   OH233648   1.105   6.012   6.221 -0.3965 -0.4305  0.2463
 4078TIP3    H133649   1.168   5.954   6.178  0.7594  1.0788 -0.1831
 4078TIP3    H233650   1.159   6.079   6.263 -1.6854  0.5189  0.4618
 4079TIP3   OH233651   0.867   3.030   4.239 -0.7299  0.0295 -0.0047
 4079TIP3    H133652   0.888   3.120   4.264  1.1079 -0.2560 -0.3313
 4079TIP3    H233653   0.813   3.039   4.160 -0.8041  0.8467  0.1313
 4080TIP3   OH233654   4.868   1.884  15.238  0.1332  0.2233  0.0686
 4080TIP3    H133655   4.924   1.933  15.177  0.4092  2.2259  1.8093
 4080TIP3    H233656   4.926   1.858  15.309 -0.0838 -2.4904 -0.6214
 4081TIP3   OH233657   4.995   3.865  11.843  0.5304  0.0156  0.1343
 4081TIP3    H133658   5.038   3.929  11.787 -0.0230 -0.7023 -1.1421
 4081TIP3    H233659   5.036   3.877  11.929 -0.4062  2.9629  0.2960
 4082TIP3   OH233660   6.770   3.086   0.847 -0.0312  0.1385  0.3893
 4082TIP3    H133661   6.856   3.082   0.806 -0.2226  0.0944 -0.0201
 4082TIP3    H233662   6.775   3.026   0.921  0.2052 -0.0723  0.2049
 4083TIP3   OH233663   4.522   0.809  15.765  0.0451 -0.0252 -0.4715
 4083TIP3    H133664   4.504   0.812  15.671 -0.8644  0.2873 -0.2926
 4083TIP3    H233665   4.443   0.773  15.804 -0.0802  1.0207  0.2918
 4084TIP3   OH233666   6.434   2.496   0.444  0.7973 -0.0429 -0.4458
 4084TIP3    H133667   6.439   2.460   0.355 -0.3782 -3.2115  0.6260
 4084TIP3    H233668   6.340   2.493   0.465  1.2015 -0.7966  1.3988
 4085TIP3   OH233669   3.204   1.677  15.749 -0.3544 -0.2726 -0.7390
 4085TIP3    H133670   3.259   1.753  15.768  0.7161 -0.9363 -1.1071
 4085TIP3    H233671   3.200   1.630  15.832 -2.1950  0.8656 -0.1036
 4086TIP3   OH233672   5.652   0.994   3.945  0.4255  0.1428 -0.0752
 4086TIP3    H133673   5.569   1.039   3.961 -0.7667 -1.1585 -2.2449
 4086TIP3    H233674   5.628   0.903   3.929  2.1516 -0.0969 -1.6423
 4087TIP3   OH233675   1.072   1.917  13.228 -0.1719 -0.1988  0.0803
 4087TIP3    H133676   1.161   1.883  13.220  0.5592  1.4643  0.5271
 4087TIP3    H233677   1.018   1.840  13.245  1.2222 -1.2174  0.0808
 4088TIP3   OH233678   6.535   1.246   3.196 -0.3896  0.5344 -0.1153
 4088TIP3    H133679   6.615   1.257   3.247  1.3148 -0.4722 -2.4085
 4088TIP3    H233680   6.511   1.335   3.170  1.3187  0.7023 -1.2618
 4089TIP3   OH233681   4.461   4.806   4.353 -0.2430  0.2353 -0.3362
 4089TIP3    H133682   4.539   4.849   4.387  1.4657 -0.6936 -2.8246
 4089TIP3    H233683   4.470   4.811   4.258 -2.6661 -0.8980 -0.7014
 4090TIP3   OH233684   1.434   1.416  16.708 -0.1742 -1.0631  0.3626
 4090TIP3    H133685   1.503   1.428  16.773 -1.0127 -0.2943  1.1382
 4090TIP3    H233686   1.451   1.484  16.643  0.9907 -2.1800 -0.5524
 4091TIP3   OH233687   3.930   1.097   1.598  0.1915 -0.0505  0.6790
 4091TIP3    H133688   4.018   1.100   1.637  0.3196  1.0570  0.3496
 4091TIP3    H233689   3.919   1.183   1.558 -1.4863  0.2566  1.6851
 4092TIP3   OH233690   5.213   4.213   5.941 -0.1465 -0.5432  0.1907
 4092TIP3    H133691   5.269   4.212   6.019 -0.4987 -0.7275  0.4498
 4092TIP3    H233692   5.162   4.132   5.948 -1.6029  0.3760  0.8391
 4093TIP3   OH233693   0.967   0.673   1.322  0.5289  0.1054  0.0854
 4093TIP3    H133694   1.031   0.707   1.259  0.1048  0.3664 -0.2078
 4093TIP3    H233695   0.929   0.597   1.280  1.2930 -0.5970  0.6386
 4094TIP3   OH233696   6.409   4.009  15.059  0.5451 -0.2374 -0.2782
 4094TIP3    H133697   6.433   3.918  15.045 -2.4996 -1.2029  0.0280
 4094TIP3    H233698   6.428   4.026  15.151  2.3601 -0.0665 -0.6426
 4095TIP3   OH233699   2.904   0.885  14.233 -0.3467  0.2563  0.2355
 4095TIP3    H133700   2.968   0.901  14.163 -0.4756 -1.7647 -0.4084
 4095TIP3    H233701   2.880   0.792  14.223 -1.2165  0.2088  2.2727
 4096TIP3   OH233702   5.556   5.851  11.273 -0.6113 -0.2541  0.2896
 4096TIP3    H133703   5.521   5.808  11.351 -1.2154 -0.3055 -0.0072
 4096TIP3    H233704   5.508   5.811  11.200 -1.4691  1.1899  0.0321
 4097TIP3   OH233705   4.205   1.027   5.741  0.0388 -0.0521  0.6492
 4097TIP3    H133706   4.153   1.057   5.667  0.9014  1.2701  0.5392
 4097TIP3    H233707   4.227   0.936   5.720 -1.9707 -0.5603  0.5989
 4098TIP3   OH233708   2.004   3.026   6.273 -0.5494 -0.1910  0.0631
 4098TIP3    H133709   1.935   3.008   6.337  0.3977  0.6868  1.3935
 4098TIP3    H233710   1.958   3.035   6.190 -1.9680 -0.2370  0.8082
 4099TIP3   OH233711   0.261   1.606   1.969  0.6301 -0.0023  0.2272
 4099TIP3    H133712   0.304   1.534   2.014  1.3469  0.6525  0.6077
 4099TIP3    H233713   0.236   1.570   1.884 -1.2368 -1.4291  1.2934
 4100TIP3   OH233714   1.982   4.815  13.131  0.3802 -0.1401  0.1687
 4100TIP3    H133715   2.000   4.902  13.095 -2.1570  0.9959  1.3516
 4100TIP3    H233716   2.062   4.765  13.114  1.9200  2.3733 -0.6201
 4101TIP3   OH233717   5.074   4.725   5.643  0.1660 -0.2684 -0.6761
 4101TIP3    H133718   5.169   4.712   5.645  0.2674  0.4864 -0.2616
 4101TIP3    H233719   5.042   4.661   5.580  0.9155 -0.7632 -0.5620
 4102TIP3   OH233720   0.826   5.539   3.358  0.2988  0.0519  0.3021
 4102TIP3    H133721   0.765   5.514   3.289  0.3020  1.3666 -0.2087
 4102TIP3    H233722   0.912   5.539   3.316  0.6113 -1.3038  0.8912
 4103TIP3   OH233723   4.288   3.170   1.676 -0.1876 -0.0160  0.0744
 4103TIP3    H133724   4.347   3.130   1.740 -1.0559 -1.6687 -0.0839
 4103TIP3    H233725   4.338   3.172   1.595  0.7070  1.5192  0.6302
 4104TIP3   OH233726   3.017   4.925   4.890 -0.2718 -0.0564  0.3311
 4104TIP3    H133727   2.932   4.955   4.919  0.4544 -1.2863  4.2979
 4104TIP3    H233728   3.071   5.004   4.886 -1.1721  0.5258 -0.7694
 4105TIP3   OH233729   0.337   4.962   2.619 -0.3633  0.3374 -0.3175
 4105TIP3    H133730   0.408   5.009   2.662  1.1681 -1.9991 -0.1009
 4105TIP3    H233731   0.268   4.957   2.685 -0.6338  2.2708 -0.3877
 4106TIP3   OH233732   0.161   4.365   0.494 -0.5228  0.0259 -0.5156
 4106TIP3    H133733   0.145   4.326   0.408 -2.2894 -1.8285  0.5620
 4106TIP3    H233734   0.146   4.458   0.481 -0.9599 -0.2414 -2.1853
 4107TIP3   OH233735   0.143   6.360   2.200  0.2405 -0.3365  0.1015
 4107TIP3    H133736   0.205   6.381   2.130  1.5105 -0.4280  1.1683
 4107TIP3    H233737   0.172   6.412   2.274 -0.9594 -0.4029  0.6445
 4108TIP3   OH233738   6.646   0.463   5.653 -0.5887  0.0923 -0.2977
 4108TIP3    H133739   6.705   0.497   5.586 -1.6680 -0.7121 -1.7323
 4108TIP3    H233740   6.702   0.409   5.709  0.2954  0.5701 -0.6914
 4109TIP3   OH233741   1.318   6.768  11.556 -0.8284  0.1050 -0.0844
 4109TIP3    H133742   1.341   6.677  11.538 -0.6292  0.3828 -1.2578
 4109TIP3    H233743   1.248   6.788  11.495 -0.1933  1.0382 -0.5193
 4110TIP3   OH233744   5.891   3.977  11.457 -0.0540  0.1331  0.2283
 4110TIP3    H133745   5.845   3.994  11.539  3.4953  3.4427  1.8627
 4110TIP3    H233746   5.885   4.059  11.409  0.3105 -0.8307 -1.5448
 4111TIP3   OH233747   4.726   5.657  11.489 -0.8290 -0.0962  0.7328
 4111TIP3    H133748   4.767   5.735  11.528  1.4432 -0.3382 -0.9797
 4111TIP3    H233749   4.798   5.598  11.471 -2.3529 -2.0264  0.6311
 4112TIP3   OH233750   2.406   6.772  16.752  0.0990  0.0496  0.1757
 4112TIP3    H133751   2.401   6.783  16.657 -0.6606  0.0935  0.2105
 4112TIP3    H233752   2.404   6.677  16.765 -0.6856  0.0572  0.1761
 4113TIP3   OH233753   6.577   0.764  13.819  0.0594  0.4780 -0.4282
 4113TIP3    H133754   6.549   0.692  13.763  0.2360 -0.2377  0.3795
 4113TIP3    H233755   6.646   0.728  13.873  0.8054  1.5297 -0.6420
 4114TIP3   OH233756   3.432   0.537   4.440 -0.3393 -1.0074 -0.3303
 4114TIP3    H133757   3.468   0.538   4.351 -0.7025  0.7893 -0.4984
 4114TIP3    H233758   3.337   0.546   4.427 -0.2868  0.7207  0.2234
 4115TIP3   OH233759   0.241   3.343   2.877  0.4025  0.8860  0.6481
 4115TIP3    H133760   0.183   3.308   2.944  0.9054 -0.4045  0.4245
 4115TIP3    H233761   0.195   3.328   2.794  0.9257  0.0991  0.4929
 4116TIP3   OH233762   6.596   1.346   3.642  0.0124  0.0794 -0.1444
 4116TIP3    H133763   6.679   1.376   3.678  0.2990  0.4651 -1.0997
 4116TIP3    H233764   6.596   1.251   3.655  0.8685  0.0015 -0.6748
 4117TIP3   OH233765   6.491   5.649   5.075 -0.1644  0.3546 -0.0704
 4117TIP3    H133766   6.410   5.623   5.031 -0.1138 -1.0019  0.5925
 4117TIP3    H233767   6.561   5.622   5.017 -0.1438  0.2369  0.0096
 4118TIP3   OH233768   6.174   3.727   2.254 -0.0591 -0.2894  0.9168
 4118TIP3    H133769   6.184   3.785   2.178  0.6362 -1.0710  0.4012
 4118TIP3    H233770   6.235   3.762   2.319  1.2042 -1.0874  0.1954
 4119TIP3   OH233771   0.812   5.417   1.153 -0.6434 -0.4099 -0.1776
 4119TIP3    H133772   0.840   5.369   1.076  1.1362  1.6580 -0.9191
 4119TIP3    H233773   0.818   5.509   1.127 -0.5746  0.3307  2.2361
 4120TIP3   OH233774   6.051   3.146  15.814  0.2581  0.2700  0.1726
 4120TIP3    H133775   6.115   3.216  15.826 -1.1939  1.6726 -0.1043
 4120TIP3    H233776   6.105   3.066  15.807  1.9734  1.4085 -0.1929
 4121TIP3   OH233777   0.485   0.718   2.839 -0.0933 -0.1833 -0.2680
 4121TIP3    H133778   0.404   0.746   2.882 -1.1224 -0.6035 -1.8527
 4121TIP3    H233779   0.535   0.799   2.829 -0.0698  0.0025  1.1848
 4122TIP3   OH233780   3.740   2.982   2.176 -0.0026 -0.2491  0.7022
 4122TIP3    H133781   3.812   2.995   2.115 -1.2161 -1.7665 -1.1839
 4122TIP3    H233782   3.738   3.062   2.229 -0.0566  2.0652 -2.5079
 4123TIP3   OH233783   1.166   1.377  16.316 -0.8624  0.3153  0.4859
 4123TIP3    H133784   1.215   1.437  16.373  0.4639  0.6317 -0.9145
 4123TIP3    H233785   1.187   1.406  16.228 -0.5093 -1.9410 -0.2377
 4124TIP3   OH233786   0.908   5.310   4.322 -0.2598  0.7517  0.2768
 4124TIP3    H133787   1.001   5.287   4.313 -0.5316 -0.0852 -0.6008
 4124TIP3    H233788   0.886   5.287   4.412  0.8545  2.8261  1.1669
 4125TIP3   OH233789   0.089   6.625   5.735  0.1099 -0.0421  0.5668
 4125TIP3    H133790   0.143   6.651   5.661 -1.6485  1.4032 -0.2950
 4125TIP3    H233791   0.017   6.575   5.696 -0.0296 -0.6024  1.4986
 4126TIP3   OH233792   5.290   5.299  13.427 -0.0968 -0.3235 -0.5058
 4126TIP3    H133793   5.243   5.223  13.463  0.1083 -0.0609  0.3242
 4126TIP3    H233794   5.237   5.374  13.454 -0.4236 -0.1759 -1.5236
 4127TIP3   OH233795   2.918   5.259   2.846 -0.4223  0.4899  0.5700
 4127TIP3    H133796   3.010   5.277   2.829 -0.8414  1.2477 -1.0898
 4127TIP3    H233797   2.891   5.200   2.776 -0.9216 -0.7076  1.7263
 4128TIP3   OH233798   2.795   2.785  16.732  0.0881  0.3368 -0.0614
 4128TIP3    H133799   2.852   2.861  16.747  0.7571 -0.1921  0.1460
 4128TIP3    H233800   2.776   2.752  16.820 -0.2437  0.2926 -0.1486
 4129TIP3   OH233801   1.572   4.178   0.975  0.4109 -0.6343  0.1200
 4129TIP3    H133802   1.547   4.271   0.975 -0.1653 -0.7602 -1.2338
 4129TIP3    H233803   1.602   4.161   1.064  0.8206  0.9305  0.3170
 4130TIP3   OH233804   0.466   5.766  16.110  0.0482 -0.4127  0.1280
 4130TIP3    H133805   0.494   5.851  16.076 -0.1331  0.0597  1.1324
 4130TIP3    H233806   0.546   5.724  16.141  0.1764 -0.7374 -0.6044
 4131TIP3   OH233807   4.396   2.447   6.660 -0.0674  0.3888  0.0945
 4131TIP3    H133808   4.469   2.480   6.713  0.6274 -1.6647  0.4917
 4131TIP3    H233809   4.434   2.436   6.573 -0.4101  0.9709 -0.1364
 4132TIP3   OH233810   4.795   6.564  16.850 -0.1569  0.3185 -1.1765
 4132TIP3    H133811   4.781   6.639  16.909  1.3549  0.1526 -0.5549
 4132TIP3    H233812   4.836   6.498  16.906 -1.3583 -0.9607 -1.7456
 4133TIP3   OH233813   3.325   1.457   5.959  0.1987 -0.0161 -0.6021
 4133TIP3    H133814   3.252   1.419   5.910  0.4855  0.1573 -1.1607
 4133TIP3    H233815   3.284   1.526   6.012 -0.6132 -2.0418  1.6260
 4134TIP3   OH233816   1.513   4.064  16.976 -0.5912 -0.2325 -0.9204
 4134TIP3    H133817   1.602   4.032  16.993 -0.7869 -0.4919 -0.3599
 4134TIP3    H233818   1.458   4.014  17.036 -0.8599  1.3949  0.2266
 4135TIP3   OH233819   0.439   6.430  11.188  0.1201  0.2381 -0.2408
 4135TIP3    H133820   0.507   6.426  11.120  0.4509  1.7659 -0.0361
 4135TIP3    H233821   0.449   6.348  11.236 -0.0962 -0.8639 -1.9802
 4136TIP3   OH233822   2.167   3.136   1.117  0.0384  0.0401 -0.3002
 4136TIP3    H133823   2.216   3.192   1.178  1.2564 -0.4463 -0.7950
 4136TIP3    H233824   2.099   3.192   1.081  0.0735  0.6726  0.5927
 4137TIP3   OH233825   3.645   4.137  10.945  0.5165 -0.2762  0.1742
 4137TIP3    H133826   3.584   4.082  10.896  1.0092 -0.7792  0.1267
 4137TIP3    H233827   3.718   4.080  10.968  0.2315 -0.1012  1.6496
 4138TIP3   OH233828   0.121   5.273   0.916 -0.2913  0.0142 -0.3631
 4138TIP3    H133829   0.149   5.363   0.898 -2.9093  1.0597  0.2914
 4138TIP3    H233830   0.181   5.242   0.984 -0.5281  2.0283  0.8551
 4139TIP3   OH233831   0.343   5.753  14.755 -0.2716  0.3153 -0.0580
 4139TIP3    H133832   0.308   5.782  14.671  0.5095  0.2073 -0.4340
 4139TIP3    H233833   0.431   5.722  14.734  0.4542  1.5757  1.0161
 4140TIP3   OH233834   2.484   1.300  14.352  0.1653  0.3748 -0.2412
 4140TIP3    H133835   2.498   1.384  14.307 -3.0004  1.0052 -0.3157
 4140TIP3    H233836   2.454   1.241  14.283  1.1402 -0.4792  0.0437
 4141TIP3   OH233837   2.716   6.361  15.977  0.0332  0.1921  0.2027
 4141TIP3    H133838   2.666   6.327  15.903 -0.2961  1.5934 -0.2548
 4141TIP3    H233839   2.656   6.355  16.051 -1.0198  2.1770 -0.4088
 4142TIP3   OH233840   2.884   6.737   0.505 -0.1387  0.3614  0.0416
 4142TIP3    H133841   2.817   6.791   0.464  1.1980  0.1457 -2.7378
 4142TIP3    H233842   2.954   6.798   0.529 -0.1400  0.2779  0.2587
 4143TIP3   OH233843   6.280   0.360  16.850 -0.2613  0.0478 -0.2624
 4143TIP3    H133844   6.204   0.303  16.838 -0.1960 -0.2630  0.7018
 4143TIP3    H233845   6.242   0.441  16.885 -0.0032 -0.8501  2.3443
 4144TIP3   OH233846   0.667   4.331  12.075 -0.3889 -0.2814 -0.4511
 4144TIP3    H133847   0.698   4.395  12.011  3.0724 -2.5274 -1.2608
 4144TIP3    H233848   0.675   4.376  12.159 -0.4643  1.1262 -1.1607
 4145TIP3   OH233849   5.481   5.453  16.548 -0.2259  0.0346 -0.0190
 4145TIP3    H133850   5.480   5.482  16.457 -1.1171 -1.3405 -0.4673
 4145TIP3    H233851   5.541   5.515  16.591  0.9785  0.1324 -1.7070
 4146TIP3   OH233852   1.496   6.749  14.373 -0.2882  0.5312  0.1750
 4146TIP3    H133853   1.451   6.833  14.372 -2.1108 -0.3636  1.7525
 4146TIP3    H233854   1.435   6.688  14.332  0.3299 -0.3322  0.4985
 4147TIP3   OH233855   2.989   2.940   0.971 -0.0189 -0.3710 -0.2204
 4147TIP3    H133856   2.957   3.013   1.023 -0.0685 -1.0226  0.6958
 4147TIP3    H233857   2.938   2.865   1.002  0.6675 -0.9594 -0.4867
 4148TIP3   OH233858   2.071   5.283   5.293 -0.1421  0.4061 -0.1500
 4148TIP3    H133859   2.129   5.357   5.276  0.3944  0.4061  1.4724
 4148TIP3    H233860   2.043   5.295   5.384 -1.2392 -0.5888 -0.3242
 4149TIP3   OH233861   1.162   0.445  12.746 -0.2617  0.0129  0.2894
 4149TIP3    H133862   1.199   0.513  12.691  1.8949 -1.5549 -0.3453
 4149TIP3    H233863   1.071   0.437  12.717 -0.0421  1.3473 -0.8724
 4150TIP3   OH233864   5.066   2.657   4.122 -0.9313 -0.1872  0.2233
 4150TIP3    H133865   5.087   2.595   4.191  1.0986  1.7508  1.4525
 4150TIP3    H233866   5.115   2.626   4.046 -0.9976 -0.8084  0.4283
 4151TIP3   OH233867   2.766   3.087  14.353 -0.6098  0.2049  0.4854
 4151TIP3    H133868   2.829   3.159  14.341 -0.3579  0.0636  0.9216
 4151TIP3    H233869   2.681   3.131  14.355 -0.5223  0.4058 -0.0447
 4152TIP3   OH233870   5.125   3.961  13.013  0.2528  0.3070  0.4980
 4152TIP3    H133871   5.044   3.975  12.963  0.3315  0.7642  0.4948
 4152TIP3    H233872   5.110   4.007  13.096  1.0090  1.5013 -0.0134
 4153TIP3   OH233873   3.387   1.929  14.390 -0.4113 -0.4410  0.2086
 4153TIP3    H133874   3.377   1.973  14.474 -1.0286 -1.2060  0.5438
 4153TIP3    H233875   3.481   1.933  14.372 -0.2655 -0.3347  0.9647
 4154TIP3   OH233876   1.334   2.452   2.653 -0.5040  0.1010 -0.3662
 4154TIP3    H133877   1.373   2.505   2.723 -1.7186  3.0058 -1.6934
 4154TIP3    H233878   1.262   2.405   2.695 -1.9143  2.6239  0.3103
 4155TIP3   OH233879   4.969   5.295  15.878 -0.3010  0.1381 -0.4424
 4155TIP3    H133880   5.044   5.237  15.871 -0.6863 -0.4086 -0.1340
 4155TIP3    H233881   4.987   5.366  15.817  1.1839  0.8156  0.7175
 4156TIP3   OH233882   2.106   5.647  11.628  0.5355 -0.7411 -0.3896
 4156TIP3    H133883   2.144   5.708  11.563 -0.0103 -0.3033 -0.3096
 4156TIP3    H233884   2.018   5.630  11.595 -0.1559  0.3466  0.7809
 4157TIP3   OH233885   1.415   6.538   2.720  0.2926 -0.3295 -0.4871
 4157TIP3    H133886   1.464   6.607   2.676  0.4398 -0.6575 -0.8452
 4157TIP3    H233887   1.332   6.533   2.672 -0.6469  1.0905  0.8971
 4158TIP3   OH233888   1.243   1.309   4.461 -0.2499  0.2487  1.2194
 4158TIP3    H133889   1.200   1.360   4.392 -0.4324 -0.9375  0.4359
 4158TIP3    H233890   1.264   1.374   4.529 -1.4883  1.1859  0.7498
 4159TIP3   OH233891   3.685   2.203   2.811 -0.2180  0.1660  0.7967
 4159TIP3    H133892   3.712   2.141   2.878  0.0517  1.4112  1.8758
 4159TIP3    H233893   3.641   2.274   2.859  0.7185  1.4953 -0.2153
 4160TIP3   OH233894   5.352   0.738   5.430  0.6374  0.7201 -0.1285
 4160TIP3    H133895   5.260   0.712   5.438  0.6567  1.0006  1.2579
 4160TIP3    H233896   5.357   0.785   5.347 -0.3169  0.0950 -0.5583
 4161TIP3   OH233897   4.228   3.598  14.378  0.4278 -1.2761  0.3565
 4161TIP3    H133898   4.207   3.575  14.287  2.4507  1.4566 -0.9293
 4161TIP3    H233899   4.203   3.690  14.386  1.8999 -0.9652  1.9812
 4162TIP3   OH233900   5.007   3.378   3.678  0.3371 -0.0655 -0.4938
 4162TIP3    H133901   4.931   3.434   3.695  0.9466  0.1010  2.0695
 4162TIP3    H233902   4.969   3.298   3.642 -1.0963  0.0374  0.6424
 4163TIP3   OH233903   6.760   2.302  13.756 -0.1907 -0.2772  0.1871
 4163TIP3    H133904   6.761   2.323  13.850  0.0497 -0.0427  0.1321
 4163TIP3    H233905   6.847   2.268  13.738 -0.2459 -0.3459  0.0523
 4164TIP3   OH233906   2.294   1.773   4.464  0.1673  0.0152  0.1903
 4164TIP3    H133907   2.277   1.809   4.377  1.2673  0.1645  0.0267
 4164TIP3    H233908   2.264   1.682   4.459  1.3925 -0.3614 -0.7596
 4165TIP3   OH233909   4.052   5.102   1.129 -0.4084 -0.2169 -0.1979
 4165TIP3    H133910   4.011   5.035   1.074 -0.8220  0.5377 -0.8367
 4165TIP3    H233911   3.981   5.163   1.148  0.2628  0.7888 -0.8157
 4166TIP3   OH233912   3.357   0.942  12.053 -0.3743  0.1808  0.1119
 4166TIP3    H133913   3.366   0.903  12.139  1.6087 -1.0032 -0.5687
 4166TIP3    H233914   3.372   0.870  11.992 -0.5202  1.2265 -1.2114
 4167TIP3   OH233915   6.584   3.084   3.099 -0.1810 -0.9039 -0.0702
 4167TIP3    H133916   6.662   3.051   3.054 -0.6024  0.6149 -2.0900
 4167TIP3    H233917   6.571   3.171   3.062 -3.5845 -1.5935 -0.8655
 4168TIP3   OH233918   3.365   5.808  11.981 -0.2144 -0.3590  0.6565
 4168TIP3    H133919   3.443   5.762  11.949  0.7157  1.4685  0.1903
 4168TIP3    H233920   3.293   5.769  11.931  0.9457  1.0204 -2.3340
 4169TIP3   OH233921   3.865   3.532   0.792  0.2401  0.2178  0.8974
 4169TIP3    H133922   3.783   3.547   0.838 -0.6476  2.0479 -1.0559
 4169TIP3    H233923   3.898   3.621   0.773  1.1717 -0.4349 -0.8043
 4170TIP3   OH233924   2.623   6.488   5.928 -0.7615  0.9465  0.3128
 4170TIP3    H133925   2.634   6.498   6.023 -0.5037  1.8494  0.1982
 4170TIP3    H233926   2.544   6.538   5.908 -1.1397  0.2778  0.1325
 4171TIP3   OH233927   2.296   6.634   1.795  0.0514  0.1008  0.5619
 4171TIP3    H133928   2.285   6.671   1.707  0.8221 -0.2839  0.2891
 4171TIP3    H233929   2.360   6.564   1.783 -0.0493 -0.1375  1.3847
 4172TIP3   OH233930   3.467   0.250   1.804 -0.3171 -0.4536  0.6200
 4172TIP3    H133931   3.421   0.332   1.824  1.2044  0.6263 -0.1340
 4172TIP3    H233932   3.415   0.210   1.734 -1.2890 -0.3496  1.2624
 4173TIP3   OH233933   2.259   2.764  15.300 -0.2806 -0.4937  0.2791
 4173TIP3    H133934   2.230   2.826  15.367 -0.1207 -0.4951  0.3485
 4173TIP3    H233935   2.247   2.678  15.340 -2.6807 -0.6489 -0.6240
 4174TIP3   OH233936   5.508   4.635  16.312  0.0397  0.1660 -0.2471
 4174TIP3    H133937   5.580   4.696  16.332  1.0468 -1.7182  2.4718
 4174TIP3    H233938   5.431   4.691  16.306  1.2729  1.9575 -0.4264
 4175TIP3   OH233939   5.629   5.632   0.494 -0.0681 -0.1692 -0.1591
 4175TIP3    H133940   5.676   5.675   0.423  0.1039 -0.8429 -0.4634
 4175TIP3    H233941   5.569   5.698   0.527  1.4021  0.8788  0.5434
 4176TIP3   OH233942   3.816   1.886   4.829  0.0942  0.1062  0.2239
 4176TIP3    H133943   3.891   1.830   4.811  0.8487  1.0480  0.3490
 4176TIP3    H233944   3.741   1.839   4.793  1.0413  0.2305 -2.1033
 4177TIP3   OH233945   6.093   2.512  11.774  0.2816 -0.1252 -0.1512
 4177TIP3    H133946   6.102   2.432  11.827 -0.0892 -0.1956 -0.1914
 4177TIP3    H233947   6.176   2.518  11.726  0.1115 -0.7753 -0.5425
 4178TIP3   OH233948   0.276   1.455   0.554 -0.5566  0.2868  0.1517
 4178TIP3    H133949   0.325   1.535   0.574 -1.7474  1.2214 -0.5211
 4178TIP3    H233950   0.208   1.483   0.492 -1.7486 -1.0020  0.8046
 4179TIP3   OH233951   1.724   0.642   5.349 -0.3823  0.1375 -0.8663
 4179TIP3    H133952   1.708   0.564   5.296 -1.2814  0.0195 -0.4442
 4179TIP3    H233953   1.792   0.615   5.411 -1.1274 -0.5258 -0.3162
 4180TIP3   OH233954   5.373   4.894   3.522 -0.1240 -0.1790  0.1189
 4180TIP3    H133955   5.310   4.847   3.576 -0.5991 -0.0143 -0.2788
 4180TIP3    H233956   5.445   4.914   3.581 -0.0115 -1.2004  0.3511
 4181TIP3   OH233957   3.503   4.532   5.586  0.3153  0.5851  0.1858
 4181TIP3    H133958   3.570   4.534   5.655  1.1217  1.9614 -0.5997
 4181TIP3    H233959   3.537   4.471   5.521 -1.5418 -2.6494  1.9550
 4182TIP3   OH233960   3.969   1.299  12.703  0.5908  0.0696  0.3267
 4182TIP3    H133961   4.032   1.273  12.770  0.4689 -0.0019  0.4141
 4182TIP3    H233962   4.002   1.258  12.623 -0.7649 -2.2033  0.8568
 4183TIP3   OH233963   6.709   0.180  12.443 -0.4905  0.1994 -0.7138
 4183TIP3    H133964   6.737   0.264  12.480  0.7356 -0.3811 -0.2793
 4183TIP3    H233965   6.707   0.195  12.349 -1.3301  1.0142 -0.5840
 4184TIP3   OH233966   3.520   2.247  13.080 -0.3062  0.0156 -0.3951
 4184TIP3    H133967   3.425   2.252  13.066 -0.4341  1.5223  0.6707
 4184TIP3    H233968   3.540   2.154  13.081 -1.7914 -0.3275 -0.5966
 4185TIP3   OH233969   2.109   0.100  16.450  0.2014  0.1564  0.1681
 4185TIP3    H133970   2.106   0.192  16.473  1.6209  0.2423  0.1151
 4185TIP3    H233971   2.102   0.099  16.354  2.5246  0.4153 -0.0530
 4186TIP3   OH233972   3.451   5.322  14.134  0.5405 -0.9258 -0.0586
 4186TIP3    H133973   3.447   5.229  14.113 -1.1241 -0.8934 -0.0821
 4186TIP3    H233974   3.367   5.340  14.178  0.9337  0.5085  0.1675
 4187TIP3   OH233975   4.194   2.550   4.234 -0.6299 -0.6274  0.6677
 4187TIP3    H133976   4.107   2.516   4.213 -1.6440  1.0425  1.9227
 4187TIP3    H233977   4.254   2.491   4.189 -2.3960 -1.8935 -0.1514
 4188TIP3   OH233978   6.673   0.895   0.755  0.2880 -0.6211 -0.1701
 4188TIP3    H133979   6.578   0.896   0.747  0.2882 -0.1367 -0.1531
 4188TIP3    H233980   6.691   0.831   0.823 -0.0476 -0.4421  0.0893
 4189TIP3   OH233981   1.391   4.277   4.387  0.1492  0.4422  0.1755
 4189TIP3    H133982   1.414   4.234   4.469  1.5580  1.4660  0.3472
 4189TIP3    H233983   1.454   4.241   4.323 -1.5000 -1.0398 -0.7215
 4190TIP3   OH233984   1.316   2.411  15.847  0.3204 -0.1471 -0.0758
 4190TIP3    H133985   1.395   2.357  15.844  0.3554 -0.0362 -1.7061
 4190TIP3    H233986   1.244   2.349  15.840  0.2491 -0.1990  0.8854
 4191TIP3   OH233987   0.134   0.537  14.348  0.2936  0.2594 -0.3889
 4191TIP3    H133988   0.151   0.479  14.274 -0.9836  0.5855 -0.9521
 4191TIP3    H233989   0.164   0.487  14.424  0.2272 -0.6969 -0.9746
 4192TIP3   OH233990   5.963   1.860   2.898  0.3316 -0.0269 -0.2592
 4192TIP3    H133991   6.058   1.870   2.901  0.4829 -0.5799 -2.1266
 4192TIP3    H233992   5.930   1.949   2.884  0.6948 -0.0429 -1.2818
 4193TIP3   OH233993   5.501   1.722  11.961 -0.0551  0.3792 -0.2625
 4193TIP3    H133994   5.419   1.751  11.920 -0.4618 -0.7673 -0.2954
 4193TIP3    H233995   5.522   1.793  12.023 -0.6844  1.0229 -0.7566
 4194TIP3   OH233996   2.044   1.797  16.531 -0.0751  0.1934  0.4351
 4194TIP3    H133997   2.010   1.727  16.588  1.3662 -1.2997 -0.4648
 4194TIP3    H233998   2.009   1.776  16.444 -0.7016  1.3756  0.3784
 4195TIP3   OH233999   2.910   3.738   4.626  0.2314  0.1191 -0.7700
 4195TIP3    H134000   2.880   3.744   4.536  0.7576  1.7590 -0.8719
 4195TIP3    H234001   2.831   3.751   4.679  0.2119  1.2238 -1.0310
 4196TIP3   OH234002   0.835   3.559  12.986 -0.2411 -0.0975 -0.4113
 4196TIP3    H134003   0.811   3.471  12.956 -1.3840 -0.2683  0.9252
 4196TIP3    H234004   0.751   3.601  13.006  0.3084  1.2104 -0.7669
 4197TIP3   OH234005   3.484   5.140   2.896 -0.0743 -0.1973  0.5452
 4197TIP3    H134006   3.438   5.150   2.979  0.0893 -1.0411  0.7437
 4197TIP3    H234007   3.568   5.184   2.909 -1.0407  1.9692 -0.0417
 4198TIP3   OH234008   1.255   1.851  12.668 -0.1843 -0.2976 -0.2904
 4198TIP3    H134009   1.277   1.772  12.619  0.9605  0.8258 -1.6624
 4198TIP3    H234010   1.333   1.906  12.662 -1.5419  1.6747 -0.8607
 4199TIP3   OH234011   2.639   3.522  14.630  0.1282  0.0564 -0.1973
 4199TIP3    H134012   2.725   3.485  14.608  1.1832  2.5167 -0.5182
 4199TIP3    H234013   2.642   3.532  14.726 -0.4620 -1.3060 -0.0154
 4200TIP3   OH234014   4.972   2.290   3.510  0.4593 -0.2229  0.3676
 4200TIP3    H134015   4.955   2.338   3.591  1.7136  0.2686  0.3761
 4200TIP3    H234016   4.890   2.247   3.489  0.1509 -0.4840  1.9886
 4201TIP3   OH234017   0.952   5.130   0.277 -0.3178 -0.2067  0.0850
 4201TIP3    H134018   0.989   5.055   0.324 -0.9485 -0.5879 -0.0008
 4201TIP3    H234019   1.024   5.191   0.267  0.7843 -1.7130 -1.7487
 4202TIP3   OH234020   3.575   4.798   5.500  0.1053 -0.0998  0.1289
 4202TIP3    H134021   3.654   4.812   5.553  1.9608 -1.5074 -2.0768
 4202TIP3    H234022   3.527   4.729   5.547  0.6210  0.1469  1.0372
 4203TIP3   OH234023   3.568   4.588  16.919  0.7111  0.4188 -0.0006
 4203TIP3    H134024   3.573   4.639  16.838  1.0273 -1.6119 -1.3133
 4203TIP3    H234025   3.659   4.575  16.945  0.6197  0.7834  0.5095
 4204TIP3   OH234026   1.611   5.515   2.373 -0.1679  0.4215 -0.1235
 4204TIP3    H134027   1.661   5.529   2.293 -1.3594  0.6669 -0.8461
 4204TIP3    H234028   1.665   5.553   2.442 -0.2733  2.6107 -1.1541
 4205TIP3   OH234029   2.567   2.401   3.541  0.2410  0.0672 -0.2180
 4205TIP3    H134030   2.500   2.412   3.608  0.9901  3.1251  0.1691
 4205TIP3    H234031   2.648   2.385   3.589  0.5696  1.0407 -0.4360
 4206TIP3   OH234032   0.516   2.244  16.268 -0.0722 -0.1603 -0.4071
 4206TIP3    H134033   0.433   2.285  16.292 -0.3712 -1.2314  0.4674
 4206TIP3    H234034   0.494   2.152  16.251  0.7625 -0.2283 -1.2309
 4207TIP3   OH234035   5.078   2.280  12.746  0.1674  0.0682 -0.1600
 4207TIP3    H134036   5.057   2.264  12.654  0.0309 -1.1099  0.0593
 4207TIP3    H234037   4.995   2.268  12.792  0.1637  0.9779  0.0999
 4208TIP3   OH234038   1.934   2.864   2.888  0.4678 -0.2018 -0.0003
 4208TIP3    H134039   1.860   2.876   2.829 -0.6886  2.6262  1.8283
 4208TIP3    H234040   1.904   2.796   2.949  0.2113 -0.5107 -0.4591
 4209TIP3   OH234041   6.414   5.985   6.688  0.0395 -0.2550 -0.4379
 4209TIP3    H134042   6.395   5.895   6.665  0.7083 -0.5181  0.0155
 4209TIP3    H234043   6.441   6.026   6.606  2.2909 -1.1447 -0.2002
 4210TIP3   OH234044   6.192   6.102  12.240  0.1765  0.3679 -0.1526
 4210TIP3    H134045   6.190   6.159  12.163 -0.2692  1.1093  0.3849
 4210TIP3    H234046   6.101   6.077  12.255  0.1698  0.7302  0.4768
 4211TIP3   OH234047   2.605   1.441   4.948 -0.4931 -0.2255 -0.1832
 4211TIP3    H134048   2.578   1.400   4.866 -0.9892  1.8897 -1.1444
 4211TIP3    H234049   2.523   1.463   4.993 -0.2652  0.6667 -0.1952
 4212TIP3   OH234050   5.656   0.715   2.273  0.0323  0.4039  0.4536
 4212TIP3    H134051   5.650   0.634   2.325  1.6041 -0.7967 -1.1346
 4212TIP3    H234052   5.704   0.776   2.329  1.6168 -0.8324  0.5076
 4213TIP3   OH234053   4.250   3.383   5.377 -0.4285 -0.0322 -0.2068
 4213TIP3    H134054   4.337   3.415   5.398 -1.1076  1.8545 -0.1133
 4213TIP3    H234055   4.194   3.418   5.446 -1.2732 -1.2868 -0.2149
 4214TIP3   OH234056   6.013   3.201  16.743  0.1580  0.2048  0.2560
 4214TIP3    H134057   6.098   3.200  16.699 -0.5200 -0.9541 -1.0961
 4214TIP3    H234058   6.001   3.293  16.771  1.8319  0.3729  0.4992
 4215TIP3   OH234059   4.470   4.014  13.282 -0.4235  0.5838  0.4257
 4215TIP3    H134060   4.489   4.108  13.283  0.4950  0.4016  0.7580
 4215TIP3    H234061   4.515   3.981  13.205 -2.2616  0.6950 -0.7545
 4216TIP3   OH234062   5.138   1.612   4.865  0.4014 -0.0062  0.4855
 4216TIP3    H134063   5.108   1.585   4.778  0.4303 -2.4070  1.1490
 4216TIP3    H234064   5.230   1.635   4.853  0.2260  0.3467 -0.2280
 4217TIP3   OH234065   2.295   6.175  13.209 -0.1092  0.3072  0.0933
 4217TIP3    H134066   2.216   6.128  13.183  0.7074 -1.0718 -0.0218
 4217TIP3    H234067   2.349   6.108  13.251  1.2671  1.0613 -0.4271
 4218TIP3   OH234068   4.109   2.210   0.218 -0.4144 -0.1430  0.7913
 4218TIP3    H134069   4.036   2.201   0.156  0.5479 -0.8627 -0.2867
 4218TIP3    H234070   4.183   2.169   0.173  1.5197  3.4054  0.4396
 4219TIP3   OH234071   4.130   2.124   2.084  0.1212 -0.6985  0.1696
 4219TIP3    H134072   4.222   2.137   2.109 -0.0614  0.7728  0.2059
 4219TIP3    H234073   4.080   2.157   2.158 -0.4385 -1.0349 -0.0522
 4220TIP3   OH234074   0.769   0.869   4.634 -0.3397 -0.2188  0.2871
 4220TIP3    H134075   0.848   0.817   4.619 -0.7204 -0.5970 -0.5010
 4220TIP3    H234076   0.778   0.903   4.723  0.0952 -1.3245  0.6777
 4221TIP3   OH234077   4.830   4.207   3.136  0.3598 -0.6261 -0.1135
 4221TIP3    H134078   4.831   4.128   3.082  0.6666  0.0334 -1.1104
 4221TIP3    H234079   4.911   4.253   3.114 -0.2911  0.4601 -0.3284
 4222TIP3   OH234080   6.285   5.828  13.427 -0.3451 -0.2514  0.1300
 4222TIP3    H134081   6.343   5.767  13.471 -0.8350 -0.7954  0.0354
 4222TIP3    H234082   6.329   5.913  13.433  0.4122 -0.6387  0.1285
 4223TIP3   OH234083   3.521   5.162   5.707 -0.2240 -0.1525  0.2256
 4223TIP3    H134084   3.593   5.218   5.679 -1.1080  0.4885 -0.8508
 4223TIP3    H234085   3.564   5.083   5.741  0.9722 -0.3283 -1.5508
 4224TIP3   OH234086   5.950   0.112   0.971  0.2242 -0.0826 -0.3658
 4224TIP3    H134087   6.030   0.119   1.023 -0.4173 -0.6764  0.7190
 4224TIP3    H234088   5.931   0.201   0.944 -0.9791  0.7389  2.7989
 4225TIP3   OH234089   1.206   6.727  13.680  0.0965  0.0464  0.5110
 4225TIP3    H134090   1.292   6.687  13.669  0.6576  1.0760  1.0223
 4225TIP3    H234091   1.194   6.779  13.601 -0.2449 -0.4120  0.2543
 4226TIP3   OH234092   4.552   5.388  11.262  0.8805  0.1029 -0.3416
 4226TIP3    H134093   4.498   5.343  11.197  1.6328 -1.0895 -0.1687
 4226TIP3    H234094   4.632   5.412  11.216  0.8137  0.5817 -0.2222
 4227TIP3   OH234095   2.007   6.639   3.186 -0.5704  0.3580  0.0896
 4227TIP3    H134096   1.968   6.702   3.247 -1.5326 -0.7119  0.6158
 4227TIP3    H234097   1.971   6.663   3.101 -1.7085 -0.0496  0.4377
 4228TIP3   OH234098   4.613   2.012  11.861 -0.0434 -0.5828  0.1545
 4228TIP3    H134099   4.694   2.055  11.890  1.0052 -1.3307 -1.4781
 4228TIP3    H234100   4.580   2.070  11.792 -0.4422 -0.7241  0.2272
 4229TIP3   OH234101   6.449   4.313  17.003 -0.7975 -0.4392  0.6402
 4229TIP3    H134102   6.513   4.358  17.058 -0.5406 -1.2727  1.0531
 4229TIP3    H234103   6.436   4.370  16.928  0.3320 -0.1899  0.6192
 4230TIP3   OH234104   0.415   1.477   0.120  0.5040  0.3486 -0.3483
 4230TIP3    H134105   0.363   1.550   0.088  0.2684  0.7549  0.8893
 4230TIP3    H234106   0.350   1.414   0.153  0.6515 -0.8711 -2.2203
 4231TIP3   OH234107   3.517   3.659   3.466  0.1941 -0.2589  0.3971
 4231TIP3    H134108   3.522   3.721   3.393 -1.2592 -0.8785 -0.2735
 4231TIP3    H234109   3.502   3.574   3.425  0.0339 -0.7263  1.3861
 4232TIP3   OH234110   5.081   0.384  14.665 -0.2881 -0.2462  0.3591
 4232TIP3    H134111   5.111   0.394  14.575  1.9931 -0.3777  1.0265
 4232TIP3    H234112   5.055   0.292  14.671 -1.7840  0.0911 -0.4839
 4233TIP3   OH234113   5.273   3.567  10.624 -0.1932  0.3365 -0.0919
 4233TIP3    H134114   5.283   3.659  10.650  0.0568 -0.1077  1.4687
 4233TIP3    H234115   5.180   3.558  10.605 -0.7654  0.2852  2.4396
 4234TIP3   OH234116   3.654   3.654  13.068 -0.1068  0.7699  0.1549
 4234TIP3    H134117   3.648   3.691  13.156  0.1017  1.2935 -0.0501
 4234TIP3    H234118   3.711   3.714  13.020 -0.4859  0.6714 -0.4344
 4235TIP3   OH234119   1.186   3.382   1.465  0.4692  0.2155  0.6903
 4235TIP3    H134120   1.098   3.346   1.459  0.4808  0.3968 -0.8408
 4235TIP3    H234121   1.236   3.315   1.512 -0.6467  0.4721  2.2993
 4236TIP3   OH234122   3.126   2.214  16.554 -0.4197  0.0040  0.5217
 4236TIP3    H134123   3.173   2.240  16.475 -0.7546  1.2056  0.6875
 4236TIP3    H234124   3.040   2.186  16.522 -1.1796  2.1017  0.5332
 4237TIP3   OH234125   3.256   1.119  16.744  0.2719 -0.3654  0.7014
 4237TIP3    H134126   3.196   1.183  16.783 -1.9697 -2.4344  0.8598
 4237TIP3    H234127   3.310   1.090  16.818  0.4551  0.4210  0.8858
 4238TIP3   OH234128   6.549   2.273   0.586  0.0882 -0.3250 -0.0379
 4238TIP3    H134129   6.530   2.238   0.499  1.2619 -0.3941 -0.2842
 4238TIP3    H234130   6.536   2.368   0.576 -1.7852 -0.5014  0.2821
 4239TIP3   OH234131   2.157   0.268   0.381  0.4687  0.0857  0.7875
 4239TIP3    H134132   2.126   0.245   0.293  1.3038  0.4553  0.3897
 4239TIP3    H234133   2.117   0.202   0.438 -0.2134 -0.0598  0.1599
 4240TIP3   OH234134   3.942   1.789   3.396  0.5351 -0.3148 -0.4380
 4240TIP3    H134135   3.949   1.707   3.347  1.4336 -0.9697  0.7443
 4240TIP3    H234136   3.930   1.762   3.487 -2.4772  0.8727 -0.3821
 4241TIP3   OH234137   4.462   0.723   4.461 -0.1817 -0.1511 -0.2293
 4241TIP3    H134138   4.441   0.631   4.447 -0.3624 -0.1089 -0.2314
 4241TIP3    H234139   4.532   0.722   4.527 -3.3746 -0.1203  3.5028
 4242TIP3   OH234140   2.441   6.520  16.799 -0.3288  0.2731  0.2432
 4242TIP3    H134141   2.387   6.528  16.877 -1.4025 -0.9732 -0.3458
 4242TIP3    H234142   2.531   6.527  16.831 -0.7788  1.5881  1.3351
 4243TIP3   OH234143   2.391   6.348  13.510 -0.1728 -0.5952 -0.1582
 4243TIP3    H134144   2.323   6.281  13.516 -0.2402 -0.3722  3.4663
 4243TIP3    H234145   2.470   6.300  13.484 -1.3638 -0.9593 -3.7428
 4244TIP3   OH234146   4.266   5.562  13.725 -0.9415 -0.4414  0.2615
 4244TIP3    H134147   4.304   5.650  13.716  0.4783 -1.1051 -0.4240
 4244TIP3    H234148   4.216   5.550  13.644  0.1263 -0.8489 -0.3505
 4245TIP3   OH234149   4.249   2.496  12.316  0.0327  0.4923  0.4142
 4245TIP3    H134150   4.202   2.429  12.367  2.4454  0.2749  2.5850
 4245TIP3    H234151   4.341   2.468  12.320  0.5694  1.4813 -2.6523
 4246TIP3   OH234152   5.844   2.883  17.127 -0.5113 -0.0839 -0.4500
 4246TIP3    H134153   5.904   2.814  17.099 -0.6946  0.1299 -1.4021
 4246TIP3    H234154   5.860   2.955  17.066  1.3333  1.6641  1.8815
 4247TIP3   OH234155   4.700   3.849  15.361  0.1298  0.5315 -0.5352
 4247TIP3    H134156   4.676   3.764  15.324  0.3483  0.8989 -1.5658
 4247TIP3    H234157   4.619   3.900  15.358 -0.1351  0.2035  0.5845
 4248TIP3   OH234158   2.401   3.154  12.443  0.1545 -0.5347 -0.4639
 4248TIP3    H134159   2.496   3.160  12.451  0.0423  1.0542 -0.0478
 4248TIP3    H234160   2.369   3.171  12.531 -0.5952  2.1623 -1.1752
 4249TIP3   OH234161   4.852   5.262   2.837  0.1610  0.1991  0.1908
 4249TIP3    H134162   4.940   5.272   2.874 -0.4047 -2.3183  2.5526
 4249TIP3    H234163   4.845   5.169   2.816 -0.8067  0.9045 -3.3303
 4250TIP3   OH234164   5.237   6.317  16.060  0.0710  0.2056  0.0520
 4250TIP3    H134165   5.227   6.407  16.030  0.0621  0.1678 -0.0596
 4250TIP3    H234166   5.235   6.323  16.155  2.0398  0.5595  0.1245
 4251TIP3   OH234167   3.368   4.971   3.427  0.3719  0.1688  0.3896
 4251TIP3    H134168   3.298   5.036   3.423  1.4683  1.4100 -3.6785
 4251TIP3    H234169   3.441   5.017   3.468  0.6617  1.0979 -1.0784
 4252TIP3   OH234170   2.119   4.554   1.777  0.1775  0.5272 -0.4993
 4252TIP3    H134171   2.181   4.589   1.713 -0.4112  1.0305 -0.8017
 4252TIP3    H234172   2.033   4.569   1.738 -0.1659  0.4250  0.2032
 4253TIP3   OH234173   5.449   3.099   1.721  0.0128 -0.1646  0.1469
 4253TIP3    H134174   5.354   3.091   1.720 -0.0867  0.7281  1.0024
 4253TIP3    H234175   5.474   3.096   1.629 -0.9411  0.5034 -0.1504
 4254TIP3   OH234176   3.705   3.655   3.675  0.1902 -0.7331  0.8793
 4254TIP3    H134177   3.658   3.717   3.731  1.8936  2.1024 -0.6073
 4254TIP3    H234178   3.645   3.639   3.602  0.0518 -0.0722  0.8356
 4255TIP3   OH234179   5.285   1.656  13.886 -0.6293 -0.5477  0.3319
 4255TIP3    H134180   5.309   1.680  13.797  0.2662 -2.3220  0.0541
 4255TIP3    H234181   5.365   1.671  13.937 -1.5768  1.9945  1.2242
 4256TIP3   OH234182   2.285   2.011  14.534  0.5642  0.0547  0.9327
 4256TIP3    H134183   2.339   2.013  14.613  0.6836  1.0375  0.8383
 4256TIP3    H234184   2.326   1.946  14.478  0.2085 -0.9969  1.8569
 4257TIP3   OH234185   1.369   4.650  16.215 -0.0225 -0.3578  0.2431
 4257TIP3    H134186   1.430   4.630  16.144 -0.4361 -0.9488  0.0496
 4257TIP3    H234187   1.313   4.573  16.221 -1.3475  0.5414 -0.1807
 4258TIP3   OH234188   4.085   2.810   4.236  0.0384  0.6309  0.2868
 4258TIP3    H134189   4.005   2.801   4.286 -1.4469 -0.2007 -2.0862
 4258TIP3    H234190   4.122   2.722   4.233 -0.7156  0.3385 -1.3024
 4259TIP3   OH234191   4.576   2.696   4.012 -0.2446 -0.4682  0.2079
 4259TIP3    H134192   4.524   2.680   4.090  1.2078  1.8504  1.7795
 4259TIP3    H234193   4.665   2.668   4.036  0.2905  0.5625 -0.4465
 4260TIP3   OH234194   6.465   2.108   1.148 -0.4099 -0.8326  0.2310
 4260TIP3    H134195   6.478   2.144   1.236  0.6557  1.3730 -0.7546
 4260TIP3    H234196   6.552   2.079   1.121 -0.2706  0.5484 -0.8992
 4261TIP3   OH234197   1.350   6.449   1.937 -0.5451  0.0504 -0.0030
 4261TIP3    H134198   1.389   6.500   1.867  1.6254 -1.5234 -0.0527
 4261TIP3    H234199   1.304   6.377   1.893  0.4604 -0.7013  0.1506
 4262TIP3   OH234200   1.911   2.249   2.364 -0.0740 -0.0557  0.5195
 4262TIP3    H134201   1.846   2.203   2.416 -1.3968  1.4498  0.2964
 4262TIP3    H234202   1.861   2.285   2.290  1.3260 -0.2218 -0.5486
 4263TIP3   OH234203   2.140   6.410   5.931  0.4785 -0.0149 -0.2275
 4263TIP3    H134204   2.227   6.423   5.967  0.2433 -0.2180  0.4291
 4263TIP3    H234205   2.098   6.496   5.938 -0.5615 -0.6129  2.7342
 4264TIP3   OH234206   2.371   4.131   2.299 -0.4318  0.5083  0.2855
 4264TIP3    H134207   2.309   4.078   2.248  0.8988 -0.2340 -0.6528
 4264TIP3    H234208   2.330   4.141   2.384 -1.4232 -0.7649 -0.0024
 4265TIP3   OH234209   4.833   2.209  12.904 -0.8619  0.3878  0.0545
 4265TIP3    H134210   4.811   2.122  12.872 -2.1324  1.2727 -1.6871
 4265TIP3    H234211   4.774   2.224  12.978 -1.5301  0.2331 -0.4367
 4266TIP3   OH234212   1.667   0.390  17.018 -0.4945 -0.3121  0.1965
 4266TIP3    H134213   1.678   0.335  16.941 -0.6010 -0.9835  0.6564
 4266TIP3    H234214   1.753   0.388  17.061 -0.5024 -0.1236  0.2243
 4267TIP3   OH234215   5.402   4.787  15.506  0.2017  0.1317 -0.3346
 4267TIP3    H134216   5.433   4.761  15.420  0.0421 -2.0066  0.2003
 4267TIP3    H234217   5.310   4.762  15.507 -0.6104  2.8137 -0.5115
 4268TIP3   OH234218   1.374   4.126  12.684  0.1662 -0.1836 -0.3676
 4268TIP3    H134219   1.404   4.185  12.614 -0.0263 -0.8509 -1.0224
 4268TIP3    H234220   1.338   4.051  12.637 -0.2795 -0.4844  0.4527
 4269TIP3   OH234221   5.774   1.094   5.920  0.4613  1.1015  0.2614
 4269TIP3    H134222   5.716   1.137   5.857  2.3419  3.3677 -0.0167
 4269TIP3    H234223   5.828   1.035   5.867 -1.7385 -1.3929  0.5771
 4270TIP3   OH234224   0.069   5.552   1.501  0.1287  0.4721  0.1705
 4270TIP3    H134225   0.139   5.575   1.440  0.6011  0.8339  0.8489
 4270TIP3    H234226   0.011   5.495   1.449  0.9230  0.1514 -0.3912
 4271TIP3   OH234227   0.775   4.449   0.687  0.1600  0.2352  0.2861
 4271TIP3    H134228   0.835   4.457   0.762 -0.8907 -0.9845  1.2891
 4271TIP3    H234229   0.735   4.363   0.697 -3.4066  1.7861  0.9226
 4272TIP3   OH234230   4.360   1.797  14.264 -0.2939 -0.8869 -0.5995
 4272TIP3    H134231   4.301   1.826  14.334  1.5044  2.0645 -0.1403
 4272TIP3    H234232   4.434   1.759  14.310 -0.8919 -2.7539 -1.1085
 4273TIP3   OH234233   2.554   5.733  12.081  0.3821 -0.2102 -0.8272
 4273TIP3    H134234   2.568   5.707  12.172  1.6152 -0.0924 -0.9753
 4273TIP3    H234235   2.553   5.651  12.033 -0.1252 -0.2623 -0.7373
 4274TIP3   OH234236   4.958   2.320  16.408  0.1230 -0.1841  0.2428
 4274TIP3    H134237   5.051   2.323  16.433  0.1791 -1.8694  0.3746
 4274TIP3    H234238   4.957   2.340  16.315  0.5422  0.4508  0.3664
 4275TIP3   OH234239   0.031   5.037   0.812  1.1105  0.2067  0.5893
 4275TIP3    H134240   0.047   5.122   0.853 -1.8039  0.4137  1.5402
 4275TIP3    H234241   0.047   5.051   0.719 -0.5577  2.2437  0.5387
 4276TIP3   OH234242   4.685   0.162  12.268 -1.0913  0.0789 -0.1712
 4276TIP3    H134243   4.710   0.150  12.176 -0.0982  0.2686  0.0537
 4276TIP3    H234244   4.681   0.257  12.279  0.5166  0.1131  0.3881
 4277TIP3   OH234245   3.519   0.149  11.589 -0.2533 -0.2097 -0.5644
 4277TIP3    H134246   3.449   0.084  11.586  0.0962 -0.6376  0.2026
 4277TIP3    H234247   3.598   0.098  11.610 -0.3969  0.7333  2.7370
 4278TIP3   OH234248   3.538   2.172  11.697 -0.3959 -0.0500 -0.0531
 4278TIP3    H134249   3.608   2.131  11.748 -1.5537 -0.6138  1.1525
 4278TIP3    H234250   3.570   2.260  11.680  0.1701  0.0727  1.4506
 4279TIP3   OH234251   5.949   5.392   1.745 -0.0897 -0.3132 -0.0615
 4279TIP3    H134252   5.994   5.476   1.740  0.7490 -0.7788 -0.4288
 4279TIP3    H234253   5.984   5.351   1.824 -0.2502 -0.4644 -0.0677
 4280TIP3   OH234254   3.939   3.380   2.653  0.6915  0.0062 -0.3868
 4280TIP3    H134255   3.929   3.301   2.707 -2.1486 -0.9443 -2.0710
 4280TIP3    H234256   3.960   3.449   2.716  0.5743 -1.5926  1.5105
 4281TIP3   OH234257   3.329   1.689   2.411  0.1668  0.2578 -0.2243
 4281TIP3    H134258   3.257   1.678   2.348 -0.2639 -0.5867  0.3980
 4281TIP3    H234259   3.371   1.771   2.385 -0.6376  0.4449 -0.9841
 4282TIP3   OH234260   5.965   0.112   6.613  0.2524  0.6231 -0.3987
 4282TIP3    H134261   6.044   0.058   6.608  0.2816  0.4763  1.2562
 4282TIP3    H234262   5.894   0.054   6.589  0.2935 -0.1783  1.2829
 4283TIP3   OH234263   6.398   4.307   1.646 -1.0194  0.3302  0.2767
 4283TIP3    H134264   6.324   4.277   1.698 -1.3218 -0.7469 -0.7199
 4283TIP3    H234265   6.449   4.228   1.629 -0.9542  0.6250 -1.0709
 4284TIP3   OH234266   5.395   4.696  13.174 -0.5429 -0.7216  0.1820
 4284TIP3    H134267   5.484   4.676  13.145  0.2208 -0.3442  2.1390
 4284TIP3    H234268   5.395   4.790  13.191 -1.2029 -0.7767  0.5427
 4285TIP3   OH234269   0.882   1.735   2.336  0.1703 -0.1411  0.0489
 4285TIP3    H134270   0.965   1.719   2.381  0.3984  0.3678 -0.1850
 4285TIP3    H234271   0.883   1.675   2.261  0.5080  0.1482 -0.1805
 4286TIP3   OH234272   4.287   5.150  12.617  0.3502 -0.6452 -0.2616
 4286TIP3    H134273   4.219   5.217  12.622 -0.5914 -1.6567  1.3079
 4286TIP3    H234274   4.240   5.067  12.623  1.5672 -1.4445 -1.1935
 4287TIP3   OH234275   0.194   4.966  11.442  0.0423  0.1944 -0.0289
 4287TIP3    H134276   0.152   4.945  11.358  0.4687  0.6218 -0.3521
 4287TIP3    H234277   0.132   4.935  11.508 -0.6838  0.6111 -0.5049
 4288TIP3   OH234278   0.461   5.141  16.497 -0.3214 -0.0227  0.1993
 4288TIP3    H134279   0.445   5.090  16.418  1.7548 -0.8138  0.2407
 4288TIP3    H234280   0.555   5.133  16.513 -0.3890  1.5849  1.7570
 4289TIP3   OH234281   0.562   4.631  17.183 -0.1187  0.0941  0.1133
 4289TIP3    H134282   0.643   4.600  17.144 -0.3318  0.6095 -0.7714
 4289TIP3    H234283   0.552   4.579  17.262  0.1483 -1.2254 -0.6932
 4290TIP3   OH234284   1.946   6.427   6.721  0.4471  0.2442 -0.1092
 4290TIP3    H134285   2.020   6.457   6.774 -0.3287  0.4679  0.8749
 4290TIP3    H234286   1.976   6.345   6.683  2.0171  1.4155 -1.5454
 4291TIP3   OH234287   0.415   6.027  12.912 -0.6814 -0.3471 -0.3730
 4291TIP3    H134288   0.495   6.080  12.919  0.4553 -2.1222  0.8512
 4291TIP3    H234289   0.373   6.035  12.998 -1.7355  0.3968 -0.9368
 4292TIP3   OH234290   5.489   6.750   0.397  0.9339 -0.1873 -0.5180
 4292TIP3    H134291   5.400   6.716   0.385  1.0229 -0.8754  0.6660
 4292TIP3    H234292   5.477   6.845   0.401  0.1240 -0.3125  0.5504
 4293TIP3   OH234293   2.986   1.506  13.488  0.1330  0.4747 -0.2380
 4293TIP3    H134294   2.918   1.552  13.438  1.0493  1.7805 -0.3185
 4293TIP3    H234295   2.997   1.558  13.567  0.3670 -0.2783  0.2341
 4294TIP3   OH234296   0.276   6.007   3.605 -0.1175  0.6329  0.0234
 4294TIP3    H134297   0.291   6.098   3.632  2.9070  0.8257 -1.7814
 4294TIP3    H234298   0.206   5.976   3.662 -1.6930  4.2407  0.3277
 4295TIP3   OH234299   5.867   0.564  11.650 -0.2851  0.1313 -0.5143
 4295TIP3    H134300   5.843   0.603  11.566  0.3858 -3.0479 -2.3719
 4295TIP3    H234301   5.841   0.472  11.642  1.8294 -0.8034  1.8684
 4296TIP3   OH234302   3.603   1.772   5.236 -0.3556 -0.2681  0.1724
 4296TIP3    H134303   3.688   1.785   5.278  0.6456  0.1045 -1.8685
 4296TIP3    H234304   3.547   1.839   5.275  0.3718 -0.2694  1.2644
 4297TIP3   OH234305   1.307   5.331   2.586 -0.2775  0.0072  0.2059
 4297TIP3    H134306   1.321   5.243   2.623 -0.1740  0.0394  0.2433
 4297TIP3    H234307   1.228   5.362   2.630 -1.5238 -0.8894 -1.3299
 4298TIP3   OH234308   6.104   5.820   2.847 -0.1499  1.2147  0.5246
 4298TIP3    H134309   6.129   5.913   2.846 -0.0362  1.2013  1.3837
 4298TIP3    H234310   6.046   5.810   2.771  0.8765  1.6880 -0.3518
 4299TIP3   OH234311   2.011   0.278   4.754 -0.8939 -0.2148  0.0439
 4299TIP3    H134312   1.998   0.225   4.675  0.4005  1.2451 -1.2152
 4299TIP3    H234313   2.106   0.278   4.767 -0.9154  1.2300  0.3751
 4300TIP3   OH234314   2.763   2.116  12.765 -0.3286 -0.0531  0.0244
 4300TIP3    H134315   2.691   2.177  12.786 -0.1604 -0.1494  0.9058
 4300TIP3    H234316   2.742   2.083  12.678 -0.6653  0.9254 -0.2761
 4301TIP3   OH234317   1.845   6.058  14.146 -0.3288  0.0428 -0.3365
 4301TIP3    H134318   1.927   6.045  14.098 -0.6547 -0.7319 -0.6902
 4301TIP3    H234319   1.804   5.972  14.150  0.1613 -0.1471  2.2444
 4302TIP3   OH234320   1.069   5.896  14.767  0.2220  0.4988  0.2223
 4302TIP3    H134321   1.067   5.846  14.849 -0.1215  0.0121 -0.0747
 4302TIP3    H234322   1.152   5.872  14.727  0.4018  0.7573  0.4445
 4303TIP3   OH234323   4.187   6.216   4.768  0.6414 -0.2749  0.2703
 4303TIP3    H134324   4.138   6.182   4.693  0.7562  0.4207 -0.1391
 4303TIP3    H234325   4.218   6.302   4.738 -0.7217  0.7664  1.6965
 4304TIP3   OH234326   2.998   3.651  11.741 -0.5592 -0.2089 -0.1376
 4304TIP3    H134327   2.976   3.563  11.772  0.3053 -0.0928  0.8688
 4304TIP3    H234328   3.079   3.640  11.691 -0.7252 -0.0532 -0.4482
 4305TIP3   OH234329   0.173   2.878  16.177  0.1442  0.1936  0.0026
 4305TIP3    H134330   0.264   2.881  16.149 -0.1694 -2.1574 -1.4576
 4305TIP3    H234331   0.122   2.893  16.097 -0.7477 -0.5186  0.4134
 4306TIP3   OH234332   3.343   0.457   1.372  0.5334 -0.2068  0.1805
 4306TIP3    H134333   3.274   0.489   1.429  0.9265  1.2840 -0.1361
 4306TIP3    H234334   3.325   0.498   1.287  0.6519 -1.4174 -0.4435
 4307TIP3   OH234335   3.531   2.825   5.278 -0.2315 -0.4273 -0.2201
 4307TIP3    H134336   3.447   2.823   5.232  0.5459 -1.1051 -1.6728
 4307TIP3    H234337   3.582   2.892   5.231  0.0492 -0.0045  0.6634
 4308TIP3   OH234338   2.417   5.906   1.200  0.1568 -0.2373 -0.0161
 4308TIP3    H134339   2.433   5.829   1.146 -0.3589 -0.7278  0.5114
 4308TIP3    H234340   2.446   5.881   1.288  1.0069  0.5566 -0.0551
 4309TIP3   OH234341   1.081   0.663   2.755  0.1447 -0.3297  0.3257
 4309TIP3    H134342   1.095   0.649   2.662  0.9127 -0.7344  0.4912
 4309TIP3    H234343   0.991   0.694   2.762 -0.9719 -3.1143 -0.3165
 4310TIP3   OH234344   4.795   4.168   0.967  0.0918 -0.5287  0.3740
 4310TIP3    H134345   4.884   4.193   0.990  0.3136 -0.4076 -0.5478
 4310TIP3    H234346   4.774   4.095   1.025  1.1229 -1.1196  0.0311
 4311TIP3   OH234347   2.027   4.567   3.784 -0.2493 -0.3371  0.2566
 4311TIP3    H134348   1.985   4.646   3.819  0.9694  0.0776  0.8180
 4311TIP3    H234349   2.121   4.585   3.789  0.0478 -0.3586 -2.9497
 4312TIP3   OH234350   5.564   2.892  15.676  0.7466  0.3242  0.0801
 4312TIP3    H134351   5.647   2.933  15.700  0.6533 -0.3867  1.7454
 4312TIP3    H234352   5.503   2.918  15.745 -0.3408  0.5481 -0.9329
 4313TIP3   OH234353   6.258   2.116   4.619 -0.2560  0.4324 -0.0045
 4313TIP3    H134354   6.325   2.142   4.555  0.5245  2.5298  1.5418
 4313TIP3    H234355   6.306   2.068   4.686 -0.4474  1.1722  0.6709
 4314TIP3   OH234356   1.197   1.389  12.523  0.1227  0.0733  0.1496
 4314TIP3    H134357   1.156   1.395  12.609 -1.8430  1.5673 -0.8173
 4314TIP3    H234358   1.151   1.317  12.479 -0.9706  1.2283 -0.6572
 4315TIP3   OH234359   0.851   0.218  16.554  0.0842 -0.2557 -0.0462
 4315TIP3    H134360   0.916   0.183  16.614  0.4578  0.6990  0.1258
 4315TIP3    H234361   0.902   0.262  16.486 -0.3278 -1.2701 -1.0508
 4316TIP3   OH234362   0.034   1.502  11.133 -0.2644  0.1104  0.2875
 4316TIP3    H134363  -0.007   1.421  11.163  1.6153 -0.6855  0.8632
 4316TIP3    H234364   0.112   1.473  11.086 -0.1224  1.5638 -0.4283
 4317TIP3   OH234365   4.744   6.515   1.001 -0.0044  0.8664  0.2273
 4317TIP3    H134366   4.696   6.477   0.927  0.3910  1.4467 -0.3300
 4317TIP3    H234367   4.836   6.496   0.983  0.1017  1.0688  0.5424
 4318TIP3   OH234368   5.246   1.404   2.213 -0.4382 -0.3938  0.4667
 4318TIP3    H134369   5.333   1.375   2.187  0.4301  1.0219  1.6034
 4318TIP3    H234370   5.208   1.441   2.132 -1.0806 -3.3193 -0.6751
 4319TIP3   OH234371   4.602   2.357   5.264  0.1679 -0.2053 -0.5258
 4319TIP3    H134372   4.532   2.295   5.288 -1.4247  2.1291  1.3387
 4319TIP3    H234373   4.579   2.384   5.175  2.1248 -3.7143 -2.3059
 4320TIP3   OH234374   4.481   3.376  16.364 -0.6332 -0.4107  0.2331
 4320TIP3    H134375   4.570   3.364  16.332  0.3132  0.5569  2.3233
 4320TIP3    H234376   4.489   3.376  16.460 -3.0580 -1.5397  0.5173
 4321TIP3   OH234377   2.137   0.038  11.962  0.3156 -0.1736 -0.2733
 4321TIP3    H134378   2.191   0.110  11.996  0.3471  0.2280 -1.1509
 4321TIP3    H234379   2.048   0.062  11.986  0.0611  1.2648 -2.3590
 4322TIP3   OH234380   4.670   1.828  13.103  0.3721 -0.4141  0.1105
 4322TIP3    H134381   4.756   1.787  13.110 -0.4601 -2.2330  0.1068
 4322TIP3    H234382   4.680   1.913  13.146  1.5740 -1.5481  2.2317
 4323TIP3   OH234383   5.258   5.274   4.794  0.1629  0.4222  1.0224
 4323TIP3    H134384   5.251   5.179   4.803  2.7076  0.0760  0.0680
 4323TIP3    H234385   5.206   5.295   4.716 -0.1155 -0.2219  1.0319
 4324TIP3   OH234386   3.937   5.597   1.795  0.1482 -0.2330  0.4070
 4324TIP3    H134387   3.966   5.650   1.869 -0.7205 -0.5646  0.9979
 4324TIP3    H234388   3.910   5.661   1.729  0.4478  0.0633  0.5701
 4325TIP3   OH234389   6.540   4.742   3.254  0.0112  0.1918 -0.6296
 4325TIP3    H134390   6.490   4.789   3.320 -0.8940 -3.6536  1.7453
 4325TIP3    H234391   6.502   4.770   3.170 -2.7131  1.1098  0.8037
 4326TIP3   OH234392   2.521   6.469   4.799  0.0999  0.1365 -0.1088
 4326TIP3    H134393   2.446   6.410   4.806  1.1989 -1.3295 -0.1740
 4326TIP3    H234394   2.597   6.410   4.794  1.2752  1.5790  0.2158
 4327TIP3   OH234395   6.632   3.313   2.948 -0.6462  0.2112 -0.4217
 4327TIP3    H134396   6.701   3.301   2.882  0.2188 -0.5549  0.5918
 4327TIP3    H234397   6.565   3.365   2.903  0.2762  0.3872 -1.6509
 4328TIP3   OH234398   2.428   5.532   1.868 -0.0177 -0.3526 -0.4899
 4328TIP3    H134399   2.336   5.530   1.841  0.0184  1.1642 -0.8802
 4328TIP3    H234400   2.475   5.557   1.788  0.7246 -1.0287 -0.2730
 4329TIP3   OH234401   1.520   5.473  15.900 -0.4184  0.2595 -0.3508
 4329TIP3    H134402   1.546   5.462  15.809  0.6566 -0.3398  0.0115
 4329TIP3    H234403   1.456   5.403  15.915  0.4494 -0.5298 -0.2692
 4330TIP3   OH234404   2.958   2.853  17.053 -0.6775  0.3560  0.6555
 4330TIP3    H134405   2.968   2.937  17.009 -1.0112 -1.0328 -2.3388
 4330TIP3    H234406   2.880   2.863  17.107 -0.4280  2.0848  0.7489
 4331TIP3   OH234407   3.739   5.222  12.652 -0.1765 -0.1183  0.0264
 4331TIP3    H134408   3.673   5.288  12.633  1.4003  1.3536 -0.6586
 4331TIP3    H234409   3.806   5.269  12.702  1.1053 -1.1202 -0.6595
 4332TIP3   OH234410   4.994   4.771   1.222 -0.0072  0.3292  0.0279
 4332TIP3    H134411   4.997   4.825   1.143  0.1182  3.2781  1.9015
 4332TIP3    H234412   4.901   4.767   1.245  0.0380  0.1353  0.1812
 4333TIP3   OH234413   3.780   6.151  14.988 -0.2665  0.3012 -0.6603
 4333TIP3    H134414   3.787   6.098  15.067  1.5410 -0.2752 -1.1505
 4333TIP3    H234415   3.863   6.137  14.943 -1.3684  0.3444 -2.8312
 4334TIP3   OH234416   1.656   1.848  17.143  0.2972 -0.3736  0.0288
 4334TIP3    H134417   1.652   1.914  17.074  0.0840 -0.3698  0.0464
 4334TIP3    H234418   1.698   1.773  17.101 -2.7309 -1.5894 -1.0970
 4335TIP3   OH234419   4.042   0.706   1.205 -0.5908  0.2608  0.0086
 4335TIP3    H134420   4.135   0.692   1.222 -0.8538 -0.7627  0.6928
 4335TIP3    H234421   4.028   0.799   1.222  0.1869  0.3002  0.4879
 4336TIP3   OH234422   3.349   6.015  14.990  0.2538 -0.1864  0.7207
 4336TIP3    H134423   3.259   6.022  14.959  0.5977 -2.0908 -0.9123
 4336TIP3    H234424   3.343   5.970  15.074 -0.3712  0.6721  1.1471
 4337TIP3   OH234425   4.988   5.434   4.560 -0.1177  0.2928  0.5570
 4337TIP3    H134426   5.032   5.351   4.542 -0.1419  0.0930  1.4023
 4337TIP3    H234427   4.981   5.476   4.474 -0.7640 -0.8893  0.0156
 4338TIP3   OH234428   1.834   2.248   2.043  0.0440 -0.6709  0.1716
 4338TIP3    H134429   1.903   2.308   2.072 -0.3096 -0.2295  0.1154
 4338TIP3    H234430   1.858   2.223   1.954  0.1754 -0.5851  0.1839
 4339TIP3   OH234431   6.511   6.148   5.787 -0.1587  0.1462  0.8267
 4339TIP3    H134432   6.575   6.133   5.717  0.8191  2.3340  1.1797
 4339TIP3    H234433   6.438   6.090   5.765  1.0536 -0.8845 -0.7443
 4340TIP3   OH234434   1.473   1.839   6.422 -0.7232  0.0339  0.2091
 4340TIP3    H134435   1.515   1.821   6.506  0.3064  1.3660  0.0294
 4340TIP3    H234436   1.534   1.804   6.356 -1.7682 -1.4696 -0.0029
 4341TIP3   OH234437   1.165   1.596   2.031 -0.2182  0.3273 -0.2702
 4341TIP3    H134438   1.253   1.563   2.050  0.6490  1.5975 -1.7966
 4341TIP3    H234439   1.164   1.607   1.936 -1.4770  1.7959 -0.1248
 4342TIP3   OH234440   5.814   0.488  14.974 -0.0355 -0.2355  0.0589
 4342TIP3    H134441   5.749   0.481  14.905 -0.6467 -0.9842  0.6940
 4342TIP3    H234442   5.819   0.582  14.993 -1.0462 -0.1829  0.1094
 4343TIP3   OH234443   6.140   5.478   2.199  0.0681 -0.0733  0.8602
 4343TIP3    H134444   6.079   5.547   2.171  0.1260 -0.5367 -0.4649
 4343TIP3    H234445   6.179   5.512   2.279 -1.2212  0.6590  1.2021
 4344TIP3   OH234446   0.099   2.678   0.518 -0.1936  0.4721  0.2127
 4344TIP3    H134447   0.145   2.613   0.571  0.2069  0.2874 -0.3480
 4344TIP3    H234448   0.134   2.762   0.547  0.0226  0.3725  0.2442
 4345TIP3   OH234449   6.710   2.299  10.496  0.0471 -0.3001  0.2884
 4345TIP3    H134450   6.732   2.350  10.574  0.0455 -1.3034  0.9622
 4345TIP3    H234451   6.619   2.274  10.509 -0.4512  0.8778 -0.8163
 4346TIP3   OH234452   4.488   6.292  11.111  0.1410  0.4264  0.7882
 4346TIP3    H134453   4.415   6.239  11.143 -1.2018  0.4681 -1.9342
 4346TIP3    H234454   4.558   6.229  11.093 -0.5403 -0.1207 -0.0108
 4347TIP3   OH234455   5.953   4.808  13.548 -0.0778  0.4081  0.0649
 4347TIP3    H134456   6.044   4.827  13.569  0.1797  0.2723 -0.9098
 4347TIP3    H234457   5.940   4.718  13.578  0.1484  0.3730  0.0576
 4348TIP3   OH234458   4.066   1.471  15.130  0.0150 -0.2724  0.1212
 4348TIP3    H134459   3.970   1.470  15.132 -0.2099  1.8905 -2.7183
 4348TIP3    H234460   4.091   1.523  15.206 -1.1833  0.4440  0.0583
 4349TIP3   OH234461   0.452   5.746  14.304  0.3341  0.2078  0.1202
 4349TIP3    H134462   0.470   5.832  14.267 -0.0920  0.0725 -0.4242
 4349TIP3    H234463   0.507   5.686  14.253 -0.7968 -0.0701 -0.8114
 4350TIP3   OH234464   0.009   3.237  15.238  0.4210 -0.0093  0.6214
 4350TIP3    H134465   0.001   3.179  15.163  1.7966 -0.2177  0.5977
 4350TIP3    H234466  -0.055   3.205  15.301  0.7373 -1.1692  0.3699
 4351TIP3   OH234467   1.577   4.524  16.393 -0.6208  0.2448  0.6465
 4351TIP3    H134468   1.520   4.586  16.347 -0.3262  2.0113  2.4891
 4351TIP3    H234469   1.528   4.501  16.472  0.0773 -0.4159  0.8967
 4352TIP3   OH234470   4.455   5.576  13.252 -0.2132  0.1874 -0.1546
 4352TIP3    H134471   4.493   5.494  13.286 -0.4389 -0.5640 -1.6170
 4352TIP3    H234472   4.505   5.645  13.295 -0.0784 -0.7077  1.1992
 4353TIP3   OH234473   0.682   0.599  16.043  0.1248  0.2264  0.2856
 4353TIP3    H134474   0.685   0.505  16.059  1.5820  0.0684 -0.7121
 4353TIP3    H234475   0.652   0.637  16.126 -0.6485 -1.1225  0.6408
 4354TIP3   OH234476   2.524   6.644  13.309 -0.6532 -0.1358 -0.5145
 4354TIP3    H134477   2.467   6.592  13.252 -1.1101  0.5259 -0.6712
 4354TIP3    H234478   2.537   6.589  13.386  0.9895 -1.5920 -1.7505
 4355TIP3   OH234479   4.222   6.622   0.396  0.4962 -0.3767 -0.0205
 4355TIP3    H134480   4.222   6.717   0.389 -2.2778 -0.2621  0.0794
 4355TIP3    H234481   4.184   6.604   0.482 -1.6620 -1.4629 -1.0961
 4356TIP3   OH234482   6.705   3.047   2.276  0.0206 -0.2345  0.0246
 4356TIP3    H134483   6.796   3.025   2.292 -0.1872 -0.9016  0.3226
 4356TIP3    H234484   6.658   2.965   2.287 -0.7735  0.3417  1.1511
 4357TIP3   OH234485   0.861   6.067   3.922  0.6263  0.1051 -0.6628
 4357TIP3    H134486   0.869   6.004   3.851 -0.3084  0.6403 -1.2599
 4357TIP3    H234487   0.770   6.095   3.920  0.4342 -0.2659  1.1071
 4358TIP3   OH234488   6.154   6.532   1.652  0.0245  0.2372 -0.5275
 4358TIP3    H134489   6.174   6.569   1.566 -0.2279  1.3342 -0.1285
 4358TIP3    H234490   6.200   6.588   1.713 -1.9176  1.0724  0.2298
 4359TIP3   OH234491   2.433   1.506  16.794 -0.3416 -0.1930 -0.4689
 4359TIP3    H134492   2.516   1.553  16.808 -0.5400  0.6402 -1.8489
 4359TIP3    H234493   2.371   1.574  16.768 -1.0949 -0.9928 -0.8279
 4360TIP3   OH234494   2.047   2.106  13.140  0.1267 -0.1966  0.1253
 4360TIP3    H134495   2.069   2.194  13.111 -0.4743  0.3516  1.2617
 4360TIP3    H234496   1.981   2.076  13.077 -1.1227  0.9483  0.8332
 4361TIP3   OH234497   4.979   5.498  17.263 -0.3666  0.1634  0.2998
 4361TIP3    H134498   4.884   5.487  17.258 -0.2620 -0.5224 -4.1522
 4361TIP3    H234499   4.995   5.588  17.233  0.4063 -0.0501  0.0426
 4362TIP3   OH234500   6.648   0.662   3.245 -0.8340 -0.4564  0.4812
 4362TIP3    H134501   6.623   0.579   3.286 -0.3123 -0.0824  1.6056
 4362TIP3    H234502   6.685   0.714   3.317 -1.4656  0.8809 -0.1245
 4363TIP3   OH234503   1.822   1.217  15.250  0.1211  0.1328  0.5464
 4363TIP3    H134504   1.856   1.187  15.335 -0.8247  0.5104  1.0731
 4363TIP3    H234505   1.801   1.136  15.203  0.6065 -0.0779  0.6821
 4364TIP3   OH234506   1.259   4.021  11.705 -0.2292 -0.2596  0.4934
 4364TIP3    H134507   1.166   4.024  11.729 -0.5897  1.1066 -0.9688
 4364TIP3    H234508   1.260   3.994  11.614  0.8171 -0.3062  0.5058
 4365TIP3   OH234509   6.120   5.934  10.964  0.4665  0.1387 -0.0804
 4365TIP3    H134510   6.163   5.915  10.881 -0.3333 -1.5056 -0.1627
 4365TIP3    H234511   6.042   5.984  10.941  1.2392  1.3852 -0.1060
 4366TIP3   OH234512   2.731   6.613   3.842 -0.4158  0.8566  0.2090
 4366TIP3    H134513   2.812   6.577   3.878 -0.4956  0.8248  0.3611
 4366TIP3    H234514   2.751   6.705   3.825  0.1694  0.4601 -1.3645
 4367TIP3   OH234515   4.765   2.783  12.049  0.3917 -0.0424  0.0289
 4367TIP3    H134516   4.673   2.773  12.075  1.2458 -3.1668  2.5140
 4367TIP3    H234517   4.790   2.869  12.081 -1.5055  0.6587 -0.2507
 4368TIP3   OH234518   1.294   0.791  14.274  0.6599 -0.0978  0.2775
 4368TIP3    H134519   1.296   0.696  14.284 -4.6761 -0.8157 -1.7280
 4368TIP3    H234520   1.315   0.805  14.181  1.7125  0.7325  0.6345
 4369TIP3   OH234521   6.203   5.181   2.916  0.9267  0.6001 -0.0605
 4369TIP3    H134522   6.161   5.243   2.975  0.8290 -0.3582  0.9055
 4369TIP3    H234523   6.139   5.168   2.846  0.1470  0.1457  0.7227
 4370TIP3   OH234524   2.246   4.851  12.243  0.0329  0.0113 -0.0272
 4370TIP3    H134525   2.286   4.906  12.177  0.8324  2.2709  2.1706
 4370TIP3    H234526   2.227   4.768  12.198  3.6806  0.1332 -2.1652
 4371TIP3   OH234527   2.746   5.189  17.320  0.0527  0.2163 -0.2366
 4371TIP3    H134528   2.765   5.116  17.379  1.8027 -1.0740 -2.2291
 4371TIP3    H234529   2.796   5.263  17.356  0.5277 -0.3516  0.2769
 4372TIP3   OH234530   0.821   1.540  16.981  0.4105  0.2178  0.0169
 4372TIP3    H134531   0.764   1.616  16.974 -0.9853 -0.8233 -0.4065
 4372TIP3    H234532   0.773   1.478  17.036  1.5534 -0.3440  0.4321
 4373TIP3   OH234533   4.456   1.643   2.826  0.1302 -0.1797  0.2631
 4373TIP3    H134534   4.439   1.704   2.755  0.8055  0.6498  0.7982
 4373TIP3    H234535   4.504   1.694   2.891  0.2645 -1.1429  0.9454
 4374TIP3   OH234536   0.220   1.812   3.703  0.1551  0.5895 -0.0223
 4374TIP3    H134537   0.279   1.751   3.748 -1.0976 -1.5093 -1.0721
 4374TIP3    H234538   0.143   1.817   3.758  0.2527  1.2900  0.0668
 4375TIP3   OH234539   1.729   3.257   4.073 -0.0249  0.2950 -0.3521
 4375TIP3    H134540   1.791   3.192   4.040  2.4833  1.7948  1.1340
 4375TIP3    H234541   1.697   3.220   4.155  2.4583  1.3837  1.2143
 4376TIP3   OH234542   5.059   4.971   1.391  0.2199 -0.7866 -0.3948
 4376TIP3    H134543   5.018   4.934   1.469 -0.6809  0.2051 -0.3695
 4376TIP3    H234544   5.039   4.908   1.321 -0.0147 -1.0782 -0.0670
 4377TIP3   OH234545   6.049   5.879   2.412  0.1604  0.0503 -0.2209
 4377TIP3    H134546   6.015   5.809   2.357 -1.5235  0.0178  0.8144
 4377TIP3    H234547   6.111   5.926   2.355 -1.7660  0.2496 -2.2819
 4378TIP3   OH234548   3.193   6.688   0.993  0.2070  0.0604  0.3652
 4378TIP3    H134549   3.272   6.737   1.014  0.6132  0.5037 -1.8772
 4378TIP3    H234550   3.211   6.599   1.023  0.8844  0.5170  1.3530
 4379TIP3   OH234551   6.301   6.429  14.782  0.2914 -0.0493 -0.3362
 4379TIP3    H134552   6.285   6.337  14.763 -0.4454 -0.0537  0.2555
 4379TIP3    H234553   6.217   6.462  14.815  0.7489  0.6472  0.1779
 4380TIP3   OH234554   1.273   0.390   6.446  0.2163  0.3566 -0.4163
 4380TIP3    H134555   1.178   0.392   6.454  0.1964  2.0782 -0.8061
 4380TIP3    H234556   1.303   0.351   6.528 -0.8346 -0.8997 -0.5968
 4381TIP3   OH234557   4.425   1.324   1.041 -0.2738  0.8084  0.7250
 4381TIP3    H134558   4.349   1.353   1.093 -0.3598  1.4350  0.2589
 4381TIP3    H234559   4.401   1.344   0.951  0.6331  1.4474  0.6130
 4382TIP3   OH234560   0.082   5.486  10.991 -0.1356 -0.0046  0.4280
 4382TIP3    H134561   0.175   5.505  10.973 -0.1989  0.6972  0.7856
 4382TIP3    H234562   0.038   5.569  10.974 -0.4907  0.0937  1.7209
 4383TIP3   OH234563   2.487   5.615  13.865  0.3287  0.0772  0.2165
 4383TIP3    H134564   2.549   5.680  13.897 -0.5951  0.4455  1.3362
 4383TIP3    H234565   2.514   5.533  13.905  1.2476 -0.1757 -0.8685
 4384TIP3   OH234566   1.535   5.522  11.634 -0.2670  0.2816 -0.3990
 4384TIP3    H134567   1.564   5.493  11.548 -0.3828  1.9377 -1.0342
 4384TIP3    H234568   1.542   5.444  11.689  1.9340 -0.2748 -1.3631
 4385TIP3   OH234569   5.928   5.353   3.033  0.3069  0.1413 -0.7650
 4385TIP3    H134570   5.841   5.389   3.017 -0.0031 -0.4819 -0.4912
 4385TIP3    H234571   5.988   5.427   3.017 -0.2473  0.5081 -1.1835
 4386TIP3   OH234572   4.357   4.893  12.958 -0.5045  0.5328 -0.0578
 4386TIP3    H134573   4.377   4.916  12.867  0.9375  1.0232  0.3501
 4386TIP3    H234574   4.398   4.963  13.009 -1.1133  0.1385  0.9833
 4387TIP3   OH234575   1.512   4.395   5.533  0.2422 -0.0368 -0.1095
 4387TIP3    H134576   1.529   4.418   5.442  2.1184  1.2686  0.5117
 4387TIP3    H234577   1.521   4.300   5.536  0.4320 -0.0670 -1.2267
 4388TIP3   OH234578   1.281   5.447  13.552 -0.6945  0.6448 -0.5114
 4388TIP3    H134579   1.274   5.414  13.462  0.1592 -1.9087  0.2573
 4388TIP3    H234580   1.218   5.395  13.601 -2.0743  2.8923  0.2259
 4389TIP3   OH234581   3.625   2.805  15.744 -0.3714  0.2472 -0.0510
 4389TIP3    H134582   3.629   2.711  15.726  0.7720  0.5188 -1.4325
 4389TIP3    H234583   3.586   2.842  15.665 -3.2439  0.7547  1.4573
 4390TIP3   OH234584   0.110   3.371   2.250  0.0335  0.5443 -1.0626
 4390TIP3    H134585   0.059   3.403   2.176 -2.0765 -0.9324 -0.3403
 4390TIP3    H234586   0.126   3.448   2.304  0.9675  1.5056 -2.6212
 4391TIP3   OH234587   0.357   3.260  10.682 -0.1515 -0.1013  0.3178
 4391TIP3    H134588   0.303   3.332  10.715 -1.0237 -1.7638  2.7178
 4391TIP3    H234589   0.294   3.197  10.647  0.5136 -0.3877 -0.3868
 4392TIP3   OH234590   0.043   0.292  15.824 -0.0938 -0.2471  0.2830
 4392TIP3    H134591  -0.002   0.373  15.849  0.4863  0.4514 -0.8555
 4392TIP3    H234592   0.061   0.248  15.907  1.2268  1.6988  1.1094
 4393TIP3   OH234593   5.695   4.589   0.811  0.6240  0.1301 -0.2210
 4393TIP3    H134594   5.700   4.496   0.832  1.6649 -0.1651 -1.6633
 4393TIP3    H234595   5.675   4.592   0.718  0.5337  1.3516 -0.1784
 4394TIP3   OH234596   4.991   2.758  13.308 -0.2728 -0.0753  0.9179
 4394TIP3    H134597   5.045   2.811  13.249  0.3257 -0.1020  1.4327
 4394TIP3    H234598   4.933   2.821  13.350 -0.2452  0.0373  0.7888
 4395TIP3   OH234599   6.192   0.082   0.481 -0.4417  0.5975  0.2187
 4395TIP3    H134600   6.207   0.063   0.573  0.3720 -0.1533 -0.0447
 4395TIP3    H234601   6.268   0.043   0.436 -0.8302  0.9293 -0.7607
 4396TIP3   OH234602   0.552   1.069  15.318 -0.4541  0.2809 -0.7259
 4396TIP3    H134603   0.538   1.130  15.391 -1.3369  0.5991 -1.1447
 4396TIP3    H234604   0.619   1.111  15.265  0.8117 -0.3540  0.3280
 4397TIP3   OH234605   6.267   3.914   3.765 -0.3427 -0.0825 -0.0238
 4397TIP3    H134606   6.198   3.957   3.816 -0.5713 -1.1947  0.6367
 4397TIP3    H234607   6.222   3.844   3.718  0.2093 -0.3099 -0.2205
 4398TIP3   OH234608   3.320   1.558   6.297  0.2366 -0.1165 -0.4504
 4398TIP3    H134609   3.403   1.554   6.248  0.6427  1.3132  0.0865
 4398TIP3    H234610   3.258   1.595   6.234  0.7242  1.5851  0.0400
 4399TIP3   OH234611   5.792   5.627  12.026 -0.1617 -0.0069 -0.3062
 4399TIP3    H134612   5.885   5.639  12.006  0.1858 -1.8492 -0.0054
 4399TIP3    H234613   5.786   5.644  12.120 -0.0556 -0.1823 -0.2657
 4400TIP3   OH234614   4.196   6.610   1.011 -0.2244  0.6305  0.0039
 4400TIP3    H134615   4.182   6.704   1.018 -0.2267  0.5677  0.8344
 4400TIP3    H234616   4.109   6.574   0.997 -0.3627  0.6530  0.7806
 4401TIP3   OH234617   6.489   0.396  13.465  0.3571  0.0221 -0.3945
 4401TIP3    H134618   6.519   0.483  13.442 -0.2158  0.1412 -0.7192
 4401TIP3    H234619   6.409   0.410  13.515  0.7928 -0.2880  0.4035
 4402TIP3   OH234620   0.572   1.126  11.844 -0.5229 -0.1822 -0.3186
 4402TIP3    H134621   0.507   1.192  11.821 -1.4830 -0.7208  0.7553
 4402TIP3    H234622   0.541   1.046  11.804  0.5400 -0.0503 -1.4561
 4403TIP3   OH234623   1.907   1.936   1.889  0.2306 -0.2051 -0.0841
 4403TIP3    H134624   1.852   1.935   1.811 -0.9415 -0.6949  0.7230
 4403TIP3    H234625   1.995   1.956   1.856 -0.8173  3.5322 -1.1452
 4404TIP3   OH234626   6.552   0.798  11.586 -0.1282 -0.1847 -0.4241
 4404TIP3    H134627   6.592   0.800  11.499 -0.2822 -2.3578 -0.6098
 4404TIP3    H234628   6.601   0.730  11.633 -0.5057  0.4665  0.9521
 4405TIP3   OH234629   1.367   0.617  12.517  0.5734  0.3368  0.1012
 4405TIP3    H134630   1.292   0.676  12.506  0.0712  0.0296  1.5763
 4405TIP3    H234631   1.416   0.624  12.435 -0.3134  1.6112 -0.3488
 4406TIP3   OH234632   4.117   6.550   0.652 -0.0095  0.4624 -0.0032
 4406TIP3    H134633   4.076   6.473   0.691  2.1525 -1.0687 -0.5622
 4406TIP3    H234634   4.149   6.601   0.727 -2.3158  1.4026  0.4083
 4407TIP3   OH234635   3.837   5.763  16.366 -0.2879  0.1161  0.2542
 4407TIP3    H134636   3.894   5.697  16.405 -1.3914 -0.0573  1.6548
 4407TIP3    H234637   3.772   5.713  16.316 -0.1170  0.2342 -0.0885
 4408TIP3   OH234638   4.958   5.979   4.482 -0.0158  0.4193  0.2747
 4408TIP3    H134639   5.026   5.969   4.415  0.0247 -0.5204  0.4477
 4408TIP3    H234640   4.875   5.971   4.434  0.0026  0.6076  0.2098
 4409TIP3   OH234641   3.556   3.569   4.325  0.8920 -0.1664  0.0592
 4409TIP3    H134642   3.549   3.558   4.420 -0.6818 -0.8310 -0.1133
 4409TIP3    H234643   3.651   3.566   4.308  1.2352  0.5437  1.6496
 4410TIP3   OH234644   4.768   0.653   2.991 -0.1997  0.3021 -0.1334
 4410TIP3    H134645   4.770   0.747   3.010  0.8951 -0.1286  2.3431
 4410TIP3    H234646   4.676   0.628   3.001 -0.3077  0.9029  0.4759
 4411TIP3   OH234647   2.240   2.730   1.104 -0.0403 -0.0629  0.2435
 4411TIP3    H134648   2.264   2.713   1.195  2.7542 -2.0775 -0.7319
 4411TIP3    H234649   2.321   2.718   1.056 -2.0102 -2.1689 -2.8934
 4412TIP3   OH234650   5.688   2.665  14.900 -0.2753 -0.2567 -0.1129
 4412TIP3    H134651   5.743   2.611  14.843  0.2079 -0.6292  0.6899
 4412TIP3    H234652   5.749   2.707  14.960 -0.3985  2.9152 -2.0265
 4413TIP3   OH234653   6.699   1.269   6.526  0.5985 -0.1066 -0.1215
 4413TIP3    H134654   6.749   1.249   6.605 -0.4089 -3.7893 -0.2054
 4413TIP3    H234655   6.763   1.261   6.455  1.2067  1.8249  0.1681
 4414TIP3   OH234656   3.674   1.644   0.722  0.7668  0.0676  0.2902
 4414TIP3    H134657   3.750   1.686   0.683  1.8308 -0.5452  1.6551
 4414TIP3    H234658   3.665   1.562   0.674 -0.1220  0.8787 -1.0300
 4415TIP3   OH234659   4.307   2.001   1.392 -0.6887  0.0474  0.6289
 4415TIP3    H134660   4.225   1.952   1.382 -0.3838 -0.2682 -0.5278
 4415TIP3    H234661   4.369   1.954   1.336  0.0095  0.8802  0.6935
 4416TIP3   OH234662   6.132   0.127   5.633 -0.3947  0.0875 -0.2410
 4416TIP3    H134663   6.165   0.041   5.660  1.7474  1.0825  0.5713
 4416TIP3    H234664   6.117   0.173   5.716  0.0800  1.0394 -0.6739
 4417TIP3   OH234665   0.397   1.140   1.848 -0.5441 -0.0154  0.0255
 4417TIP3    H134666   0.435   1.212   1.797  0.6158 -0.1806  0.6135
 4417TIP3    H234667   0.332   1.181   1.904 -0.9656  0.3453 -0.7207
 4418TIP3   OH234668   2.734   3.025  13.613  0.6117  0.2088 -0.3231
 4418TIP3    H134669   2.794   2.993  13.545  0.3384 -1.4247  0.1426
 4418TIP3    H234670   2.765   2.984  13.694  0.9970  2.2117  0.5955
 4419TIP3   OH234671   2.825   0.844  11.185  0.8422 -0.6761  0.6627
 4419TIP3    H134672   2.800   0.932  11.158 -1.4008 -1.6264 -0.6532
 4419TIP3    H234673   2.766   0.786  11.137  1.4841 -2.8616  2.3141
 4420TIP3   OH234674   3.870   4.614   2.202 -0.4252  0.2972 -0.3851
 4420TIP3    H134675   3.883   4.525   2.234 -0.4271 -0.0083 -1.1971
 4420TIP3    H234676   3.955   4.640   2.166 -0.6546  0.2902 -0.9378
 4421TIP3   OH234677   6.767   2.601  12.026 -0.4713 -0.5836  0.0140
 4421TIP3    H134678   6.826   2.617  11.952 -0.7627 -0.6122 -0.2270
 4421TIP3    H234679   6.717   2.524  12.001 -0.4398 -0.7065  0.3253
 4422TIP3   OH234680   4.615   4.875  16.516  0.3290 -0.9637 -0.0067
 4422TIP3    H134681   4.635   4.963  16.483 -2.3638 -0.5143 -0.6471
 4422TIP3    H234682   4.582   4.828  16.440 -2.2871 -1.1371  1.1334
 4423TIP3   OH234683   6.640   5.192  15.438  0.6887  0.0286 -0.1233
 4423TIP3    H134684   6.595   5.219  15.519 -0.8498  1.9636 -1.5276
 4423TIP3    H234685   6.569   5.161  15.381  1.6887 -0.8388 -0.9372
 4424TIP3   OH234686   1.359   6.390  13.700 -0.2524  0.1792  0.1951
 4424TIP3    H134687   1.427   6.322  13.705 -0.1666  0.2091 -0.4401
 4424TIP3    H234688   1.407   6.469  13.674 -0.4351  0.3534  0.3884
 4425TIP3   OH234689   3.679   1.178   1.212  0.5582 -0.9181 -0.1697
 4425TIP3    H134690   3.596   1.215   1.242  0.6937 -0.5374 -0.2618
 4425TIP3    H234691   3.731   1.253   1.184 -0.3494 -1.3381 -3.4283
 4426TIP3   OH234692   2.903   1.891  15.516 -0.0475 -0.0431 -0.3029
 4426TIP3    H134693   2.836   1.830  15.545 -0.1807 -0.3601 -1.2339
 4426TIP3    H234694   2.954   1.842  15.452  1.2099  0.1330  0.5480
 4427TIP3   OH234695   5.683   3.708   5.718  0.0954 -0.0294  0.2898
 4427TIP3    H134696   5.618   3.661   5.769 -0.4194 -0.0614 -0.3691
 4427TIP3    H234697   5.754   3.726   5.779 -0.4397 -0.1842  0.9703
 4428TIP3   OH234698   4.136   2.391  15.244  0.4610 -0.7646  0.4165
 4428TIP3    H134699   4.191   2.412  15.168 -0.3361 -0.3961 -0.0726
 4428TIP3    H234700   4.130   2.295  15.243 -1.1396 -0.6920 -1.1706
 4429TIP3   OH234701   4.916   2.521  13.811 -0.3361 -0.1265 -0.0855
 4429TIP3    H134702   4.836   2.542  13.763 -0.6250  1.6379  1.0404
 4429TIP3    H234703   4.987   2.545  13.751 -0.6493 -0.7053 -0.6986
 4430TIP3   OH234704   1.132   3.944  12.839 -0.1482  0.3471  0.0053
 4430TIP3    H134705   1.053   3.996  12.823 -0.2346  0.2400  0.0804
 4430TIP3    H234706   1.161   3.916  12.752 -1.0067 -0.8118  0.0715
 4431TIP3   OH234707   0.568   2.976  15.148 -0.2788  0.0322  0.0222
 4431TIP3    H134708   0.568   3.028  15.228  0.6351 -0.5831  0.4428
 4431TIP3    H234709   0.659   2.979  15.118 -0.8212  1.2076 -1.6414
 4432TIP3   OH234710   4.093   2.964   3.487 -0.3416 -0.1745 -0.5886
 4432TIP3    H134711   4.020   2.905   3.468 -0.7591 -0.1830  0.9504
 4432TIP3    H234712   4.052   3.043   3.520  0.3260  0.0183 -0.1930
 4433TIP3   OH234713   6.414   0.561   0.381  0.1932  0.5140  0.0334
 4433TIP3    H134714   6.336   0.508   0.365  0.9821 -0.7115  0.1101
 4433TIP3    H234715   6.381   0.650   0.391 -1.3121 -0.1270  1.1326
 4434TIP3   OH234716   3.511   0.965   5.679  0.4262  0.8487  0.2463
 4434TIP3    H134717   3.511   0.898   5.748 -0.0672  0.5154 -0.0701
 4434TIP3    H234718   3.512   0.915   5.597 -1.6622  1.1462 -0.0310
 4435TIP3   OH234719   2.600   3.139  15.892  0.4788 -0.0101  0.3341
 4435TIP3    H134720   2.598   3.074  15.962  0.3192  0.7339  1.0392
 4435TIP3    H234721   2.543   3.209  15.923  0.1197  0.1688 -0.7077
 4436TIP3   OH234722   4.245   2.119  15.252 -0.2489  0.4875 -1.0841
 4436TIP3    H134723   4.307   2.093  15.184 -0.0106 -0.6446 -0.4496
 4436TIP3    H234724   4.297   2.123  15.332 -0.9318 -0.2651 -0.5845
 4437TIP3   OH234725   3.105   2.013   0.933  0.4465  0.4576  0.1874
 4437TIP3    H134726   3.107   1.920   0.956  0.7133  0.2356 -0.7290
 4437TIP3    H234727   3.028   2.047   0.979  0.9431  0.0224  1.3807
 4438TIP3   OH234728   2.702   0.122  14.482 -0.0382 -0.0577  0.3102
 4438TIP3    H134729   2.658   0.125  14.397  1.2671 -0.9878 -0.4305
 4438TIP3    H234730   2.713   0.214  14.507 -2.1268  0.2149  0.4115
 4439TIP3   OH234731   4.281   4.712  12.245  0.6117 -0.2359  0.2982
 4439TIP3    H134732   4.337   4.775  12.290 -0.7981  0.3399  1.2937
 4439TIP3    H234733   4.266   4.750  12.158 -0.9358  1.2741  1.1851
 4440TIP3   OH234734   0.776   1.286  13.770 -0.3552  0.5367  0.3340
 4440TIP3    H134735   0.751   1.335  13.848 -0.5360 -0.7975  1.1513
 4440TIP3    H234736   0.712   1.215  13.765 -1.1016  1.2850 -1.7510
 4441TIP3   OH234737   2.111   6.332   4.871  0.0455 -0.4855  0.0070
 4441TIP3    H134738   2.169   6.367   4.804 -0.4465  0.3759  0.0131
 4441TIP3    H234739   2.026   6.326   4.829 -0.4384  0.7966  0.7559
 4442TIP3   OH234740   3.678   3.171   6.631 -0.3790  0.6050 -0.9483
 4442TIP3    H134741   3.663   3.079   6.649  0.6336  0.4210 -0.9617
 4442TIP3    H234742   3.595   3.214   6.650 -0.3052 -0.0211  1.0134
 4443TIP3   OH234743   2.769   3.914  15.353  0.7946 -0.0534 -0.5602
 4443TIP3    H134744   2.792   4.007  15.357 -0.4584  0.2461  0.7081
 4443TIP3    H234745   2.769   3.893  15.260  1.4254  1.1258 -0.8482
 4444TIP3   OH234746   3.891   1.958   0.860 -0.2456  0.3081  0.7512
 4444TIP3    H134747   3.945   2.031   0.830 -0.4265  0.0751 -0.1867
 4444TIP3    H234748   3.879   1.903   0.782  0.5510 -1.1573  1.6250
 4445TIP3   OH234749   2.298   4.352   3.856  0.1362  0.4226 -0.5213
 4445TIP3    H134750   2.228   4.328   3.795  0.4576  0.3414 -0.8586
 4445TIP3    H234751   2.348   4.271   3.868 -0.1146  0.3540  0.1029
 4446TIP3   OH234752   1.689   0.710  15.922  0.2117 -0.0229  0.0876
 4446TIP3    H134753   1.718   0.643  15.983 -0.5120 -0.8928 -0.4897
 4446TIP3    H234754   1.768   0.739  15.877  0.1838 -3.3524 -2.4771
 4447TIP3   OH234755   4.361   5.501  12.897 -0.0424 -0.0476  0.0986
 4447TIP3    H134756   4.313   5.501  12.979 -0.9311  2.9129 -0.3176
 4447TIP3    H234757   4.389   5.410  12.886 -2.1675 -1.0901  2.3182
 4448TIP3   OH234758   0.323   4.907   1.687  0.0002  0.1529 -0.2104
 4448TIP3    H134759   0.344   4.815   1.707 -0.8060 -0.1103 -0.5334
 4448TIP3    H234760   0.270   4.936   1.761  1.8388  0.9765  0.8623
 4449TIP3   OH234761   6.698   6.598   2.022  0.2923 -0.0162 -0.1593
 4449TIP3    H134762   6.635   6.592   1.950  0.7038 -1.3667 -0.4314
 4449TIP3    H234763   6.645   6.592   2.101 -0.1509  1.3687 -0.3259
 4450TIP3   OH234764   3.984   4.429  13.309  0.1910  0.5747  0.1262
 4450TIP3    H134765   3.902   4.381  13.297 -0.4047  1.6943 -0.4124
 4450TIP3    H234766   3.963   4.497  13.373  1.3254 -0.5381  1.7636
 4451TIP3   OH234767   3.387   2.074   2.088 -0.5666  0.3899 -0.0247
 4451TIP3    H134768   3.455   2.061   2.022 -0.4391  2.0609 -0.2783
 4451TIP3    H234769   3.414   2.021   2.163  1.2864  1.3635  0.0490
 4452TIP3   OH234770   1.416   3.150   4.877 -0.0065 -0.1718 -0.2853
 4452TIP3    H134771   1.392   3.076   4.932 -0.2086  0.7924  0.9644
 4452TIP3    H234772   1.335   3.199   4.865  0.3714  0.5231 -0.0443
 4453TIP3   OH234773   5.523   3.422  11.794 -0.7790 -0.6726 -0.1321
 4453TIP3    H134774   5.538   3.376  11.711 -1.9823 -0.2811 -0.5796
 4453TIP3    H234775   5.455   3.486  11.774  0.7413  1.2332  0.5148
 4454TIP3   OH234776   5.048   0.362   5.250  0.2227 -0.6523 -0.2447
 4454TIP3    H134777   4.999   0.294   5.297  2.0116 -1.2127  0.9155
 4454TIP3    H234778   5.053   0.331   5.160  1.9213 -2.6762  0.4716
 4455TIP3   OH234779   1.842   2.980  12.294 -0.2692  0.5441  0.3739
 4455TIP3    H134780   1.750   2.954  12.296  0.2263 -1.3130  1.5464
 4455TIP3    H234781   1.844   3.057  12.237 -2.0975 -1.1770 -2.2030
 4456TIP3   OH234782   3.965   4.718   4.263  0.4277  0.0704  0.1952
 4456TIP3    H134783   3.892   4.764   4.305  0.8122 -0.3583  1.3944
 4456TIP3    H234784   3.997   4.779   4.196 -0.5442  0.5673  0.1747
 4457TIP3   OH234785   2.743   1.719  15.664 -0.4179 -0.2960 -0.1322
 4457TIP3    H134786   2.751   1.627  15.639 -0.0353  0.4431 -3.1195
 4457TIP3    H234787   2.651   1.729  15.689 -0.7254 -1.2889 -0.8069
 4458TIP3   OH234788   0.953   1.148  15.576 -0.0053 -0.0367  0.2385
 4458TIP3    H134789   1.016   1.109  15.515  1.2567  1.0350  0.8152
 4458TIP3    H234790   0.907   1.073  15.614  2.5758 -1.0417  1.5896
 4459TIP3   OH234791   2.034   5.812   6.571 -0.1488 -0.0038  0.4088
 4459TIP3    H134792   2.080   5.729   6.562  0.6707  0.3186  1.4271
 4459TIP3    H234793   2.097   5.871   6.612 -0.3149  1.4854 -1.3250
 4460TIP3   OH234794   3.743   2.089  13.018 -0.3467 -0.2316 -0.0376
 4460TIP3    H134795   3.778   2.155  13.077 -0.5830 -1.2613  1.2852
 4460TIP3    H234796   3.755   2.006  13.064  1.2095 -1.3349 -2.2025
 4461TIP3   OH234797   3.559   4.578   4.308  0.3784 -0.1143 -0.3010
 4461TIP3    H134798   3.622   4.584   4.380 -0.0377  1.0873 -0.0227
 4461TIP3    H234799   3.534   4.668   4.289  0.7004 -0.3856 -2.1746
 4462TIP3   OH234800   6.532   6.215  14.377 -0.4943  0.2501 -0.3323
 4462TIP3    H134801   6.474   6.174  14.313 -1.3568  0.2196  0.4558
 4462TIP3    H234802   6.496   6.303  14.390 -2.0741 -0.6897  2.2231
 4463TIP3   OH234803   5.495   1.108  15.446  0.7065  0.1816 -0.8624
 4463TIP3    H134804   5.403   1.112  15.419  0.0334  0.3162  1.3115
 4463TIP3    H234805   5.531   1.193  15.421 -0.4070  1.0372  0.3553
 4464TIP3   OH234806   2.689   1.617   1.734  0.2607  0.0947  0.2867
 4464TIP3    H134807   2.680   1.571   1.651 -0.3292 -0.6954  0.7759
 4464TIP3    H234808   2.739   1.696   1.712 -0.3829  0.1983 -0.9280
 4465TIP3   OH234809   0.261   6.091  15.151  0.4312  0.0605 -0.0870
 4465TIP3    H134810   0.265   6.027  15.080  0.9147 -3.6930  2.9392
 4465TIP3    H234811   0.352   6.104  15.177  0.2557  1.2863 -0.0339
 4466TIP3   OH234812   3.223   6.421   2.810 -0.0087  0.2158  0.2183
 4466TIP3    H134813   3.219   6.338   2.762  1.0232 -0.6786  1.5830
 4466TIP3    H234814   3.303   6.414   2.862 -1.4293  0.7914  2.6283
 4467TIP3   OH234815   1.956   1.115  12.609  0.0363  0.4211  0.5789
 4467TIP3    H134816   1.971   1.050  12.678 -0.3914 -0.1509  0.1493
 4467TIP3    H234817   1.862   1.133  12.614  0.5336  3.3121  2.6837
 4468TIP3   OH234818   3.027   2.739  12.016 -0.1729 -0.4224 -0.0130
 4468TIP3    H134819   3.038   2.705  12.104 -0.8046  1.1763  0.7229
 4468TIP3    H234820   2.932   2.746  12.005 -0.0998  1.7354  0.1857
 4469TIP3   OH234821   3.345   4.646  15.340  0.6716 -0.7772 -0.4890
 4469TIP3    H134822   3.392   4.716  15.295  0.6107 -1.0238 -0.9363
 4469TIP3    H234823   3.401   4.569  15.332  0.9486 -0.6781  0.3921
 4470TIP3   OH234824   5.620   4.111   4.619  0.3224  0.0409  0.0153
 4470TIP3    H134825   5.669   4.088   4.698 -1.9152  0.2648  1.5612
 4470TIP3    H234826   5.602   4.204   4.629 -1.9363 -0.4009  0.4407
 4471TIP3   OH234827   0.837   1.495  13.003 -0.0725  0.3013 -0.6773
 4471TIP3    H134828   0.743   1.506  13.011  0.0427  1.5263 -0.8944
 4471TIP3    H234829   0.848   1.446  12.921 -0.4893  0.9425 -1.1276
 4472TIP3   OH234830   5.774   6.352  16.248  0.5377  0.1832 -0.0719
 4472TIP3    H134831   5.729   6.387  16.325  0.0664 -0.1484 -0.1905
 4472TIP3    H234832   5.774   6.257  16.261 -1.3236 -0.0538 -1.4000
 4473TIP3   OH234833   2.057   2.267   2.719 -0.6392 -0.2278 -0.1956
 4473TIP3    H134834   2.088   2.349   2.759 -3.5134  0.3747  1.0454
 4473TIP3    H234835   2.085   2.273   2.628 -0.2239  1.8538  0.0215
 4474TIP3   OH234836   0.489   0.438   2.954  0.3675 -0.4928 -0.0473
 4474TIP3    H134837   0.461   0.523   2.920  0.3854 -0.8906 -1.1188
 4474TIP3    H234838   0.525   0.393   2.877  1.8158 -0.8707  0.8071
 4475TIP3   OH234839   5.415   2.825  14.534  0.3003  0.4411  0.1115
 4475TIP3    H134840   5.333   2.793  14.570  0.6256 -1.3428 -0.6122
 4475TIP3    H234841   5.430   2.909  14.578 -0.8838 -0.1480  1.7401
 4476TIP3   OH234842   2.157   6.220  16.466 -0.2314 -0.0555  0.0567
 4476TIP3    H134843   2.115   6.301  16.437 -3.0131 -0.5727  2.2291
 4476TIP3    H234844   2.169   6.169  16.385  1.2444  2.2599 -1.3072
 4477TIP3   OH234845   3.097   1.559   5.614 -0.1784  0.2745 -0.9222
 4477TIP3    H134846   3.020   1.579   5.668  0.4559  1.1961 -0.3396
 4477TIP3    H234847   3.104   1.464   5.617  1.2340  0.3265  2.6789
 4478TIP3   OH234848   2.569   5.686  15.276  0.0346 -0.1469 -0.1502
 4478TIP3    H134849   2.629   5.638  15.333  1.7308 -1.4824 -2.8508
 4478TIP3    H234850   2.506   5.620  15.247 -0.8441  0.5309  0.1623
 4479TIP3   OH234851   3.538   6.164   1.983  1.2692 -0.3839  0.0782
 4479TIP3    H134852   3.494   6.104   1.923 -0.5233 -1.0535  1.9585
 4479TIP3    H234853   3.534   6.249   1.940  0.5044 -0.9403 -0.9800
 4480TIP3   OH234854   1.287   2.483   4.585 -1.0168 -0.1454 -0.0282
 4480TIP3    H134855   1.229   2.554   4.612 -0.9837  0.1837 -0.7993
 4480TIP3    H234856   1.360   2.527   4.541 -0.7745 -0.6335 -0.1196
 4481TIP3   OH234857   5.227   3.969   2.352  0.3756 -0.4071 -0.3466
 4481TIP3    H134858   5.229   4.034   2.282 -0.1887 -0.4881 -0.4389
 4481TIP3    H234859   5.269   4.012   2.426  1.9299 -0.6749 -1.0274
 4482TIP3   OH234860   2.679   3.935  16.813 -0.4325  0.1385 -0.0869
 4482TIP3    H134861   2.771   3.940  16.789 -0.0669  1.5925  1.4569
 4482TIP3    H234862   2.636   4.003  16.761  0.2995  3.0427  2.8350
 4483TIP3   OH234863   1.260   1.645  15.329  0.5515 -0.2221  0.2876
 4483TIP3    H134864   1.264   1.736  15.360 -0.3066 -0.0011 -0.2094
 4483TIP3    H234865   1.284   1.593  15.405 -0.0997  0.3695  0.9141
 4484TIP3   OH234866   0.151   3.399  14.038  0.2545 -0.3675  0.1079
 4484TIP3    H134867   0.103   3.446  13.970  0.8654  1.2258  0.7248
 4484TIP3    H234868   0.153   3.460  14.112  0.9729 -1.4350  1.0027
 4485TIP3   OH234869   1.928   3.464   3.503  0.6042  0.7788 -0.7873
 4485TIP3    H134870   1.923   3.529   3.573 -0.1578  0.1573 -0.2429
 4485TIP3    H234871   2.012   3.420   3.518  1.3144  1.8868 -1.4067
 4486TIP3   OH234872   4.342   1.727  15.452  0.0756 -0.2240 -0.0811
 4486TIP3    H134873   4.407   1.675  15.499 -0.9649 -0.8503  0.7252
 4486TIP3    H234874   4.348   1.697  15.362 -0.5855 -1.8775  0.3866
 4487TIP3   OH234875   4.976   3.723   0.235  0.1591  0.2239  0.1104
 4487TIP3    H134876   4.913   3.734   0.164 -0.5380  2.3311  0.9751
 4487TIP3    H234877   4.944   3.647   0.284 -1.8318  1.3267  0.6005
 4488TIP3   OH234878   1.864   4.249   0.201 -0.3175  0.2106  0.1606
 4488TIP3    H134879   1.928   4.271   0.268 -1.4106 -1.2240  1.7751
 4488TIP3    H234880   1.847   4.332   0.155  1.4570  0.9348  0.7395
 4489TIP3   OH234881   2.334   6.339  13.883 -0.2010 -0.0674  0.5549
 4489TIP3    H134882   2.311   6.363  13.793  0.2892 -1.0870  0.1521
 4489TIP3    H234883   2.426   6.313  13.879 -0.2839 -0.5059  1.2738
 4490TIP3   OH234884   2.752   6.452  12.138 -0.4647 -0.9341  0.4498
 4490TIP3    H134885   2.673   6.403  12.116  0.0989 -1.0722 -1.4619
 4490TIP3    H234886   2.814   6.430  12.069  0.9410 -0.0881  1.3790
 4491TIP3   OH234887   1.144   1.005   4.214  0.0070 -0.3713 -0.3034
 4491TIP3    H134888   1.147   1.096   4.185 -1.8368 -0.4531 -0.8959
 4491TIP3    H234889   1.236   0.981   4.226  0.5926  1.2290 -1.1762
 4492TIP3   OH234890   2.207   5.863   0.128  0.2800  0.7483  0.4256
 4492TIP3    H134891   2.230   5.784   0.177  1.6178  1.2158  0.5727
 4492TIP3    H234892   2.268   5.864   0.054 -0.8464  0.7603 -0.5504
 4493TIP3   OH234893   6.674   2.316  15.359  0.2343 -0.4281 -0.4910
 4493TIP3    H134894   6.622   2.293  15.436 -0.9857 -1.5228 -1.5894
 4493TIP3    H234895   6.738   2.245  15.352  0.3143 -0.3535 -0.5183
 4494TIP3   OH234896   1.479   6.413  14.513 -0.1443 -0.0154 -0.0513
 4494TIP3    H134897   1.482   6.416  14.608 -0.1097  1.1358 -0.0804
 4494TIP3    H234898   1.399   6.461  14.490 -1.1629 -1.8512 -0.5499
 4495TIP3   OH234899   6.209   6.675   5.728  0.2491  0.3111 -0.4022
 4495TIP3    H134900   6.292   6.667   5.682 -0.0452 -0.3224 -0.8379
 4495TIP3    H234901   6.230   6.655   5.819  0.0847 -3.0434 -0.9542
 4496TIP3   OH234902   6.771   5.758  12.111 -0.3047 -0.0034 -0.5887
 4496TIP3    H134903   6.697   5.788  12.057 -0.7598  2.2136  1.1234
 4496TIP3    H234904   6.794   5.834  12.165  1.3401 -1.5396  1.0179
 4497TIP3   OH234905   6.741   6.038  13.426  0.1268 -1.0241 -0.0152
 4497TIP3    H134906   6.826   6.050  13.466  0.8674 -2.5104 -1.0443
 4497TIP3    H234907   6.736   6.105  13.358 -1.3712  1.8783  2.7369
 4498TIP3   OH234908   3.156   3.867  13.821  0.8740 -0.0290 -0.5564
 4498TIP3    H134909   3.119   3.845  13.906  1.3058  0.4073 -0.2512
 4498TIP3    H234910   3.080   3.869  13.762  0.5578 -0.2148 -0.1612
 4499TIP3   OH234911   1.981   0.122   2.964 -0.2475  0.0532 -0.0464
 4499TIP3    H134912   2.043   0.089   2.899 -0.6519  0.2370 -0.5369
 4499TIP3    H234913   2.029   0.190   3.011 -0.0803  0.2056 -0.4327
 4500TIP3   OH234914   0.997   0.195  13.385  0.0003  0.0769 -0.4693
 4500TIP3    H134915   0.954   0.216  13.302  0.3001  1.2474 -0.3333
 4500TIP3    H234916   1.007   0.099  13.382 -2.8066 -0.3208 -0.3927
 4501TIP3   OH234917   1.330   5.886   6.517 -0.0253  0.2143 -0.6200
 4501TIP3    H134918   1.307   5.957   6.457 -0.8586 -1.8715 -2.9414
 4501TIP3    H234919   1.401   5.840   6.473 -0.0200 -0.8424  0.4674
 4502TIP3   OH234920   6.674   2.910  11.082 -0.2151  0.0938  0.6022
 4502TIP3    H134921   6.605   2.966  11.046 -0.7222 -1.1874 -0.5008
 4502TIP3    H234922   6.756   2.950  11.050 -0.6181 -0.4413 -1.2120
 4503TIP3   OH234923   5.569   1.464  16.055  0.5859 -0.2972  0.3232
 4503TIP3    H134924   5.532   1.389  16.101 -1.4408  0.4650  0.0676
 4503TIP3    H234925   5.572   1.438  15.963  0.0943 -0.1495  0.2634
 4504TIP3   OH234926   0.123   0.657   0.782 -0.2385 -0.6038 -0.0744
 4504TIP3    H134927   0.149   0.730   0.725  2.1286 -1.0841  0.2687
 4504TIP3    H234928   0.085   0.699   0.859 -0.1950  0.1984 -0.4807
 4505TIP3   OH234929   0.942   4.644  11.698  0.4635 -1.1616 -0.4822
 4505TIP3    H134930   1.011   4.582  11.721 -0.0083 -1.6099 -0.2603
 4505TIP3    H234931   0.969   4.726  11.740  1.4989 -0.9912 -1.4433
 4506TIP3   OH234932   5.546   0.048   3.267  0.6998 -0.3026  0.2533
 4506TIP3    H134933   5.532   0.046   3.172 -0.5778 -0.1279  0.4239
 4506TIP3    H234934   5.631   0.090   3.278 -0.6027  2.8654 -0.7006
 4507TIP3   OH234935   3.101   1.110   3.581 -0.8197 -0.4193 -0.3411
 4507TIP3    H134936   3.097   1.040   3.646 -0.4673  0.6384  0.8674
 4507TIP3    H234937   3.035   1.086   3.516 -1.0296 -1.6182  0.2847
 4508TIP3   OH234938   4.393   4.564  13.725  0.4400  0.5305 -0.1128
 4508TIP3    H134939   4.304   4.537  13.749  0.1123  0.1599 -1.6448
 4508TIP3    H234940   4.381   4.638  13.666  1.1081 -0.1023 -1.0647
 4509TIP3   OH234941   3.315   1.687   4.488 -0.1264 -0.7371 -0.5244
 4509TIP3    H134942   3.277   1.622   4.547  0.2867 -0.6650 -0.1687
 4509TIP3    H234943   3.409   1.672   4.494  0.0955  0.8565  0.7488
 4510TIP3   OH234944   4.768   1.487   4.539 -0.2192  0.1545 -0.5267
 4510TIP3    H134945   4.780   1.479   4.633  2.2488  1.2931 -0.6790
 4510TIP3    H234946   4.853   1.464   4.501 -0.9965  0.2407 -2.4592
 4511TIP3   OH234947   4.212   5.477  11.726 -0.4473  0.4145 -0.3057
 4511TIP3    H134948   4.269   5.414  11.683 -1.1300 -0.0175 -0.6069
 4511TIP3    H234949   4.271   5.545  11.760  0.4782 -1.1140  1.3399
 4512TIP3   OH234950   3.873   6.483   2.333 -0.0463  0.7383  0.7300
 4512TIP3    H134951   3.908   6.403   2.370  0.1106  0.5520  0.1795
 4512TIP3    H234952   3.805   6.454   2.271 -0.6876  1.0656  1.2639
 4513TIP3   OH234953   3.971   6.363  14.840  0.9644  0.5483  0.6049
 4513TIP3    H134954   3.913   6.434  14.811  1.5138 -0.2237 -2.8236
 4513TIP3    H234955   4.048   6.408  14.875 -0.0803  1.5657  1.7156
 4514TIP3   OH234956   4.315   6.169   2.273 -0.5461  0.1242  0.6070
 4514TIP3    H134957   4.332   6.252   2.318  0.9583  0.5200 -0.6066
 4514TIP3    H234958   4.400   6.144   2.235 -1.1378 -1.5930  0.3143
 4515TIP3   OH234959   1.718   1.253  17.233 -0.1561  0.4364 -0.2247
 4515TIP3    H134960   1.746   1.210  17.314 -0.1732 -0.1443 -0.5216
 4515TIP3    H234961   1.641   1.202  17.205  0.2906  0.1698 -0.9968
 4516TIP3   OH234962   1.223   3.602   1.035 -0.1205  0.1294 -0.4998
 4516TIP3    H134963   1.243   3.519   0.992 -0.7859 -0.1709 -0.2392
 4516TIP3    H234964   1.163   3.579   1.106  0.8027  0.6308  0.4846
 4517TIP3   OH234965   6.441   3.373   5.886 -0.3581  0.0285 -0.1309
 4517TIP3    H134966   6.409   3.360   5.975  0.8361  3.2522  0.9088
 4517TIP3    H234967   6.536   3.360   5.893 -0.3054 -0.1273 -1.0365
 4518TIP3   OH234968   4.705   0.092  11.144 -0.5132  0.2610  0.8677
 4518TIP3    H134969   4.693   0.185  11.165 -1.1682  0.3237  0.2585
 4518TIP3    H234970   4.618   0.061  11.118  0.1924  0.2663 -1.9084
 4519TIP3   OH234971   4.418   2.572   1.539  0.5080  0.3583  0.2101
 4519TIP3    H134972   4.376   2.506   1.485 -2.6277  2.0253  0.3498
 4519TIP3    H234973   4.453   2.524   1.614  1.4704 -1.4845 -1.3461
 4520TIP3   OH234974   1.261   0.154   5.393 -0.3391  0.0965  0.1215
 4520TIP3    H134975   1.284   0.076   5.341 -0.6782 -0.6838  1.1059
 4520TIP3    H234976   1.341   0.207   5.393 -0.0723 -0.2904 -0.4847
 4521TIP3   OH234977   6.407   5.858   1.761 -0.3719  0.0794 -0.1046
 4521TIP3    H134978   6.322   5.851   1.717 -0.2365 -0.4673 -0.2895
 4521TIP3    H234979   6.460   5.789   1.721  0.0267  0.1421  0.3111
 4522TIP3   OH234980   3.784   3.358  11.749 -0.3509 -0.4762  0.1217
 4522TIP3    H134981   3.709   3.382  11.803 -0.6532  0.3109 -0.6173
 4522TIP3    H234982   3.810   3.271  11.780  0.3309  0.4796  2.4428
 4523TIP3   OH234983   1.411   0.850   3.812 -0.2268  0.5683  0.7189
 4523TIP3    H134984   1.360   0.924   3.844 -0.9900  0.1516  0.4840
 4523TIP3    H234985   1.348   0.779   3.802  0.3123  0.1751 -0.0230
 4524TIP3   OH234986   4.597   0.916   2.413  0.2229 -0.3731 -0.0935
 4524TIP3    H134987   4.685   0.952   2.401 -0.4236  0.4507 -3.2641
 4524TIP3    H234988   4.612   0.826   2.444  2.1279  0.0276  0.2913
 4525TIP3   OH234989   2.968   3.568  13.299  0.1781  0.4074  0.3493
 4525TIP3    H134990   2.875   3.583  13.279  0.0426 -0.5876  0.1765
 4525TIP3    H234991   3.008   3.654  13.293 -0.4578  0.6335 -1.1145
 4526TIP3   OH234992   6.725   2.382  14.532 -0.2018 -0.0646  0.1968
 4526TIP3    H134993   6.741   2.367  14.625 -2.2273 -0.1853  0.5652
 4526TIP3    H234994   6.692   2.298  14.499 -2.8470  0.8663  0.2150
 4527TIP3   OH234995   5.749   2.764   3.899 -0.5737  0.6431 -0.0607
 4527TIP3    H134996   5.800   2.763   3.981 -0.6114 -1.3668 -0.0155
 4527TIP3    H234997   5.810   2.731   3.833 -1.5007 -0.9789 -0.1694
 4528TIP3   OH234998   1.384   0.333   0.287 -0.3854 -0.0476 -0.5750
 4528TIP3    H134999   1.415   0.251   0.324 -1.4467 -0.0367  0.4110
 4528TIP3    H235000   1.321   0.366   0.352 -3.3837 -0.6841 -2.9492
 4529TIP3   OH235001   3.301   3.429   2.547  0.1570 -0.2890 -0.1180
 4529TIP3    H135002   3.222   3.376   2.554  0.8258 -1.1419  1.6598
 4529TIP3    H235003   3.350   3.389   2.475 -0.2825 -0.7784 -0.1499
 4530TIP3   OH235004   3.191   5.979   5.913  0.3520 -0.2048 -0.1822
 4530TIP3    H135005   3.158   5.895   5.944  0.5147  0.1062  0.9112
 4530TIP3    H235006   3.250   6.009   5.983  1.6695  0.0198 -1.3279
 4531TIP3   OH235007   1.975   3.369   5.534  0.3241  0.1113  0.1709
 4531TIP3    H135008   2.019   3.306   5.591 -0.7274 -0.5443  0.2715
 4531TIP3    H235009   1.996   3.454   5.572  1.1425 -0.2113  0.4685
 4532TIP3   OH235010   0.657   1.869   4.998 -0.3328 -0.5756  0.3857
 4532TIP3    H135011   0.663   1.843   5.090 -1.3045 -1.5096  0.1950
 4532TIP3    H235012   0.607   1.950   4.999  0.4307 -0.0940  0.7443
 4533TIP3   OH235013   3.656   4.347   0.128  0.1606 -0.5783 -0.5062
 4533TIP3    H135014   3.750   4.364   0.140  0.1302 -0.6948 -0.1023
 4533TIP3    H235015   3.650   4.253   0.114 -0.1201 -1.0197  1.9901
 4534TIP3   OH235016   4.934   2.223  11.525  0.2867  0.1616  0.3571
 4534TIP3    H135017   4.963   2.205  11.614 -0.5316  0.9810  0.8081
 4534TIP3    H235018   4.938   2.318  11.517  1.1139  0.0521 -0.7625
 4535TIP3   OH235019   5.735   6.372  14.863  0.0444 -0.0636  0.3123
 4535TIP3    H135020   5.668   6.426  14.820  1.1588  1.5356  0.4749
 4535TIP3    H235021   5.708   6.372  14.955 -0.3119 -0.3353  0.2106
 4536TIP3   OH235022   2.370   2.699  11.010  0.4493  0.5259 -0.8568
 4536TIP3    H135023   2.356   2.708  10.916  0.5975 -0.4420 -0.9863
 4536TIP3    H235024   2.282   2.691  11.047  0.3944  0.8065 -0.9271
 4537TIP3   OH235025   0.646   3.388  16.955  0.0187 -0.0092 -0.1208
 4537TIP3    H135026   0.560   3.346  16.965  0.2990 -0.5435  0.0702
 4537TIP3    H235027   0.693   3.331  16.894  0.2764  0.2302 -0.1479
 4538TIP3   OH235028   6.019   4.556  10.877 -0.3869  0.1408 -0.2435
 4538TIP3    H135029   6.030   4.586  10.787  0.3331  1.5663  0.2811
 4538TIP3    H235030   6.005   4.637  10.927 -1.6396 -0.6893  0.8149
 4539TIP3   OH235031   2.738   3.813   0.438  0.1254 -0.1184  0.3534
 4539TIP3    H135032   2.654   3.859   0.447 -0.3496 -1.1645  1.6979
 4539TIP3    H235033   2.720   3.744   0.374  0.1332  0.0443  0.1768
 4540TIP3   OH235034   2.877   5.036   3.829  0.8399 -0.1686 -1.2839
 4540TIP3    H135035   2.895   5.129   3.844 -1.3940  0.2389 -0.7421
 4540TIP3    H235036   2.906   4.992   3.910 -0.4443  0.4466 -0.4519
 4541TIP3   OH235037   2.861   0.662  10.837  0.5712 -0.4645 -0.5219
 4541TIP3    H135038   2.789   0.600  10.835  0.3667 -0.2192 -1.1149
 4541TIP3    H235039   2.824   0.743  10.803 -0.6745  1.6841  4.9156
 4542TIP3   OH235040   2.050   6.164   0.908 -0.2075  0.0285  0.0139
 4542TIP3    H135041   1.982   6.130   0.966  0.1321  1.9722  1.6530
 4542TIP3    H235042   2.132   6.127   0.941 -0.3193 -1.6222 -1.4285
 4543TIP3   OH235043   4.631   1.334  11.875 -0.1721  0.3610 -0.1402
 4543TIP3    H135044   4.561   1.275  11.848 -2.0804  0.9981  2.8915
 4543TIP3    H235045   4.695   1.276  11.917  0.2280 -0.0045 -1.2170
 4544TIP3   OH235046   6.464   4.465   1.002 -0.5359  0.1671  0.6660
 4544TIP3    H135047   6.434   4.548   0.965 -0.3714  0.1163  0.4228
 4544TIP3    H235048   6.483   4.485   1.094 -0.3929  0.4212  0.5790
 4545TIP3   OH235049   5.288   2.631  13.377 -0.3625 -0.0540  0.5942
 4545TIP3    H135050   5.216   2.671  13.425 -0.7476  1.2250 -0.9669
 4545TIP3    H235051   5.360   2.693  13.386 -0.4353  0.1895 -0.4492
 4546TIP3   OH235052   5.920   0.863  14.648 -0.0142  0.1570  0.3651
 4546TIP3    H135053   5.833   0.832  14.674  0.0091  0.2423  0.5459
 4546TIP3    H235054   5.980   0.803  14.692  0.0171  0.0493  0.1755
 4547TIP3   OH235055   1.535   1.876  13.508  0.1599 -0.2228  0.2576
 4547TIP3    H135056   1.535   1.823  13.588 -1.6417 -1.7082 -0.6351
 4547TIP3    H235057   1.523   1.812  13.437 -1.0017  1.2607 -0.9585
 4548TIP3   OH235058   2.700   5.494  14.290 -0.5499  0.1329  0.3751
 4548TIP3    H135059   2.755   5.541  14.353 -0.2636 -0.2919  0.4433
 4548TIP3    H235060   2.613   5.493  14.332  0.0398 -1.8182  1.6996
 4549TIP3   OH235061   2.323   1.922  13.115 -0.0530  0.4327  0.3282
 4549TIP3    H135062   2.331   1.872  13.196  1.0967 -1.4656 -0.8630
 4549TIP3    H235063   2.240   1.969  13.124  0.7779  1.5254  3.1956
 4550TIP3   OH235064   5.807   2.969  15.746 -0.4742 -0.7036  0.6722
 4550TIP3    H135065   5.830   3.061  15.752 -2.1458 -0.1013 -1.0806
 4550TIP3    H235066   5.830   2.932  15.832 -2.4049  1.9674  2.4745
 4551TIP3   OH235067   2.703   5.765  17.274 -0.2074 -0.1847  0.5282
 4551TIP3    H135068   2.744   5.821  17.208  1.8513 -1.2450  0.8240
 4551TIP3    H235069   2.743   5.792  17.357 -0.6427 -0.7758  0.9463
 4552TIP3   OH235070   5.291   2.542   1.452 -0.3333  0.1683 -0.0306
 4552TIP3    H135071   5.200   2.531   1.425 -0.4202  1.0012 -0.1083
 4552TIP3    H235072   5.303   2.478   1.522 -0.7651 -0.4413 -0.5051
 4553TIP3   OH235073   2.314   4.900   4.447  0.3489 -0.0226 -0.3632
 4553TIP3    H135074   2.233   4.849   4.445  0.2001  0.0850  1.6200
 4553TIP3    H235075   2.365   4.866   4.373 -1.5121 -0.0083 -1.7315
 4554TIP3   OH235076   0.275   2.245   0.962  0.1232  0.5614  0.2356
 4554TIP3    H135077   0.277   2.199   1.046 -0.1727 -1.5375 -0.8413
 4554TIP3    H235078   0.223   2.323   0.978  0.6059  0.5291  2.1516
 4555TIP3   OH235079   0.177   0.171  13.759 -0.2032 -0.0103  0.0957
 4555TIP3    H135080   0.247   0.214  13.708 -1.2357 -0.0656 -1.4553
 4555TIP3    H235081   0.189   0.203  13.848  1.2524  0.6852 -0.3171
 4556TIP3   OH235082   0.751   1.992  13.147  0.5276  0.3811 -0.4269
 4556TIP3    H135083   0.662   1.962  13.131  0.8541 -1.3281  0.7141
 4556TIP3    H235084   0.797   1.981  13.064 -0.4051  1.7240 -1.1555
 4557TIP3   OH235085   0.951   6.317  15.520  0.3091 -0.2356 -0.0858
 4557TIP3    H135086   0.970   6.403  15.482  0.3690 -0.5777 -0.8422
 4557TIP3    H235087   1.034   6.270  15.515  0.8564  0.3494  2.2504
 4558TIP3   OH235088   5.143   0.079  15.256 -0.3327  0.3011 -0.0007
 4558TIP3    H135089   5.194   0.157  15.232 -0.7094  0.9118  1.0901
 4558TIP3    H235090   5.072   0.077  15.193  1.2747 -0.8556 -1.8713
 4559TIP3   OH235091   1.984   2.405   3.010 -0.2584  0.0572  0.0795
 4559TIP3    H135092   1.974   2.454   2.928 -1.4030  0.7228  0.5878
 4559TIP3    H235093   1.913   2.437   3.066  0.8665  0.0618  1.5700
 4560TIP3   OH235094   2.788   1.311   1.119  0.1376 -0.6237 -0.0231
 4560TIP3    H135095   2.829   1.306   1.205 -1.3009  1.4385  0.8682
 4560TIP3    H235096   2.714   1.371   1.131 -1.9551 -2.6215 -1.9980
 4561TIP3   OH235097   0.377   2.051   3.640 -0.0088  0.1954  0.0048
 4561TIP3    H135098   0.319   1.975   3.647 -0.6198  0.7332  0.8138
 4561TIP3    H235099   0.464   2.013   3.626 -0.6194 -0.6129 -1.9929
 4562TIP3   OH235100   4.587   0.448  13.372 -0.2965  0.2166 -0.1090
 4562TIP3    H135101   4.622   0.411  13.291  1.1645  0.4132  0.3991
 4562TIP3    H235102   4.609   0.384  13.439  0.3378  0.9754  0.4335
 4563TIP3   OH235103   5.469   6.164   1.229  0.1267 -0.1349 -0.3161
 4563TIP3    H135104   5.421   6.235   1.186 -0.4584 -1.5911 -2.2412
 4563TIP3    H235105   5.401   6.101   1.253  0.8900 -1.7444 -2.1219
 4564TIP3   OH235106   5.124   3.777  14.312 -0.0574  0.0618  0.6400
 4564TIP3    H135107   5.150   3.806  14.225  1.0444 -0.5873  0.7302
 4564TIP3    H235108   5.037   3.814  14.325  0.0700  0.7790 -0.4343
 4565TIP3   OH235109   1.838   4.440   4.784 -0.1514  0.4463  0.2590
 4565TIP3    H135110   1.881   4.448   4.699  0.8824 -0.0333  0.7160
 4565TIP3    H235111   1.761   4.385   4.767 -0.6158  1.3302 -0.5763
 4566TIP3   OH235112   2.157   3.698   2.029 -0.7013 -0.0978 -0.2154
 4566TIP3    H135113   2.141   3.621   2.083  0.7161 -0.6098 -0.4945
 4566TIP3    H235114   2.115   3.678   1.945 -0.8111 -0.3171 -0.1091
 4567TIP3   OH235115   2.191   5.993   4.645 -0.0539  0.3033  0.8824
 4567TIP3    H135116   2.199   6.089   4.643  1.1317  0.2129  0.7102
 4567TIP3    H235117   2.250   5.963   4.577  1.4003 -0.6497  2.4829
 4568TIP3   OH235118   6.216   2.330  13.499  0.5980 -0.5396 -0.3295
 4568TIP3    H135119   6.244   2.412  13.540  0.2856 -0.5135 -0.1681
 4568TIP3    H235120   6.294   2.274  13.504  0.3734 -0.7722  0.9336
 4569TIP3   OH235121   6.449   5.809   2.529  0.8573 -0.2391  0.1901
 4569TIP3    H135122   6.482   5.809   2.619 -0.2096  0.5862  0.6100
 4569TIP3    H235123   6.372   5.752   2.532  1.1471 -0.6625 -0.3356
 4570TIP3   OH235124   0.061   0.734  16.847  0.4560  0.0700  0.1676
 4570TIP3    H135125  -0.002   0.682  16.798 -0.4647  1.0560  0.2858
 4570TIP3    H235126   0.010   0.805  16.885  1.7396  1.2328 -0.2297
 4571TIP3   OH235127   4.908   4.155   2.531 -0.3395  0.4134  0.5251
 4571TIP3    H135128   5.003   4.167   2.529 -0.4737  1.7462  1.2713
 4571TIP3    H235129   4.896   4.061   2.518  0.9578  0.5482 -2.3486
 4572TIP3   OH235130   3.180   3.486  12.367 -0.0210  0.4463 -0.0740
 4572TIP3    H135131   3.228   3.481  12.284 -0.6248  2.7790 -0.6158
 4572TIP3    H235132   3.230   3.549  12.419 -1.0457  0.9244  0.3416
 4573TIP3   OH235133   1.282   0.330   2.865  0.1352  0.0895  0.4036
 4573TIP3    H135134   1.244   0.335   2.952 -0.4755  1.0656  0.0948
 4573TIP3    H235135   1.279   0.420   2.832 -1.5923 -0.5719 -1.4331
 4574TIP3   OH235136   3.646   0.686   3.911  0.4131 -0.3450  0.3103
 4574TIP3    H135137   3.739   0.664   3.902  0.2728 -1.4958  1.5059
 4574TIP3    H235138   3.617   0.637   3.987 -1.2016 -0.0307 -0.0771
 4575TIP3   OH235139   0.485   0.183   1.482 -0.8072 -0.7312  0.0142
 4575TIP3    H135140   0.437   0.135   1.550 -0.0067 -0.0857  1.0579
 4575TIP3    H235141   0.577   0.160   1.497 -0.6711 -1.0359 -1.2253
 4576TIP3   OH235142   0.848   0.035   4.061 -0.2029  0.1765  0.0545
 4576TIP3    H135143   0.800   0.087   3.997  1.7516  1.4338 -0.4803
 4576TIP3    H235144   0.867   0.096   4.132 -0.5937 -0.6690  0.8958
 4577TIP3   OH235145   1.606   2.425  11.902  0.3023  0.7667  0.5580
 4577TIP3    H135146   1.612   2.416  11.807 -1.2087  0.9997  0.4218
 4577TIP3    H235147   1.679   2.373  11.935  0.6951  0.4657 -0.7079
 4578TIP3   OH235148   0.727   1.121  10.894  0.1318  0.2096  0.0310
 4578TIP3    H135149   0.807   1.084  10.932 -0.3609 -3.2534 -1.8933
 4578TIP3    H235150   0.758   1.189  10.834  1.5618 -0.4654 -0.0369
 4579TIP3   OH235151   5.776   1.069   4.789 -0.0693  0.8736 -0.3734
 4579TIP3    H135152   5.784   0.978   4.762  0.8193  0.7178  0.3341
 4579TIP3    H235153   5.850   1.113   4.747  0.4518  0.9227  0.5636
 4580TIP3   OH235154   0.333   5.819   0.176 -0.1677 -1.3981 -0.3004
 4580TIP3    H135155   0.389   5.742   0.167  0.8952 -0.6426 -0.3899
 4580TIP3    H235156   0.390   5.893   0.155 -1.3153 -0.6200 -0.7861
 4581TIP3   OH235157   4.033   4.828  10.771 -0.6258 -0.0813 -0.0826
 4581TIP3    H135158   4.117   4.871  10.784 -0.2826 -1.2994  2.1925
 4581TIP3    H235159   3.970   4.886  10.814 -0.5092 -0.6404  0.8499
 4582TIP3   OH235160   2.540   6.250   5.810  0.3058 -0.2693  0.6700
 4582TIP3    H135161   2.583   6.336   5.802  2.5294 -1.1970  1.7445
 4582TIP3    H235162   2.587   6.194   5.749 -1.5022 -0.6361 -0.4369
 4583TIP3   OH235163   4.270   4.331   2.369  0.8437  0.7418 -0.4695
 4583TIP3    H135164   4.341   4.267   2.365 -1.4429 -2.0830  0.6642
 4583TIP3    H235165   4.252   4.354   2.277 -1.1337 -3.8282 -1.4660
 4584TIP3   OH235166   3.998   1.255   5.875 -0.5665  0.5519  0.7562
 4584TIP3    H135167   4.045   1.208   5.945  0.4749  1.6048  0.7848
 4584TIP3    H235168   4.059   1.257   5.802 -1.8977 -1.1569 -0.5099
 4585TIP3   OH235169   4.364   6.772   3.953  0.4404 -0.1902  0.6311
 4585TIP3    H135170   4.377   6.742   3.863 -1.3199 -0.7475  0.5209
 4585TIP3    H235171   4.448   6.754   3.997  1.6312  0.9271 -1.0824
 4586TIP3   OH235172   2.141   2.710   5.674  0.1178  0.0977  0.6492
 4586TIP3    H135173   2.199   2.677   5.743  0.3419 -0.5273  0.1695
 4586TIP3    H235174   2.198   2.765   5.620  0.3897 -0.8777 -0.0835
 4587TIP3   OH235175   2.853   1.538   5.775  0.8422  0.0276  0.7187
 4587TIP3    H135176   2.858   1.577   5.862 -0.6427 -0.1078  0.8820
 4587TIP3    H235177   2.790   1.467   5.784  0.7100 -0.0217 -0.4539
 4588TIP3   OH235178   0.082   5.941   5.599 -0.6678 -0.3116 -0.3851
 4588TIP3    H135179   0.131   6.007   5.648 -2.2617 -1.1622  2.6282
 4588TIP3    H235180   0.134   5.861   5.609 -1.5349 -0.7424  1.0308
 4589TIP3   OH235181   4.235   1.534  12.572 -0.3079  0.2241  0.4768
 4589TIP3    H135182   4.303   1.490  12.623  1.4471  1.1755 -0.9276
 4589TIP3    H235183   4.241   1.493  12.485 -0.0988  1.7158 -0.2433
 4590TIP3   OH235184   0.900   5.775   0.582  0.3073  0.2685 -0.0760
 4590TIP3    H135185   0.816   5.758   0.540  0.5458 -0.3050 -0.3365
 4590TIP3    H235186   0.963   5.728   0.528  0.6863 -0.0551  0.6412
 4591TIP3   OH235187   0.855   2.042   0.073  0.1282 -0.0374 -0.1478
 4591TIP3    H135188   0.785   2.103   0.053  0.3151  0.3441  0.3384
 4591TIP3    H235189   0.921   2.095   0.119 -0.9449 -1.1155  2.9493
 4592TIP3   OH235190   5.160   2.028   1.936  0.2326  0.0252 -0.0749
 4592TIP3    H135191   5.100   2.066   1.872 -2.3231  0.0635  2.1389
 4592TIP3    H235192   5.208   1.962   1.887 -0.6096  0.9508 -2.3078
 4593TIP3   OH235193   1.342   5.202  11.373 -0.3463 -0.0980  0.0561
 4593TIP3    H135194   1.374   5.156  11.296 -0.1761 -1.3262  0.8394
 4593TIP3    H235195   1.397   5.280  11.379 -1.6135  1.0840 -2.1561
 4594TIP3   OH235196   5.731   2.429  13.996 -0.4521  0.2004  0.3958
 4594TIP3    H135197   5.804   2.382  13.956 -1.0594 -0.9178  0.5337
 4594TIP3    H235198   5.664   2.362  14.007 -0.4121  0.4968  3.0451
 4595TIP3   OH235199   4.577   6.347  14.878 -0.0340  0.4590  0.0350
 4595TIP3    H135200   4.495   6.348  14.827  0.0054  0.9447 -0.0208
 4595TIP3    H235201   4.645   6.368  14.814  0.1844 -0.3425 -0.0007
 4596TIP3   OH235202   4.367   2.873  14.841 -0.1512 -0.6109  0.2184
 4596TIP3    H135203   4.369   2.963  14.874 -1.2813  0.0087 -1.2897
 4596TIP3    H235204   4.369   2.819  14.920 -2.2865  0.7874  1.3480
 4597TIP3   OH235205   0.070   6.498   3.634 -0.1660 -1.0741 -0.7443
 4597TIP3    H135206   0.113   6.430   3.583 -0.3945 -0.0185 -2.4059
 4597TIP3    H235207   0.124   6.576   3.622  0.1797 -0.9401  1.2448
 4598TIP3   OH235208   0.743   3.378  16.273 -0.0969 -0.1404  0.2655
 4598TIP3    H135209   0.710   3.361  16.185  0.7354 -0.4060 -0.0076
 4598TIP3    H235210   0.813   3.442  16.261  0.0016 -0.1521  0.7358
 4599TIP3   OH235211   1.267   0.406  11.984  0.3085  0.8031  0.0894
 4599TIP3    H135212   1.302   0.493  12.002 -0.3748  1.0267  0.3833
 4599TIP3    H235213   1.173   0.415  12.001  0.3862 -0.2727  1.1822
 4600TIP3   OH235214   6.329   0.531   6.561  0.2037  0.1750  0.3084
 4600TIP3    H135215   6.414   0.570   6.582  0.7255  0.6023 -2.2486
 4600TIP3    H235216   6.338   0.439   6.583  0.5089  0.6344  2.2102
 4601TIP3   OH235217   4.125   1.799  14.420  0.3848  0.2559  0.4386
 4601TIP3    H135218   4.032   1.815  14.441  0.4978  0.7878  0.5374
 4601TIP3    H235219   4.139   1.708  14.446  0.0560  0.3674  1.0336
 4602TIP3   OH235220   3.591   0.702  16.258 -0.3352 -0.4535  0.1474
 4602TIP3    H135221   3.560   0.620  16.220  0.8641 -1.0878  0.4703
 4602TIP3    H235222   3.610   0.681  16.349 -2.6863  0.9152  1.0367
 4603TIP3   OH235223   1.555   6.174   0.947 -0.2988 -0.0319  0.3498
 4603TIP3    H135224   1.473   6.127   0.968 -0.4631 -0.1255 -0.4863
 4603TIP3    H235225   1.528   6.244   0.888 -0.0152  0.9917  1.3992
 4604TIP3   OH235226   2.785   4.109  13.850 -0.1002  0.2290  0.4907
 4604TIP3    H135227   2.716   4.143  13.908 -1.9427 -0.0035 -1.4256
 4604TIP3    H235228   2.866   4.121  13.899 -1.6204 -0.9150  3.5215
 4605TIP3   OH235229   2.447   1.045  15.754 -0.2772  0.1174 -0.0660
 4605TIP3    H135230   2.486   1.123  15.713  0.7841 -0.0767  0.5298
 4605TIP3    H235231   2.522   0.988  15.773 -1.0344 -1.0856 -0.5455
 4606TIP3   OH235232   1.728   0.853   0.767 -0.0144  0.1979 -0.0195
 4606TIP3    H135233   1.817   0.873   0.795  0.7550 -1.6183 -1.0156
 4606TIP3    H235234   1.739   0.806   0.684 -1.8798 -0.3374 -0.0020
 4607TIP3   OH235235   5.509   1.259  11.589  0.4071 -0.1448 -0.0680
 4607TIP3    H135236   5.479   1.258  11.680 -0.4619  0.2650 -0.3429
 4607TIP3    H235237   5.432   1.234  11.538  0.7381  0.1861 -0.7367
 4608TIP3   OH235238   6.534   6.501  16.347 -0.4768 -0.5154  0.2462
 4608TIP3    H135239   6.539   6.498  16.252  0.9621 -1.0917  0.3148
 4608TIP3    H235240   6.551   6.593  16.369  2.9649 -0.9656  0.0401
 4609TIP3   OH235241   2.843   5.770   5.318  0.2098  0.1207  0.3991
 4609TIP3    H135242   2.785   5.746   5.390 -2.4535  1.1202 -1.2870
 4609TIP3    H235243   2.840   5.696   5.258 -0.0584  0.5426 -0.1182
 4610TIP3   OH235244   2.815   2.180  17.077 -0.4077 -0.1303 -0.2911
 4610TIP3    H135245   2.779   2.175  17.165  0.3787 -0.0788  0.0389
 4610TIP3    H235246   2.743   2.215  17.023 -0.7156  0.3367  0.4185
 4611TIP3   OH235247   1.690   1.124   2.361  0.1208  0.5425  0.0878
 4611TIP3    H135248   1.720   1.211   2.336 -1.2980  0.9704 -0.2018
 4611TIP3    H235249   1.651   1.088   2.281  2.8380 -1.3804 -0.5171
 4612TIP3   OH235250   4.242   5.606   3.240 -0.4579 -0.1110 -0.2224
 4612TIP3    H135251   4.328   5.645   3.256  0.6642 -1.5911 -2.2258
 4612TIP3    H235252   4.248   5.570   3.152 -2.8449 -1.0975 -0.0523
 4613TIP3   OH235253   2.779   2.016   3.908 -0.4759  0.2314  0.3235
 4613TIP3    H135254   2.853   1.966   3.941  0.4801  1.2047 -0.2731
 4613TIP3    H235255   2.718   1.950   3.875  0.6682 -0.5640 -0.2727
 4614TIP3   OH235256   3.568   5.769   1.928  0.5637  0.8811 -0.5354
 4614TIP3    H135257   3.649   5.799   1.887  1.5646  2.4495  2.2803
 4614TIP3    H235258   3.499   5.793   1.867  2.0529  1.5157 -2.0356
 4615TIP3   OH235259   3.270   5.108  14.350 -0.3930  0.1148 -0.3303
 4615TIP3    H135260   3.256   5.160  14.429  3.2257  0.8851 -0.0450
 4615TIP3    H235261   3.252   5.170  14.278 -0.7150  0.3309 -0.0672
 4616TIP3   OH235262   0.274   1.190   0.203 -0.5851  0.0034  0.2273
 4616TIP3    H135263   0.199   1.238   0.239 -1.6040 -1.1115 -0.3215
 4616TIP3    H235264   0.241   1.101   0.190  0.6441 -0.3439 -0.6707
 4617TIP3   OH235265   4.491   6.750  12.032  0.0427 -0.0712 -0.2579
 4617TIP3    H135266   4.434   6.823  12.007  0.6090  0.4410 -0.0552
 4617TIP3    H235267   4.575   6.790  12.053  1.3675 -0.9939 -3.1245
 4618TIP3   OH235268   6.752   3.901   0.999  1.0195 -0.1312 -0.0391
 4618TIP3    H135269   6.708   3.985   1.017  0.7745 -0.3535  0.3984
 4618TIP3    H235270   6.811   3.888   1.073  0.7726 -0.5352  0.0904
 4619TIP3   OH235271   0.674   4.090   1.845 -0.3429  0.4436 -0.3256
 4619TIP3    H135272   0.743   4.034   1.880  0.7022  3.0464  2.1538
 4619TIP3    H235273   0.716   4.138   1.774 -1.2060 -1.6129 -2.3685
 4620TIP3   OH235274   0.921   0.506   5.767 -0.1435  0.5987  0.3143
 4620TIP3    H135275   0.954   0.594   5.784  1.5262 -0.1163  1.0061
 4620TIP3    H235276   0.900   0.506   5.673 -0.6693  1.8664  0.4169
 4621TIP3   OH235277   0.873   2.964  16.973  0.2983  0.3919  1.0401
 4621TIP3    H135278   0.866   3.036  16.910 -0.2996  0.3597  1.0612
 4621TIP3    H235279   0.935   2.996  17.039  2.0967 -0.1454 -0.3087
 4622TIP3   OH235280   4.261   0.885   4.527  0.2749  0.1557  0.3834
 4622TIP3    H135281   4.200   0.813   4.516  0.1458  0.4264 -0.8843
 4622TIP3    H235282   4.345   0.849   4.499  0.2043  0.4892 -0.2812
 4623TIP3   OH235283   0.448   6.604  16.088  0.0337 -0.1165 -0.3377
 4623TIP3    H135284   0.378   6.550  16.124  0.7027 -0.3592  0.6465
 4623TIP3    H235285   0.529   6.562  16.120  0.5726  2.0697  1.4227
 4624TIP3   OH235286   5.319   0.906  14.703  0.3227  0.2847 -0.0757
 4624TIP3    H135287   5.354   0.914  14.615  1.6712 -0.5368  0.3657
 4624TIP3    H235288   5.320   0.812  14.722  3.3155  0.5784  2.0103
 4625TIP3   OH235289   6.304   5.880   1.008 -0.7668 -0.0488 -0.4144
 4625TIP3    H135290   6.358   5.902   0.931  1.0883 -0.8060  0.5931
 4625TIP3    H235291   6.223   5.846   0.972  0.3822 -1.1739 -2.0873
 4626TIP3   OH235292   5.560   5.186  16.577  0.1178  0.0922 -0.1014
 4626TIP3    H135293   5.513   5.139  16.509 -0.7138  0.3154  0.3050
 4626TIP3    H235294   5.544   5.279  16.557 -1.4792  0.1594  1.2775
 4627TIP3   OH235295   4.110   0.689  13.870  0.3464  0.0435  0.2171
 4627TIP3    H135296   4.043   0.630  13.904  0.3741 -0.6161 -0.8404
 4627TIP3    H235297   4.078   0.716  13.784  1.0760  0.3148  0.0184
 4628TIP3   OH235298   0.322   4.807  12.709  0.4389 -0.3445 -0.1938
 4628TIP3    H135299   0.261   4.798  12.782 -1.8735  0.9127 -1.8738
 4628TIP3    H235300   0.401   4.761  12.739 -1.9698 -3.9115  1.2647
 4629TIP3   OH235301   3.350   3.282  14.107  0.2096  0.4147  0.2782
 4629TIP3    H135302   3.272   3.230  14.086  0.4939 -0.4316  1.2552
 4629TIP3    H235303   3.370   3.328  14.025 -1.3247  0.6791  0.0230
 4630TIP3   OH235304   3.150   5.326  13.296 -0.3208  0.0405  0.1147
 4630TIP3    H135305   3.165   5.412  13.255  1.0055 -0.8173 -1.3219
 4630TIP3    H235306   3.229   5.311  13.348  0.2881 -1.0326 -1.0536
 4631TIP3   OH235307   1.788   6.281  16.100 -0.4418 -0.0670  0.3515
 4631TIP3    H135308   1.749   6.215  16.043 -4.8077  0.6981  2.0837
 4631TIP3    H235309   1.845   6.232  16.158 -0.0566 -1.6033 -1.2414
 4632TIP3   OH235310   4.704   5.667  14.535  0.5027  0.0708  0.7096
 4632TIP3    H135311   4.785   5.643  14.490  0.3119  0.1109  0.3342
 4632TIP3    H235312   4.708   5.622  14.619  0.7060 -0.2896  0.5085
 4633TIP3   OH235313   4.613   6.128  13.354 -0.5923  0.4257 -0.2477
 4633TIP3    H135314   4.686   6.146  13.294  0.2853 -0.0982  0.6325
 4633TIP3    H235315   4.655   6.115  13.439 -1.3772 -2.8025 -0.2225
 4634TIP3   OH235316   0.170   2.430  15.715  0.2518  0.0618  0.2023
 4634TIP3    H135317   0.162   2.525  15.709  2.2487  0.4353  2.3652
 4634TIP3    H235318   0.249   2.415  15.767 -0.4740 -2.7837  0.6583
 4635TIP3   OH235319   1.521   6.541   5.144  0.5901 -0.4494  0.1110
 4635TIP3    H135320   1.589   6.566   5.081  1.1043  0.3851  0.9680
 4635TIP3    H235321   1.564   6.479   5.203 -0.0454 -1.6535 -0.6605
 4636TIP3   OH235322   6.363   3.286   0.107  0.7225 -0.5863  0.1536
 4636TIP3    H135323   6.432   3.261   0.168  0.8129  0.5994  0.5564
 4636TIP3    H235324   6.285   3.294   0.162  0.1745 -2.1389 -0.3308
 4637TIP3   OH235325   5.202   2.832   4.725 -0.1976  0.0177  0.2684
 4637TIP3    H135326   5.188   2.804   4.815  0.3927 -0.6981  0.1497
 4637TIP3    H235327   5.293   2.862   4.723  0.2864 -1.3941 -0.4222
 4638TIP3   OH235328   6.279   5.139  15.385 -0.1548  0.2094  0.9298
 4638TIP3    H135329   6.207   5.128  15.447 -2.2021  1.7516 -1.0088
 4638TIP3    H235330   6.304   5.231  15.393 -1.5065  0.8784 -1.4535
 4639TIP3   OH235331   4.872   5.891  11.550  0.4079  0.2716  0.0710
 4639TIP3    H135332   4.926   5.925  11.621  0.5048  1.3142 -0.4768
 4639TIP3    H235333   4.870   5.962  11.486 -1.7710  0.3663  0.1641
 4640TIP3   OH235334   2.450   6.227   5.423 -0.1383 -0.7087  0.1783
 4640TIP3    H135335   2.448   6.299   5.486  0.6110 -0.4492 -0.0820
 4640TIP3    H235336   2.539   6.193   5.429 -0.1906 -0.9606 -0.4268
 4641TIP3   OH235337   6.209   4.146  16.530  0.0640 -0.4219  0.2311
 4641TIP3    H135338   6.220   4.163  16.437 -0.1813  2.0316  0.5777
 4641TIP3    H235339   6.298   4.150  16.566 -0.0356  0.8019  0.3811
 4642TIP3   OH235340   2.455   0.308   1.876  0.2105  0.1645 -0.0032
 4642TIP3    H135341   2.434   0.226   1.830  0.4918 -0.0137  0.1813
 4642TIP3    H235342   2.419   0.377   1.820 -1.0195 -0.1370  0.3916
 4643TIP3   OH235343   1.252   2.314   2.044  0.0844 -0.2602  0.5495
 4643TIP3    H135344   1.304   2.254   2.098  1.4603  0.9437  0.6423
 4643TIP3    H235345   1.267   2.284   1.955  3.6774  1.8837  0.2355
 4644TIP3   OH235346   4.058   3.640  12.653  0.3496  0.5024 -0.0645
 4644TIP3    H135347   4.146   3.664  12.680 -1.1554  2.2983  4.0148
 4644TIP3    H235348   4.019   3.721  12.621  0.0666 -0.2684 -1.8081
 4645TIP3   OH235349   5.053   1.416   0.473 -0.0399  0.2566 -0.2018
 4645TIP3    H135350   5.099   1.333   0.487 -0.1640  0.1283 -0.5417
 4645TIP3    H235351   5.049   1.456   0.560 -1.0884 -0.6779  0.2198
 4646TIP3   OH235352   2.832   5.530  14.032 -0.4926  0.3513 -0.6109
 4646TIP3    H135353   2.775   5.602  14.007 -0.2306  0.2789 -1.4288
 4646TIP3    H235354   2.825   5.526  14.128  1.2874  2.9536 -0.2932
 4647TIP3   OH235355   6.070   3.768   3.145  0.1601  0.4345 -0.3559
 4647TIP3    H135356   6.078   3.800   3.056  0.3389 -1.5432 -1.1041
 4647TIP3    H235357   6.119   3.686   3.146  0.7765  0.7516  1.7612
 4648TIP3   OH235358   4.324   3.254  12.684  0.2825 -0.3028 -0.7079
 4648TIP3    H135359   4.344   3.168  12.720 -0.2529 -0.2381 -0.2436
 4648TIP3    H235360   4.246   3.283  12.731  0.1449  0.2095 -1.2290
 4649TIP3   OH235361   4.394   2.779   2.609  0.3610 -0.1916  0.1563
 4649TIP3    H135362   4.315   2.788   2.662 -0.7847 -0.7957 -1.3855
 4649TIP3    H235363   4.410   2.866   2.573  0.9001  0.1210  1.1047
 4650TIP3   OH235364   3.293   6.450   5.878  0.4218  0.2597  0.5743
 4650TIP3    H135365   3.307   6.421   5.788 -0.3548  0.1159  0.4921
 4650TIP3    H235366   3.226   6.519   5.871  2.4617  2.3961  0.7171
 4651TIP3   OH235367   2.547   0.785   2.204  0.2730  0.2670 -0.0480
 4651TIP3    H135368   2.607   0.856   2.227  0.6180 -0.7444  2.4636
 4651TIP3    H235369   2.553   0.724   2.277 -2.6966 -0.6360 -0.4435
 4652TIP3   OH235370   5.811   3.785   4.383  0.3958 -0.0490 -0.8238
 4652TIP3    H135371   5.906   3.795   4.382  0.2875  1.1138 -1.8798
 4652TIP3    H235372   5.791   3.749   4.469  1.9522 -2.0483 -1.2256
 4653TIP3   OH235373   1.621   1.243  11.265  0.2138 -0.4660 -0.0352
 4653TIP3    H135374   1.621   1.327  11.311 -1.0035 -1.3412  1.6796
 4653TIP3    H235375   1.638   1.265  11.174  1.3477  1.4911  0.5886
 4654TIP3   OH235376   4.709   3.363  13.496 -0.0069  0.3424  0.6159
 4654TIP3    H135377   4.706   3.343  13.402 -1.9893 -1.6257  1.0194
 4654TIP3    H235378   4.802   3.362  13.517  0.3922 -1.2351 -0.9478
 4655TIP3   OH235379   1.418   0.472   6.229  0.0682 -0.0016 -0.0628
 4655TIP3    H135380   1.383   0.482   6.318 -0.6576  0.8295 -0.4233
 4655TIP3    H235381   1.486   0.539   6.223 -0.0239  0.0795 -0.1997
 4656TIP3   OH235382   1.028   4.322   1.494  0.4881 -0.0673  0.1608
 4656TIP3    H135383   0.976   4.390   1.452  0.3786 -0.0554  0.3138
 4656TIP3    H235384   1.048   4.357   1.581  0.8707 -0.0126  0.0545
 4657TIP3   OH235385   1.366   5.788  12.848 -0.4380 -0.7421 -0.2165
 4657TIP3    H135386   1.303   5.722  12.821  1.0073 -3.2281  2.0039
 4657TIP3    H235387   1.361   5.787  12.944  0.9957  1.0372 -0.0752
 4658TIP3   OH235388   0.874   3.609   1.210  0.0286 -0.4787  0.3853
 4658TIP3    H135389   0.938   3.538   1.200 -0.8669 -0.9895 -3.3353
 4658TIP3    H235390   0.920   3.687   1.179 -0.7821 -0.6898 -1.4801
 4659TIP3   OH235391   1.203   4.790  14.178 -0.2223  0.3366 -0.2818
 4659TIP3    H135392   1.120   4.762  14.140 -0.0795  0.8312 -0.9887
 4659TIP3    H235393   1.183   4.808  14.270 -0.6380 -0.6247 -0.1754
 4660TIP3   OH235394   6.498   6.191   6.827  0.3056  0.4496 -0.1673
 4660TIP3    H135395   6.484   6.100   6.801  1.2578 -0.0547  0.9911
 4660TIP3    H235396   6.582   6.214   6.786 -0.6827  1.3743 -1.8052
 4661TIP3   OH235397   3.329   0.476   3.610 -0.3304 -0.1920  0.9129
 4661TIP3    H135398   3.372   0.393   3.587  0.6074  0.0027  1.8833
 4661TIP3    H235399   3.260   0.486   3.544 -0.0577 -1.4280  0.4030
 4662TIP3   OH235400   6.019   4.902   3.722  0.2000  0.3030 -0.4967
 4662TIP3    H135401   6.108   4.908   3.756  0.6336 -2.4600 -0.8901
 4662TIP3    H235402   5.977   4.983   3.751  2.4429  1.0911  0.8364
 4663TIP3   OH235403   3.629   5.372   0.706 -0.0262 -0.3276 -0.1390
 4663TIP3    H135404   3.564   5.387   0.774  1.3029  0.3828  1.0287
 4663TIP3    H235405   3.701   5.328   0.750  1.1085  0.6709 -0.9327
 4664TIP3   OH235406   4.799   1.237  16.309 -0.1195  0.2187 -0.0096
 4664TIP3    H135407   4.853   1.191  16.245  1.4452  0.2141  1.2564
 4664TIP3    H235408   4.827   1.328  16.304 -0.8107  0.4348 -0.1323
 4665TIP3   OH235409   2.625   5.012  12.289  0.0866  0.1363 -0.2081
 4665TIP3    H135410   2.620   5.038  12.381  0.7746  1.0065 -0.4063
 4665TIP3    H235411   2.646   4.919  12.292  0.0388  0.1426  0.5094
 4666TIP3   OH235412   0.252   3.392  16.972 -0.0176  0.2287  0.2843
 4666TIP3    H135413   0.269   3.420  16.882  2.1433 -0.5801  0.3767
 4666TIP3    H235414   0.166   3.428  16.993  0.4571  2.4552 -1.2861
 4667TIP3   OH235415   6.026   6.723  14.498 -0.2595 -0.2106 -0.2435
 4667TIP3    H135416   6.118   6.740  14.520 -0.5404  1.8532 -0.4777
 4667TIP3    H235417   6.029   6.649  14.438  1.0404 -1.7030  1.5305
 4668TIP3   OH235418   0.576   0.148  13.876  0.1100  0.0726 -0.0007
 4668TIP3    H135419   0.598   0.167  13.785  2.7553 -1.3620  0.2432
 4668TIP3    H235420   0.613   0.220  13.926 -0.9720  0.6429  0.0050
 4669TIP3   OH235421   1.785   4.743  14.307 -0.0949  0.1417  0.4878
 4669TIP3    H135422   1.727   4.816  14.286 -0.5992  0.1577  1.8430
 4669TIP3    H235423   1.741   4.666  14.270 -0.6251  0.2486  0.8952
 4670TIP3   OH235424   4.072   3.186  12.023 -0.2080 -0.4777 -0.7639
 4670TIP3    H135425   4.000   3.209  12.082  0.3758 -0.7251  0.0603
 4670TIP3    H235426   4.112   3.269  12.000  0.5638 -0.4764  0.4950
 4671TIP3   OH235427   5.190   4.173   2.197 -0.1775 -0.2016  0.9267
 4671TIP3    H135428   5.136   4.248   2.222 -0.4612  0.1945 -0.7133
 4671TIP3    H235429   5.161   4.152   2.108  1.2905 -0.9666  0.5990
 4672TIP3   OH235430   2.663   2.190   4.647 -0.4882  0.2922  0.5362
 4672TIP3    H135431   2.744   2.139   4.656  1.5839  3.0272 -0.8126
 4672TIP3    H235432   2.654   2.204   4.553 -0.5262  2.8493  0.8347
 4673TIP3   OH235433   1.307   4.367  15.949 -0.1861 -0.5995  0.2568
 4673TIP3    H135434   1.225   4.347  15.995  0.2159 -1.8696  0.4700
 4673TIP3    H235435   1.284   4.436  15.888 -1.3074 -0.5971  0.6557
 4674TIP3   OH235436   6.066   6.323   4.890  0.2723  0.0792 -0.1232
 4674TIP3    H135437   6.086   6.397   4.946  3.6120  0.0967 -1.1401
 4674TIP3    H235438   6.016   6.360   4.817 -1.9349  0.4597  1.4776
 4675TIP3   OH235439   4.848   6.509   2.876  0.3229  0.5575 -0.1735
 4675TIP3    H135440   4.873   6.599   2.895  0.5994  0.3531  0.4842
 4675TIP3    H235441   4.887   6.458   2.948 -0.5481  0.0175 -0.0730
 4676TIP3   OH235442   2.319   5.583   3.884 -0.6201  0.2297  0.1816
 4676TIP3    H135443   2.369   5.506   3.857 -1.5139  0.1474 -1.3503
 4676TIP3    H235444   2.305   5.632   3.803  0.3934  2.3232  1.1839
 4677TIP3   OH235445   4.673   6.293  15.324  0.4636 -0.2682 -0.0673
 4677TIP3    H135446   4.668   6.372  15.270  0.9588 -1.1106 -1.4028
 4677TIP3    H235447   4.595   6.242  15.301 -0.8948  0.6459  2.2190
 4678TIP3   OH235448   1.737   1.034   6.569 -0.4313  0.6286 -0.3454
 4678TIP3    H135449   1.817   0.987   6.594 -0.4683 -0.5384 -2.2620
 4678TIP3    H235450   1.768   1.112   6.524 -0.1836 -1.3007 -3.8806
 4679TIP3   OH235451   0.425   3.479  11.815 -0.0299 -0.5077 -0.6503
 4679TIP3    H135452   0.462   3.541  11.877  0.2633 -0.7911 -0.5368
 4679TIP3    H235453   0.498   3.455  11.758  0.0988 -1.4520 -0.1145
 4680TIP3   OH235454   3.820   4.229  12.350 -0.0329 -0.7584 -0.2580
 4680TIP3    H135455   3.745   4.214  12.293 -0.7519 -2.1975  0.9869
 4680TIP3    H235456   3.845   4.319  12.333 -0.9388 -0.7846 -1.9783
 4681TIP3   OH235457   2.291   0.717  15.282  0.4002 -0.2862  0.1291
 4681TIP3    H135458   2.250   0.749  15.363 -0.5660 -2.4247  0.5410
 4681TIP3    H235459   2.381   0.748  15.288 -0.0545  0.9591  1.2451
 4682TIP3   OH235460   5.317   1.254  16.838 -0.2294  0.4860 -0.1035
 4682TIP3    H135461   5.282   1.339  16.812  0.8746  0.9312 -0.2087
 4682TIP3    H235462   5.397   1.244  16.786  0.4657  0.0802  1.0133
 4683TIP3   OH235463   5.953   2.401  15.488  0.5410 -0.3889  0.1534
 4683TIP3    H135464   6.013   2.337  15.525  1.5910 -0.7329 -1.9448
 4683TIP3    H235465   6.011   2.466  15.446 -0.4774  1.9686  2.1711
 4684TIP3   OH235466   5.839   4.427   0.579  0.0292  0.0214 -0.0428
 4684TIP3    H135467   5.916   4.432   0.636  0.8565  0.8654 -1.2038
 4684TIP3    H235468   5.790   4.352   0.613  1.4568 -0.6652  0.5945
 4685TIP3   OH235469   4.617   5.423  11.579 -0.4098 -0.3587 -0.4938
 4685TIP3    H135470   4.587   5.386  11.496 -2.7099 -0.7422  0.4564
 4685TIP3    H235471   4.621   5.517  11.563 -1.7261 -0.3376 -0.8054
 4686TIP3   OH235472   4.070   5.621  12.021  0.1907 -0.1545 -0.0686
 4686TIP3    H135473   4.087   5.715  12.026  0.7370 -0.3002  1.2167
 4686TIP3    H235474   4.018   5.610  11.941 -1.3011  1.4440  0.6118
 4687TIP3   OH235475   5.113   6.645   4.779 -0.6062  0.5565  0.3758
 4687TIP3    H135476   5.093   6.553   4.797  0.6650 -0.2279 -1.8521
 4687TIP3    H235477   5.037   6.693   4.812 -2.5013 -1.5477 -0.6712
 4688TIP3   OH235478   3.566   2.632   0.138 -0.5242  0.3598  0.0733
 4688TIP3    H135479   3.577   2.655   0.046  0.1561  2.5954  0.6581
 4688TIP3    H235480   3.487   2.677   0.165  0.9800  2.3890  1.3293
 4689TIP3   OH235481   3.296   4.914   3.869 -0.2726 -0.2884  0.0891
 4689TIP3    H135482   3.242   4.853   3.920  1.9016 -1.7475  0.8043
 4689TIP3    H235483   3.337   4.859   3.802  2.7386  0.0044  1.5399
 4690TIP3   OH235484   5.598   6.140  11.248  0.1961 -0.3647 -0.3098
 4690TIP3    H135485   5.599   6.122  11.154 -1.7481  1.7148 -0.7989
 4690TIP3    H235486   5.585   6.054  11.288 -0.2378 -1.1308 -1.9914
 4691TIP3   OH235487   5.728   3.502  13.117  0.1852 -0.2541 -0.3260
 4691TIP3    H135488   5.640   3.487  13.083  1.3804 -2.8300 -2.6933
 4691TIP3    H235489   5.755   3.418  13.153  2.1467  0.0714 -0.9117
 4692TIP3   OH235490   5.131   4.767  15.367  0.0097  0.5095  0.5192
 4692TIP3    H135491   5.036   4.757  15.358 -0.0338  0.6930  0.7688
 4692TIP3    H235492   5.168   4.702  15.307 -0.2661 -0.7417  1.6585
 4693TIP3   OH235493   2.146   3.539  12.561  0.3983  0.1908  0.0036
 4693TIP3    H135494   2.195   3.605  12.611  0.9117 -0.5750  0.5316
 4693TIP3    H235495   2.083   3.504  12.623  0.6245 -0.3307 -0.0540
 4694TIP3   OH235496   3.482   2.977  16.676  0.4165 -0.5406  0.1432
 4694TIP3    H135497   3.413   3.029  16.717  1.6936  0.4423  1.1404
 4694TIP3    H235498   3.499   2.906  16.738 -0.4080 -1.4121 -0.6002
 4695TIP3   OH235499   2.836   1.202  12.561  0.4775  0.4747 -0.5775
 4695TIP3    H135500   2.785   1.121  12.565 -0.3125  0.9337 -1.0908
 4695TIP3    H235501   2.905   1.190  12.626 -2.3030  1.1888  2.8283
 4696TIP3   OH235502   3.067   6.490  13.340 -0.1884 -0.0846  0.4707
 4696TIP3    H135503   2.980   6.531  13.341 -0.8933 -1.2634 -2.2155
 4696TIP3    H235504   3.051   6.399  13.367  0.0448 -0.4876 -0.6769
 4697TIP3   OH235505   3.024   4.686  15.212 -0.7078  0.4149 -0.3023
 4697TIP3    H135506   2.977   4.608  15.241  1.9311 -0.8868  0.7159
 4697TIP3    H235507   3.005   4.691  15.118 -1.5559 -0.9820 -0.2368
 4698TIP3   OH235508   0.255   6.014  10.823  0.0956 -0.2320 -0.3061
 4698TIP3    H135509   0.174   5.992  10.867  0.0642 -2.1375 -1.2191
 4698TIP3    H235510   0.309   5.935  10.831  0.5341 -0.2329 -2.5721
 4699TIP3   OH235511   4.357   0.120   1.684  0.1606  0.2961 -0.3957
 4699TIP3    H135512   4.304   0.040   1.687 -0.5100  0.7103 -1.0784
 4699TIP3    H235513   4.445   0.091   1.710  0.6417 -1.2705 -3.3071
 4700TIP3   OH235514   1.859   4.955   0.724 -0.2901 -0.2640 -0.4060
 4700TIP3    H135515   1.858   4.976   0.631 -0.8216  1.6304 -0.0221
 4700TIP3    H235516   1.952   4.949   0.747 -0.1524 -0.3945 -0.9822
 4701TIP3   OH235517   2.375   6.752  16.483 -0.1985  0.0606 -0.4624
 4701TIP3    H135518   2.436   6.824  16.469  1.1371 -0.9113  0.0898
 4701TIP3    H235519   2.297   6.776  16.433  0.9543  0.9487 -1.9271
 4702TIP3   OH235520   5.869   5.853   2.611  0.2446  0.0838  0.0403
 4702TIP3    H135521   5.916   5.893   2.537 -0.4369  0.6812 -0.0901
 4702TIP3    H235522   5.910   5.768   2.623  0.2814 -0.0820 -1.1236
 4703TIP3   OH235523   6.646   5.252  12.636  0.1276 -0.1941 -0.2761
 4703TIP3    H135524   6.739   5.255  12.658  0.0962  1.8684 -0.2396
 4703TIP3    H235525   6.631   5.330  12.583 -1.9072  0.3640  1.0094
 4704TIP3   OH235526   1.276   2.245  14.590 -0.1530  0.5967 -0.1105
 4704TIP3    H135527   1.293   2.321  14.646  2.1736  0.6893 -0.8301
 4704TIP3    H235528   1.186   2.257  14.561 -0.3195  2.3221  0.9288
 4705TIP3   OH235529   0.772   6.360   2.752 -0.6249 -0.1236 -0.0903
 4705TIP3    H135530   0.685   6.399   2.749 -1.2465 -1.4767 -0.3293
 4705TIP3    H235531   0.768   6.287   2.689  0.9779  0.3857 -0.8415
 4706TIP3   OH235532   5.894   1.865   3.672  0.3294 -0.6059  0.2756
 4706TIP3    H135533   5.852   1.928   3.613 -2.1803 -2.7956 -0.4540
 4706TIP3    H235534   5.868   1.894   3.760  0.6630  0.3344  0.0800
 4707TIP3   OH235535   5.540   1.690   6.407  0.2728 -0.4689  0.0502
 4707TIP3    H135536   5.504   1.602   6.405 -0.3266 -0.2582  1.1681
 4707TIP3    H235537   5.634   1.678   6.422 -0.0764 -0.8877  2.1935
 4708TIP3   OH235538   4.507   6.059   6.593  0.4016  0.3176 -0.8268
 4708TIP3    H135539   4.442   6.010   6.642  0.3176  0.9722 -0.2744
 4708TIP3    H235540   4.458   6.101   6.522 -0.0190  1.7856  0.2855
 4709TIP3   OH235541   5.751   3.256  16.555 -0.1120  0.4760 -0.1993
 4709TIP3    H135542   5.775   3.273  16.646  1.0090 -0.0810 -0.3818
 4709TIP3    H235543   5.796   3.324  16.505  1.2949 -0.6808 -0.5599
 4710TIP3   OH235544   5.805   5.714  14.743  0.1344  0.1283  0.4895
 4710TIP3    H135545   5.850   5.763  14.674  0.1798  0.5779  0.8370
 4710TIP3    H235546   5.777   5.780  14.805  1.4773 -0.3965  1.7105
 4711TIP3   OH235547   4.748   3.878   6.344  0.3905  0.5161 -0.2248
 4711TIP3    H135548   4.676   3.920   6.391  0.2148  1.2756 -1.1404
 4711TIP3    H235549   4.789   3.949   6.294  0.7272 -0.2091 -1.0119
 4712TIP3   OH235550   4.507   3.011   2.487 -0.3367  0.4709  0.5682
 4712TIP3    H135551   4.552   3.028   2.569  0.3496  2.5693 -0.1734
 4712TIP3    H235552   4.459   3.092   2.469  1.1363  0.8860 -2.0558
 4713TIP3   OH235553   0.888   1.765  16.673 -0.1732 -0.0364  0.3782
 4713TIP3    H135554   0.963   1.811  16.635 -0.7824  0.0709 -0.7465
 4713TIP3    H235555   0.883   1.797  16.763  0.7830  0.3790  0.2921
 4714TIP3   OH235556   2.896   1.148   6.028  0.5039 -0.7898 -0.5127
 4714TIP3    H135557   2.948   1.108   5.958  1.9767  0.5371 -0.2117
 4714TIP3    H235558   2.926   1.104   6.108  2.6778  1.2991 -0.0788
 4715TIP3   OH235559   0.469   3.371  14.820 -0.2208  0.5437 -0.4931
 4715TIP3    H135560   0.445   3.312  14.891 -0.6769 -0.2906 -1.3318
 4715TIP3    H235561   0.475   3.457  14.862  1.4029 -0.1978  0.9506
 4716TIP3   OH235562   0.097   3.599  12.698 -0.0753  0.5538 -0.3669
 4716TIP3    H135563   0.125   3.678  12.744  1.0888 -0.1448  0.1632
 4716TIP3    H235564   0.176   3.547  12.688 -1.0784 -1.4204  1.0362
 4717TIP3   OH235565   0.187   3.996  16.082 -0.1263  0.5372 -0.0606
 4717TIP3    H135566   0.105   4.022  16.124  0.5079  0.2433  1.3995
 4717TIP3    H235567   0.253   4.055  16.117  0.4822  0.0690 -0.3888
 4718TIP3   OH235568   5.071   0.910  16.953  0.3326 -0.0513  0.1443
 4718TIP3    H135569   5.104   0.821  16.960 -1.1587 -0.7292 -0.9294
 4718TIP3    H235570   4.979   0.900  16.929 -0.2302  1.7719  1.2812
 4719TIP3   OH235571   3.967   1.033   2.408  0.4343  0.3668  0.2134
 4719TIP3    H135572   3.981   0.938   2.406  1.4807  0.5159 -1.2541
 4719TIP3    H235573   4.055   1.069   2.423  0.2937  1.1394 -0.7666
 4720TIP3   OH235574   1.321   2.269  16.165  0.2975  0.2910  0.6019
 4720TIP3    H135575   1.304   2.196  16.106 -3.6480  1.0664  0.4934
 4720TIP3    H235576   1.274   2.246  16.246  2.0162  1.1364  1.9066
 4721TIP3   OH235577   4.326   1.456  10.910 -0.6052  0.0566  0.1118
 4721TIP3    H135578   4.374   1.468  10.992 -0.1686 -2.2974  0.2813
 4721TIP3    H235579   4.388   1.411  10.852 -1.3422  0.4916 -1.0481
 4722TIP3   OH235580   4.921   1.859  17.290 -0.2328 -0.0547  0.1988
 4722TIP3    H135581   4.905   1.948  17.322 -4.4772 -0.3493 -0.4172
 4722TIP3    H235582   4.914   1.866  17.195 -1.8498 -1.1287  0.1895
 4723TIP3   OH235583   1.171   5.264  13.727  0.1950  0.4093  0.2530
 4723TIP3    H135584   1.095   5.263  13.785  0.3678 -3.0228  0.6451
 4723TIP3    H235585   1.246   5.256  13.786  0.5696 -0.2218 -0.2951
 4724TIP3   OH235586   5.214   3.470   4.532 -0.3525  0.1353  0.1806
 4724TIP3    H135587   5.243   3.433   4.448  1.4056 -1.5455  1.4436
 4724TIP3    H235588   5.292   3.467   4.588 -2.1311 -1.6423  2.8105
 4725TIP3   OH235589   2.303   5.925   5.740  0.3588 -0.7050 -0.4723
 4725TIP3    H135590   2.288   5.972   5.658  2.6300 -0.1432 -0.6257
 4725TIP3    H235591   2.393   5.947   5.765 -1.0306  1.3556  3.6287
 4726TIP3   OH235592   3.137   3.784  12.007 -0.6296  0.3878  0.3369
 4726TIP3    H135593   3.115   3.814  11.919  1.5955 -0.2303 -0.4887
 4726TIP3    H235594   3.192   3.854  12.043 -0.3924  0.0143  0.7083
 4727TIP3   OH235595   3.755   1.441   4.140 -0.6312 -0.3819 -0.3315
 4727TIP3    H135596   3.817   1.382   4.183  0.5359  0.4530 -0.8151
 4727TIP3    H235597   3.684   1.384   4.112 -0.5779 -1.2158  1.1139
 4728TIP3   OH235598   1.547   2.764   3.003 -0.2990 -0.9061 -0.2413
 4728TIP3    H135599   1.478   2.830   2.994  0.3943  0.2720  2.3794
 4728TIP3    H235600   1.509   2.698   3.061  0.0197 -1.3933 -0.5838
 4729TIP3   OH235601   4.329   2.929   1.324  0.3427 -0.1242  0.0675
 4729TIP3    H135602   4.371   2.899   1.243 -2.2561  0.6394 -1.6892
 4729TIP3    H235603   4.269   2.859   1.348 -3.2342  1.8448 -2.1499
 4730TIP3   OH235604   6.048   3.336  10.339 -0.0003  0.1851  0.1318
 4730TIP3    H135605   6.031   3.259  10.285 -0.2828  0.5959 -0.3887
 4730TIP3    H235606   5.965   3.384  10.338  0.4458  0.9880 -0.3886
 4731TIP3   OH235607   1.546   3.352  16.692 -0.0903 -0.0534  0.3729
 4731TIP3    H135608   1.531   3.414  16.620  1.1143 -0.5352 -0.3184
 4731TIP3    H235609   1.535   3.404  16.772  1.3352  1.1673 -0.1942
 4732TIP3   OH235610   0.061   6.169   2.589  0.1129  0.0675 -0.1510
 4732TIP3    H135611   0.133   6.151   2.529  0.0408 -1.0621  0.0732
 4732TIP3    H235612  -0.011   6.195   2.533 -0.3028 -2.0781 -0.7266
 4733TIP3   OH235613   6.257   2.111   3.741 -0.1204  0.0368  0.0939
 4733TIP3    H135614   6.345   2.087   3.770  1.0429  1.7123 -1.7795
 4733TIP3    H235615   6.259   2.207   3.734 -1.1751 -0.0528 -2.5583
 4734TIP3   OH235616   0.867   3.179   1.644 -0.1755  0.3680 -0.3850
 4734TIP3    H135617   0.834   3.261   1.682 -2.2273 -0.8067  0.5214
 4734TIP3    H235618   0.831   3.110   1.700  2.3611 -1.1815 -0.4567
 4735TIP3   OH235619   4.429   3.902   3.951  0.2691 -0.3489  0.2802
 4735TIP3    H135620   4.479   3.831   3.989  1.8181 -0.1962 -1.3214
 4735TIP3    H235621   4.485   3.936   3.881 -1.7078  0.4247 -1.0283
 4736TIP3   OH235622   2.883   6.358   4.476  0.1892  0.1555  0.3955
 4736TIP3    H135623   2.796   6.395   4.462 -0.1422 -0.9641 -0.6284
 4736TIP3    H235624   2.894   6.294   4.406  1.1217 -1.0052  1.5544
 4737TIP3   OH235625   3.184   6.683  15.376 -0.0975  0.2793 -0.2536
 4737TIP3    H135626   3.222   6.629  15.307 -0.2563  0.3909 -0.4282
 4737TIP3    H235627   3.260   6.717  15.424 -0.0184 -1.8168  1.2178
 4738TIP3   OH235628   5.914   0.477   5.972 -0.5043 -0.6340  0.3777
 4738TIP3    H135629   5.983   0.412   5.988  0.0545 -0.1655 -0.1016
 4738TIP3    H235630   5.927   0.504   5.881  0.3084  1.3326  1.0215
 4739TIP3   OH235631   5.336   3.140  15.286  0.9097 -0.2910  0.1496
 4739TIP3    H135632   5.313   3.072  15.350 -0.0532 -0.7602 -0.6712
 4739TIP3    H235633   5.424   3.166  15.310  0.8902 -1.0713  1.1473
 4740TIP3   OH235634   1.729   6.212  12.877 -0.1415 -0.5223 -0.8391
 4740TIP3    H135635   1.768   6.128  12.850 -1.5763 -1.4207 -0.2630
 4740TIP3    H235636   1.787   6.244  12.946 -0.2733 -1.7362 -0.1246
 4741TIP3   OH235637   0.788   3.851  14.935  0.6154 -0.0865  0.3554
 4741TIP3    H135638   0.824   3.886  14.853 -0.2653 -0.5088 -0.2286
 4741TIP3    H235639   0.752   3.928  14.979 -0.3333 -0.0637 -0.4143
 4742TIP3   OH235640   5.498   3.882  10.496  0.3314  0.1385  0.1656
 4742TIP3    H135641   5.555   3.955  10.520  2.1438 -0.7848 -1.0769
 4742TIP3    H235642   5.442   3.917  10.427 -0.3693  0.9428  1.1144
 4743TIP3   OH235643   6.300   5.870   4.607  0.6754  0.0271 -0.5781
 4743TIP3    H135644   6.326   5.861   4.516  1.9849 -0.5004 -0.1668
 4743TIP3    H235645   6.288   5.965   4.619  2.0571  0.2614 -0.8895
 4744TIP3   OH235646   0.381   1.762  12.510  0.0457 -0.5813  0.5592
 4744TIP3    H135647   0.432   1.683  12.527  0.0742 -0.4757  0.9673
 4744TIP3    H235648   0.447   1.829  12.491  0.2917  0.3046  3.9611
 4745TIP3   OH235649   2.112   3.843  11.813 -0.2026  0.1219  0.0977
 4745TIP3    H135650   2.166   3.880  11.883  2.4060  0.0386 -1.7094
 4745TIP3    H235651   2.043   3.907  11.798  1.7932  2.3444 -0.1877
 4746TIP3   OH235652   2.922   3.018   5.296  0.2946  0.2283  0.7881
 4746TIP3    H135653   3.002   3.068   5.280  1.2528 -0.9396  1.7417
 4746TIP3    H235654   2.935   2.936   5.248 -0.7897  0.4357  0.1090
 4747TIP3   OH235655   5.606   6.727  15.639  0.0726 -0.0287  0.6603
 4747TIP3    H135656   5.558   6.661  15.690  0.7357 -1.3424 -0.3592
 4747TIP3    H235657   5.608   6.804  15.696 -0.3685 -1.0061  2.0607
 4748TIP3   OH235658   6.610   1.854  16.992 -0.6299 -0.1377  0.0659
 4748TIP3    H135659   6.560   1.935  17.000 -0.2668  0.1919 -0.9121
 4748TIP3    H235660   6.657   1.862  16.909 -1.7146 -1.9610 -0.7993
 4749TIP3   OH235661   5.950   3.270   4.069 -0.1080 -0.4583  0.3863
 4749TIP3    H135662   6.017   3.206   4.093 -0.2210 -0.8081 -0.2169
 4749TIP3    H235663   5.939   3.260   3.974 -0.6207 -0.0221  0.3912
 4750TIP3   OH235664   6.706   0.033  13.874 -0.2889 -0.0669  0.3075
 4750TIP3    H135665   6.763  -0.043  13.885 -0.8487 -0.5808 -0.2635
 4750TIP3    H235666   6.758   0.096  13.824 -0.1270 -0.4177  0.0347
 4751TIP3   OH235667   4.969   2.773  17.114  0.0829  0.0818 -0.1285
 4751TIP3    H135668   5.017   2.740  17.190  1.5816 -0.3256 -1.2148
 4751TIP3    H235669   4.965   2.698  17.054 -0.7842  0.4995 -0.6176
 4752TIP3   OH235670   1.057   0.658  16.896  0.2915  0.3076  0.2853
 4752TIP3    H135671   1.030   0.648  16.987 -0.9477  2.2509  0.1964
 4752TIP3    H235672   1.039   0.750  16.876 -0.1657 -0.2391 -2.1403
 4753TIP3   OH235673   5.029   2.365  12.131  0.5080 -0.2943  0.1511
 4753TIP3    H135674   4.954   2.320  12.092 -0.1609 -0.0065  1.0701
 4753TIP3    H235675   5.001   2.456  12.139  0.5583 -0.3664  1.4097
 4754TIP3   OH235676   6.541   3.877  11.825  0.1396  0.6016 -0.5881
 4754TIP3    H135677   6.536   3.920  11.910 -0.5945 -0.1501 -0.2309
 4754TIP3    H235678   6.472   3.918  11.773 -0.5342 -0.0852 -0.2604
 4755TIP3   OH235679   6.769   4.226  13.799 -0.1332  0.2207  0.0759
 4755TIP3    H135680   6.794   4.311  13.765 -0.0321 -0.3405 -1.3361
 4755TIP3    H235681   6.718   4.245  13.878  0.2292  1.5558  0.0021
 4756TIP3   OH235682   1.290   1.188  16.699  0.3443 -0.0877  0.0555
 4756TIP3    H135683   1.333   1.273  16.692 -0.9934  0.6455  0.4308
 4756TIP3    H235684   1.247   1.190  16.784 -2.5232  0.2612 -1.2909
 4757TIP3   OH235685   6.385   3.664  14.754  0.1135  0.0261 -0.1992
 4757TIP3    H135686   6.333   3.719  14.813 -2.1634 -0.7889 -1.3162
 4757TIP3    H235687   6.336   3.664  14.672  1.7903 -1.0147 -1.2581
 4758TIP3   OH235688   4.766   1.833  10.826  0.4908 -0.3492 -0.1069
 4758TIP3    H135689   4.704   1.878  10.882  0.5180 -1.0612  0.5094
 4758TIP3    H235690   4.714   1.766  10.781  0.8328 -1.0950  0.5785
 4759TIP3   OH235691   2.897   4.186   4.651  0.2600  0.1823  0.0482
 4759TIP3    H135692   2.880   4.280   4.655 -0.1281  0.1743 -1.0076
 4759TIP3    H235693   2.966   4.171   4.715 -2.3681  0.5123  3.2499
 4760TIP3   OH235694   5.910   5.617  13.356 -0.3475 -0.0133 -0.3263
 4760TIP3    H135695   5.982   5.639  13.298  0.0346  1.2390  0.5750
 4760TIP3    H235696   5.878   5.702  13.388 -0.5276 -0.6419  1.2772
 4761TIP3   OH235697   5.675   0.537   5.817  0.4065  0.6141 -0.2710
 4761TIP3    H135698   5.694   0.507   5.728 -0.2052 -0.0689 -0.1824
 4761TIP3    H235699   5.646   0.458   5.863 -1.7501  1.4000 -0.1641
 4762TIP3   OH235700   4.528   5.497  15.238 -0.2015 -0.3296  0.3654
 4762TIP3    H135701   4.453   5.439  15.248  0.3716 -1.6945 -2.2689
 4762TIP3    H235702   4.505   5.554  15.164  0.9659 -0.1079  0.1498
 4763TIP3   OH235703   0.205   0.103  17.236 -0.0476  0.1837  0.0692
 4763TIP3    H135704   0.120   0.059  17.226 -0.3383  0.9798 -1.1337
 4763TIP3    H235705   0.236   0.115  17.146  1.4570 -0.2973  0.5036
 4764TIP3   OH235706   2.444   2.783   3.981 -0.1955 -0.1797 -0.3223
 4764TIP3    H135707   2.386   2.716   4.017 -0.3328 -0.9645 -1.9121
 4764TIP3    H235708   2.523   2.735   3.956  1.6298  0.9845  2.5761
 4765TIP3   OH235709   4.951   4.182  12.567 -0.2639 -0.0685  0.2580
 4765TIP3    H135710   5.033   4.195  12.518 -0.3952 -0.5227 -0.0900
 4765TIP3    H235711   4.882   4.211  12.507 -0.2577  2.5938  1.3910
 4766TIP3   OH235712   3.804   2.227   3.275 -0.4422 -0.2210 -0.4651
 4766TIP3    H135713   3.891   2.228   3.237  0.1695  0.6318  0.8538
 4766TIP3    H235714   3.799   2.145   3.324  0.1418  0.3237  0.5372
 4767TIP3   OH235715   2.350   6.440  13.238  0.2053 -0.2781  0.1742
 4767TIP3    H135716   2.334   6.350  13.207 -0.5463  0.1977 -0.8968
 4767TIP3    H235717   2.372   6.430  13.330 -2.6687 -1.3741  0.8636
 4768TIP3   OH235718   2.021   4.175  16.038 -0.0745  0.0833  0.3074
 4768TIP3    H135719   2.036   4.081  16.047 -0.8391 -0.0438  0.2458
 4768TIP3    H235720   1.941   4.192  16.088 -0.8137  0.4368 -0.9633
 4769TIP3   OH235721   1.425   6.353   4.167 -0.4869  1.0509  0.1403
 4769TIP3    H135722   1.406   6.265   4.200 -0.2251  1.2535  0.8450
 4769TIP3    H235723   1.371   6.361   4.089  0.6049 -0.3006 -0.8101
 4770TIP3   OH235724   0.648   3.874   3.971 -0.6416 -0.5839 -0.7973
 4770TIP3    H135725   0.647   3.796   3.914  0.7937  0.4239 -2.2733
 4770TIP3    H235726   0.730   3.868   4.019 -1.0143 -0.5003 -0.1420
 4771TIP3   OH235727   5.742   3.230  11.055 -0.6446 -0.1890  0.5264
 4771TIP3    H135728   5.822   3.278  11.033 -1.7531  1.3991 -0.3471
 4771TIP3    H235729   5.771   3.144  11.082  1.2614 -0.3127 -1.6303
 4772TIP3   OH235730   0.301   3.389   4.652  0.0459 -0.3418  0.5375
 4772TIP3    H135731   0.365   3.423   4.589  0.7142 -1.1241  0.7697
 4772TIP3    H235732   0.333   3.301   4.672 -0.9121 -0.6012  0.9464
 4773TIP3   OH235733   3.785   5.913   1.838  0.1778  0.1853 -0.2543
 4773TIP3    H135734   3.824   5.901   1.925 -1.1330 -1.6060  0.1496
 4773TIP3    H235735   3.842   5.977   1.795  1.8815 -0.1897  1.2933
 4774TIP3   OH235736   4.521   5.136  15.335  0.5842  0.2834  0.5312
 4774TIP3    H135737   4.543   5.047  15.306  0.1567  0.7327 -1.2677
 4774TIP3    H235738   4.458   5.122  15.406 -1.5416 -0.8749 -1.4498
 4775TIP3   OH235739   4.002   4.176  14.796  0.1855  0.2320  0.4133
 4775TIP3    H135740   4.045   4.232  14.860 -2.1935  3.2884 -0.4561
 4775TIP3    H235741   3.936   4.231  14.755 -2.4346 -3.2133 -0.5414
 4776TIP3   OH235742   3.596   0.535  11.031 -0.2442  0.1023 -0.1076
 4776TIP3    H135743   3.661   0.464  11.027  2.2285  2.2082 -0.0116
 4776TIP3    H235744   3.563   0.543  10.942  2.7320  1.5874 -1.1970
 4777TIP3   OH235745   3.173   6.269   1.173  0.3755 -0.4076 -0.3002
 4777TIP3    H135746   3.203   6.274   1.083  1.1472  1.9354  0.0213
 4777TIP3    H235747   3.078   6.259   1.167  0.3901  0.0201 -1.3876
 4778TIP3   OH235748   0.484   2.401  11.476  0.0809 -0.3710 -0.2539
 4778TIP3    H135749   0.481   2.440  11.388  0.4770 -1.4364 -0.7575
 4778TIP3    H235750   0.554   2.335  11.471  0.9587  0.3945  1.2225
 4779TIP3   OH235751   4.319   4.232   1.975  0.0053  0.5931  0.1932
 4779TIP3    H135752   4.297   4.167   1.908  0.4257  0.9573 -0.3044
 4779TIP3    H235753   4.411   4.251   1.960  0.1808  0.4845  1.0509
 4780TIP3   OH235754   3.743   6.014   0.403  0.3776 -1.0298 -0.4008
 4780TIP3    H135755   3.771   5.995   0.314  4.7235 -1.4748  0.8347
 4780TIP3    H235756   3.806   5.969   0.458  0.0010  2.0255  2.8887
 4781TIP3   OH235757   0.429   1.048   1.392 -0.4587  0.5062 -0.3543
 4781TIP3    H135758   0.494   1.011   1.451 -0.8675 -2.0695 -1.3454
 4781TIP3    H235759   0.480   1.079   1.317 -0.1985  0.6838 -0.1059
 4782TIP3   OH235760   2.210   1.285  13.355  0.0578 -0.0283 -0.3780
 4782TIP3    H135761   2.131   1.246  13.319  1.3122 -2.7149 -0.4175
 4782TIP3    H235762   2.224   1.241  13.438  0.1989  2.2175  0.8829
 4783TIP3   OH235763   2.463   4.261  14.932 -0.0986 -0.3351  0.0245
 4783TIP3    H135764   2.407   4.199  14.979  2.9671 -1.7554  2.1393
 4783TIP3    H235765   2.500   4.317  15.001  2.0315 -0.3044 -1.0806
 4784TIP3   OH235766   6.157   0.836  13.236  0.2903  0.1292 -0.1655
 4784TIP3    H135767   6.083   0.843  13.176  0.1429  0.0035  0.0033
 4784TIP3    H235768   6.153   0.916  13.288  0.0401 -0.0603  0.1103
 4785TIP3   OH235769   2.097   4.489  14.056 -0.8322 -0.3080 -0.0291
 4785TIP3    H135770   2.148   4.564  14.025 -0.2219 -0.9036 -0.4932
 4785TIP3    H235771   2.055   4.520  14.136  2.0950 -0.4723  1.7247
 4786TIP3   OH235772   3.146   5.672   6.418  0.3127  0.0005  0.0613
 4786TIP3    H135773   3.074   5.623   6.458 -2.2304 -0.1488 -4.0533
 4786TIP3    H235774   3.189   5.609   6.360  0.1173  1.3765 -1.6668
 4787TIP3   OH235775   4.490   4.984  12.742 -0.0557  0.0653  0.2003
 4787TIP3    H135776   4.451   4.988  12.655 -0.4356  1.0731  0.4120
 4787TIP3    H235777   4.584   4.984  12.726 -0.1245  0.1915 -0.2161
 4788TIP3   OH235778   0.604   5.367  10.633 -0.0581  0.3274  0.0144
 4788TIP3    H135779   0.602   5.459  10.661  4.1238 -0.3230  3.4445
 4788TIP3    H235780   0.677   5.362  10.572  0.2099 -0.7901  0.4018
 4789TIP3   OH235781   3.125   3.809  12.476 -0.2334  0.3626  0.0017
 4789TIP3    H135782   3.134   3.722  12.516  0.6865  0.7397  0.6400
 4789TIP3    H235783   3.201   3.816  12.418  0.7249  1.4447  1.3340
 4790TIP3   OH235784   4.327   4.925  16.608  0.5425  0.2726 -0.4670
 4790TIP3    H135785   4.397   4.956  16.550  0.0523 -0.6281 -1.5829
 4790TIP3    H235786   4.271   4.872  16.551  1.3610 -2.6960  1.3182
 4791TIP3   OH235787   1.040   3.909   3.849 -0.6330 -0.2800 -0.3713
 4791TIP3    H135788   0.948   3.907   3.824 -0.5716  0.9431 -0.7333
 4791TIP3    H235789   1.057   4.000   3.871  0.5685 -0.4313 -0.6057
 4792TIP3   OH235790   2.339   2.549   4.072  0.4797  0.1678 -0.2171
 4792TIP3    H135791   2.249   2.544   4.041  0.6921  2.2357 -1.3139
 4792TIP3    H235792   2.333   2.527   4.165 -1.0647 -0.2962 -0.3998
 4793TIP3   OH235793   4.987   4.734  16.073 -0.2858  0.8094 -0.1731
 4793TIP3    H135794   5.013   4.825  16.086 -0.5359  0.6449  1.7984
 4793TIP3    H235795   5.070   4.687  16.063 -0.1548  1.2425 -1.1648
 4794TIP3   OH235796   5.863   2.392   0.487 -0.2538  0.3362  0.2935
 4794TIP3    H135797   5.828   2.411   0.400  0.2804  0.1808  0.0384
 4794TIP3    H235798   5.956   2.372   0.471  0.1971  1.7079  1.0592
 4795TIP3   OH235799   1.606   3.389   1.600 -0.6372 -0.1111  0.2434
 4795TIP3    H135800   1.582   3.481   1.601 -0.8531 -0.1285 -1.2223
 4795TIP3    H235801   1.655   3.376   1.681 -1.0341  1.1682  0.7036
 4796TIP3   OH235802   2.363   0.293  11.797 -0.6217 -0.1030  0.3498
 4796TIP3    H135803   2.414   0.374  11.799 -1.5298  0.6295 -2.4147
 4796TIP3    H235804   2.392   0.247  11.718 -1.8125 -1.3311  0.5718
 4797TIP3   OH235805   2.556   2.669   2.238 -0.2532  0.5214  0.0516
 4797TIP3    H135806   2.581   2.584   2.202  1.4953  0.5700  1.0318
 4797TIP3    H235807   2.634   2.699   2.286 -1.1057  2.2999  0.4229
 4798TIP3   OH235808   0.852   0.006  14.857  0.3015  0.9478 -0.3879
 4798TIP3    H135809   0.878  -0.029  14.943 -2.3547  0.8432  0.4730
 4798TIP3    H235810   0.869  -0.066  14.796 -0.8556 -0.2666  0.6411
 4799TIP3   OH235811   3.351   6.594  15.186  0.0164 -0.2665  0.3772
 4799TIP3    H135812   3.336   6.523  15.123 -0.8594  0.6425 -0.4789
 4799TIP3    H235813   3.439   6.626  15.166 -0.2803  0.0587 -0.4623
 4800TIP3   OH235814   1.789   1.827  14.417  0.6514 -0.0387 -0.0748
 4800TIP3    H135815   1.865   1.780  14.383  1.0472 -0.3834  1.2530
 4800TIP3    H235816   1.816   1.859  14.503 -0.0128  1.6426 -0.4593
 4801TIP3   OH235817   4.961   2.950   1.334 -0.4115 -0.3069 -0.2066
 4801TIP3    H135818   5.051   2.981   1.335  0.0193 -1.4430  2.0911
 4801TIP3    H235819   4.915   3.009   1.393 -1.4857  0.9021 -2.1316
 4802TIP3   OH235820   0.286   5.003  15.390 -0.4637 -0.7505 -0.2709
 4802TIP3    H135821   0.334   5.066  15.337  1.8175 -1.3547  0.9655
 4802TIP3    H235822   0.345   4.928  15.398 -2.4341 -2.4200 -0.3502
 4803TIP3   OH235823   0.085   0.834  13.025  0.3637  0.2493  0.1383
 4803TIP3    H135824   0.167   0.879  13.002  0.8230 -0.0333  1.1485
 4803TIP3    H235825   0.089   0.752  12.976 -0.3929  1.1814 -1.5726
 4804TIP3   OH235826   4.625   6.732  16.233  0.8122 -0.7028 -0.4382
 4804TIP3    H135827   4.711   6.695  16.256  1.1021  0.7880  0.9965
 4804TIP3    H235828   4.644   6.820  16.203 -0.2197 -0.3790 -0.1745
 4805TIP3   OH235829   5.368   0.951  12.447  0.0911  0.0261 -0.4402
 4805TIP3    H135830   5.408   0.934  12.361  1.3231 -0.6205  0.2395
 4805TIP3    H235831   5.421   0.901  12.509 -1.5157 -0.5172  0.5704
 4806TIP3   OH235832   0.585   4.461  13.147  0.5513 -0.4546 -0.5909
 4806TIP3    H135833   0.625   4.415  13.220  0.8305  0.7346  0.0268
 4806TIP3    H235834   0.647   4.530  13.125 -0.7826  0.9605 -0.0972
 4807TIP3   OH235835   0.109   3.249  15.669 -0.1806  0.0716  0.4157
 4807TIP3    H135836   0.178   3.240  15.736 -0.5248 -0.5145  0.7028
 4807TIP3    H235837   0.153   3.225  15.587  0.1111  0.2787  0.5092
 4808TIP3   OH235838   3.552   3.790  15.185  0.0352  0.0040 -0.1267
 4808TIP3    H135839   3.533   3.875  15.225  0.6699  0.4147 -0.6717
 4808TIP3    H235840   3.607   3.811  15.109  1.1606 -0.9815  0.3820
 4809TIP3   OH235841   3.244   3.012  12.364 -0.5754  0.4288  0.0430
 4809TIP3    H135842   3.258   2.918  12.375  0.2803  0.8255  3.3213
 4809TIP3    H235843   3.149   3.022  12.369 -0.6620 -0.2144 -0.1681
 4810TIP3   OH235844   6.654   0.441  13.147 -0.2313 -0.6330  0.2466
 4810TIP3    H135845   6.675   0.393  13.067  0.3878 -0.0906  0.0725
 4810TIP3    H235846   6.736   0.487  13.169 -1.0645  1.0966 -0.1173
 4811TIP3   OH235847   0.541   0.417   6.398  0.3974 -0.1676  0.1021
 4811TIP3    H135848   0.623   0.451   6.435  0.7970  1.8684 -2.3563
 4811TIP3    H235849   0.475   0.436   6.465  1.5432  0.5099  1.0801
 4812TIP3   OH235850   0.863   0.131  13.157  0.1018 -0.1951  0.1817
 4812TIP3    H135851   0.852   0.048  13.111 -2.9244  0.9183 -1.3506
 4812TIP3    H235852   0.919   0.183  13.099 -0.0729 -0.3075 -0.0913
 4813TIP3   OH235853   3.093   6.720   1.483  0.3418 -0.1460  0.1848
 4813TIP3    H135854   3.161   6.720   1.416 -0.9269  0.0936 -1.1773
 4813TIP3    H235855   3.124   6.782   1.549  1.7429 -0.5586 -0.0531
 4814TIP3   OH235856   5.797   3.056   4.570  0.2567  0.2082 -0.2972
 4814TIP3    H135857   5.879   3.090   4.534  0.8620 -0.3396  0.5501
 4814TIP3    H235858   5.824   2.992   4.635 -0.8502 -1.8007 -1.7252
 4815TIP3   OH235859   6.095   0.823  12.403 -0.2407 -0.1701 -0.3475
 4815TIP3    H135860   6.174   0.804  12.354 -0.0065 -0.6183  0.1924
 4815TIP3    H235861   6.027   0.771  12.362 -0.4469  0.8416 -1.3347
 4816TIP3   OH235862   6.303   5.149  13.073 -1.1685 -0.5071  0.7293
 4816TIP3    H135863   6.348   5.233  13.068 -3.5232  0.7332 -2.0343
 4816TIP3    H235864   6.228   5.165  13.130 -2.7412 -0.0629 -1.3639
 4817TIP3   OH235865   5.930   5.671  14.401 -0.4069  0.1877  0.0136
 4817TIP3    H135866   5.941   5.746  14.460 -1.5990 -0.1908  0.7401
 4817TIP3    H235867   5.949   5.595  14.456 -2.1331 -0.2059  0.1031
 4818TIP3   OH235868   3.725   5.308   3.763 -0.0117  0.0627  0.0774
 4818TIP3    H135869   3.647   5.342   3.806  0.4136  0.1930  0.7611
 4818TIP3    H235870   3.736   5.220   3.799 -0.9004 -0.7124 -1.4140
 4819TIP3   OH235871   4.973   3.934  16.022  0.2194  0.3309 -0.3610
 4819TIP3    H135872   4.970   3.929  15.926 -3.1845 -2.6296 -0.3367
 4819TIP3    H235873   4.973   3.842  16.050 -0.1949  1.1124  2.4738
 4820TIP3   OH235874   5.757   3.016   0.408 -0.2082 -0.2580  0.5923
 4820TIP3    H135875   5.801   2.948   0.458  1.1148  2.2205  3.1031
 4820TIP3    H235876   5.696   3.056   0.471 -1.2568  0.5903 -0.9118
 4821TIP3   OH235877   6.650   6.242  11.257 -0.2716  0.3676  0.0848
 4821TIP3    H135878   6.624   6.334  11.259 -3.0694 -0.2992 -0.6525
 4821TIP3    H235879   6.648   6.219  11.164  0.5172 -0.4314  0.2524
 4822TIP3   OH235880   2.325   4.540   2.998 -0.8446  0.3244 -0.3663
 4822TIP3    H135881   2.310   4.447   2.987 -0.4685  0.4022 -1.7124
 4822TIP3    H235882   2.315   4.556   3.092  1.2000 -1.4441  0.2231
 4823TIP3   OH235883   4.218   0.332  15.267  0.3140  0.2008 -0.3521
 4823TIP3    H135884   4.225   0.353  15.174 -1.5962 -1.7626 -1.0205
 4823TIP3    H235885   4.127   0.353  15.289 -0.0251 -1.8458  0.3448
 4824TIP3   OH235886   4.045   3.263   0.300  1.0629  0.4037 -0.2303
 4824TIP3    H135887   4.021   3.351   0.327 -1.3512  0.0950 -1.1236
 4824TIP3    H235888   4.059   3.270   0.205 -0.7943 -0.4456 -0.6017
 4825TIP3   OH235889   5.814   4.195  13.025  0.5182 -0.0181 -0.2167
 4825TIP3    H135890   5.901   4.211  12.988  0.7278  1.5560  0.8603
 4825TIP3    H235891   5.814   4.102  13.048  1.2956 -0.4203 -1.7547
 4826TIP3   OH235892   0.741   1.217   2.816  0.0501 -0.3508  0.6205
 4826TIP3    H135893   0.706   1.306   2.808  0.1904 -0.2472  1.1042
 4826TIP3    H235894   0.834   1.226   2.793 -0.2264 -0.6276 -0.6761
 4827TIP3   OH235895   6.657   6.710   2.420 -0.2662  0.4008  0.0965
 4827TIP3    H135896   6.637   6.803   2.416 -0.1610  0.4719  1.1323
 4827TIP3    H235897   6.744   6.705   2.458 -1.3529 -0.2102  2.7002
 4828TIP3   OH235898   5.112   1.261  12.772  0.2937 -0.4142  1.0735
 4828TIP3    H135899   5.152   1.216  12.698  0.9154 -1.3726  1.9553
 4828TIP3    H235900   5.068   1.191  12.821 -1.0025  0.3635  1.0591
 4829TIP3   OH235901   3.817   2.812   2.705 -0.4146  0.4507  0.8718
 4829TIP3    H135902   3.733   2.768   2.693 -0.8932  1.0116  2.0303
 4829TIP3    H235903   3.826   2.821   2.800  2.0234 -1.6147  0.9174
 4830TIP3   OH235904   0.413   0.905   0.387 -0.0219 -0.3065 -0.0101
 4830TIP3    H135905   0.359   0.911   0.308  1.8403  0.3892 -1.3018
 4830TIP3    H235906   0.375   0.970   0.446  0.2076  1.1704 -1.4168
 4831TIP3   OH235907   0.458   2.486   1.821  0.3194  0.5370 -0.4282
 4831TIP3    H135908   0.418   2.406   1.788  2.3900 -0.6497 -0.2114
 4831TIP3    H235909   0.438   2.552   1.754 -0.4725 -0.4058 -1.1539
 4832TIP3   OH235910   4.861   0.894  12.312 -0.2396  0.2931 -0.4236
 4832TIP3    H135911   4.866   0.964  12.377 -1.1403  0.1682 -0.1984
 4832TIP3    H235912   4.780   0.912  12.264  0.0002 -0.0715 -0.9728
 4833TIP3   OH235913   4.490   1.572  11.092 -0.4278  0.2954 -0.1604
 4833TIP3    H135914   4.537   1.498  11.132 -2.0735 -0.1971  0.9161
 4833TIP3    H235915   4.460   1.624  11.165 -2.4683  0.0201 -0.7533
 4834TIP3   OH235916   2.372   2.960   2.744 -0.6762 -0.3132 -0.3225
 4834TIP3    H135917   2.423   2.901   2.799 -0.1795 -1.5344 -2.0080
 4834TIP3    H235918   2.429   3.036   2.731 -0.6726 -0.1542  0.5543
 4835TIP3   OH235919   6.290   0.766   1.746  0.0745 -0.3847  0.3257
 4835TIP3    H135920   6.361   0.714   1.784  1.3951 -0.4003 -2.0065
 4835TIP3    H235921   6.282   0.842   1.803  1.4463 -0.7624  1.0590
 4836TIP3   OH235922   1.583   3.050  10.642  0.3928 -0.6931 -0.0517
 4836TIP3    H135923   1.491   3.059  10.666  0.1959 -0.0744 -0.9976
 4836TIP3    H235924   1.596   2.955  10.631  0.3054 -0.9449  1.6634
 4837TIP3   OH235925   3.834   3.998  15.985 -0.1669 -0.0206  0.2400
 4837TIP3    H135926   3.792   4.066  15.932 -1.2026 -0.7884  0.0338
 4837TIP3    H235927   3.832   3.919  15.931  2.8434  0.1807 -0.3245
 4838TIP3   OH235928   2.930   4.043   1.613 -0.0245  0.0817 -0.4604
 4838TIP3    H135929   2.966   4.065   1.700  0.7933 -0.4417 -0.6501
 4838TIP3    H235930   3.005   4.052   1.554  0.2074 -2.4619 -0.6579
 4839TIP3   OH235931   4.097   1.946  12.137  0.0450  0.0114  0.1064
 4839TIP3    H135932   4.165   1.878  12.143 -1.1370 -1.1684  0.4820
 4839TIP3    H235933   4.146   2.027  12.125  1.4910 -0.9216 -0.5619
 4840TIP3   OH235934   1.291   4.644   4.710 -0.4722 -0.3084  0.0237
 4840TIP3    H135935   1.288   4.575   4.643 -1.6673 -0.7025  0.4662
 4840TIP3    H235936   1.344   4.606   4.781  0.5239 -0.0115 -0.5323
 4841TIP3   OH235937   0.165   2.711  12.607 -0.0258 -0.2294  0.6440
 4841TIP3    H135938   0.101   2.714  12.678 -1.2481 -1.5089 -0.3434
 4841TIP3    H235939   0.149   2.790  12.556 -1.2064 -0.7875  0.1121
 4842TIP3   OH235940   2.525   1.992   4.468 -0.5774 -0.0853  0.1737
 4842TIP3    H135941   2.618   2.013   4.460 -0.3718 -1.1266 -0.3516
 4842TIP3    H235942   2.508   1.930   4.397 -1.6869  0.1147  0.2372
 4843TIP3   OH235943   3.706   1.189   1.739 -0.3083 -0.1512 -0.1113
 4843TIP3    H135944   3.634   1.128   1.756 -0.6715  0.2054 -0.3697
 4843TIP3    H235945   3.778   1.133   1.708 -0.8392 -0.3786 -0.9561
 4844TIP3   OH235946   6.528   1.331  12.996  1.0046 -0.1252 -0.6574
 4844TIP3    H135947   6.620   1.309  12.980  0.5491 -1.4229 -1.7042
 4844TIP3    H235948   6.485   1.247  13.006  0.2665  0.5042  2.1809
 4845TIP3   OH235949   4.116   5.938   5.353 -0.0780  0.2690  0.4017
 4845TIP3    H135950   4.030   5.972   5.331  0.2946  2.2930  1.7648
 4845TIP3    H235951   4.166   5.944   5.271 -1.1713 -0.8501 -0.3712
 4846TIP3   OH235952   2.014   4.591  13.560 -0.2112  0.2803 -0.0848
 4846TIP3    H135953   2.089   4.585  13.619 -0.9542  2.0755  1.1322
 4846TIP3    H235954   2.043   4.548  13.479  2.5438  1.8158 -0.0319
 4847TIP3   OH235955   0.551   6.253  12.046  0.7786 -0.4700  0.0796
 4847TIP3    H135956   0.551   6.180  11.983 -0.5927 -0.5197  0.1105
 4847TIP3    H235957   0.464   6.250  12.086  0.9464  0.7776  0.5741
 4848TIP3   OH235958   6.310   0.241  11.011 -0.1605 -0.4617  0.2107
 4848TIP3    H135959   6.235   0.218  11.066 -0.2091  1.5888  1.0844
 4848TIP3    H235960   6.319   0.336  11.022  0.5226 -0.1505 -2.4736
 4849TIP3   OH235961   5.794   3.018  14.427 -0.3168  0.2453 -0.7606
 4849TIP3    H135962   5.839   2.943  14.466 -1.3371 -0.4948 -0.9526
 4849TIP3    H235963   5.765   2.986  14.341 -4.7614 -0.7988  0.8435
 4850TIP3   OH235964   0.140   1.695   0.816  0.2171  0.5105  0.0485
 4850TIP3    H135965   0.236   1.698   0.816  0.2198  0.4076 -0.1059
 4850TIP3    H235966   0.117   1.663   0.903  0.3519 -0.4100 -0.2484
 4851TIP3   OH235967   3.397   0.487  17.190 -0.3685  0.4770  0.2770
 4851TIP3    H135968   3.475   0.538  17.212  0.4572 -1.3612  1.9125
 4851TIP3    H235969   3.406   0.469  17.096  0.6292  1.1845  0.2221
 4852TIP3   OH235970   6.773   3.896   0.443  0.0861 -0.0716 -0.3814
 4852TIP3    H135971   6.766   3.897   0.539 -0.4392 -0.8209 -0.4062
 4852TIP3    H235972   6.687   3.925   0.413  0.4894  0.9032 -0.6333
 4853TIP3   OH235973   1.164   0.616  13.126 -0.0731  0.0234  0.4980
 4853TIP3    H135974   1.100   0.680  13.096 -0.5921  0.1726  1.8324
 4853TIP3    H235975   1.138   0.534  13.084 -0.4436  0.3284  0.1279
 4854TIP3   OH235976   1.156   1.104   2.388 -0.5896 -0.0091 -0.2527
 4854TIP3    H135977   1.183   1.172   2.326 -0.4938  2.1636  2.0108
 4854TIP3    H235978   1.061   1.100   2.381 -0.6281  0.6486 -0.1610
 4855TIP3   OH235979   6.390   1.537  14.769  0.3576 -0.1686  0.1196
 4855TIP3    H135980   6.322   1.595  14.735  1.2936  0.9861  0.1346
 4855TIP3    H235981   6.371   1.452  14.731 -1.7274 -0.1450  0.9950
 4856TIP3   OH235982   5.220   0.569  15.524  0.1429 -0.2575 -0.6869
 4856TIP3    H135983   5.284   0.537  15.588 -1.7772 -0.1249  1.4456
 4856TIP3    H235984   5.248   0.659  15.505  0.5579 -0.1664  0.2989
 4857TIP3   OH235985   0.036   6.550  13.124 -0.6899 -0.0042  0.5469
 4857TIP3    H135986   0.066   6.584  13.208 -3.4701 -1.2615  2.2217
 4857TIP3    H235987   0.003   6.626  13.077 -1.7582  0.3734  1.8628
 4858TIP3   OH235988   0.046   1.489  11.968 -0.0288 -0.0469  0.1960
 4858TIP3    H135989   0.021   1.397  11.979  2.2828 -0.9094 -1.0065
 4858TIP3    H235990   0.082   1.493  11.879 -0.8625  2.2398 -0.0977
 4859TIP3   OH235991   3.278   3.592  14.720 -0.5388  0.2076  0.4133
 4859TIP3    H135992   3.266   3.682  14.688  0.5174 -0.3099 -1.5556
 4859TIP3    H235993   3.356   3.561  14.675 -1.0585 -1.8087  0.8317
 4860TIP3   OH235994   1.311   1.380  15.524 -0.5883 -0.2462  0.4343
 4860TIP3    H135995   1.299   1.356  15.616  0.8591 -3.1646 -0.0169
 4860TIP3    H235996   1.406   1.375  15.511 -0.7699  0.1885 -1.1868
 4861TIP3   OH235997   4.067   0.047  11.959  0.0975 -0.2086  0.0513
 4861TIP3    H135998   4.151   0.088  11.978 -0.5528  1.3377 -0.2237
 4861TIP3    H235999   4.039   0.086  11.876 -1.3043  0.0362  0.6032
 4862TIP3   OH236000   1.751   5.689   3.553 -0.3503  0.5312 -0.3984
 4862TIP3    H136001   1.660   5.719   3.555 -1.2240 -1.9275  0.2980
 4862TIP3    H236002   1.746   5.599   3.519  1.7485  0.1360  0.1940
 4863TIP3   OH236003   5.940   3.349   1.528  0.2314  0.4955  0.5394
 4863TIP3    H136004   5.947   3.391   1.614  0.6262 -0.3745  0.9502
 4863TIP3    H236005   6.020   3.375   1.482 -0.6382  2.1143 -0.1146
 4864TIP3   OH236006   5.867   6.621  15.919  0.2253  0.6703  0.1337
 4864TIP3    H136007   5.814   6.605  15.997  0.1363  0.3119 -0.0004
 4864TIP3    H236008   5.955   6.636  15.953  0.8287 -2.3588  0.1683
 4865TIP3   OH236009   1.449   2.746  13.835  0.2391  0.4949 -0.0090
 4865TIP3    H136010   1.438   2.663  13.789  0.1690 -0.0785  1.0211
 4865TIP3    H236011   1.498   2.724  13.913  3.6889  2.0244 -1.5346
 4866TIP3   OH236012   5.269   5.624  15.266 -0.6056 -0.2917  0.5274
 4866TIP3    H136013   5.334   5.626  15.336 -0.2102 -1.7907  0.2468
 4866TIP3    H236014   5.316   5.584  15.192 -1.2886  0.3925 -0.2992
 4867TIP3   OH236015   6.298   5.871  12.195 -0.6567  0.2410 -0.3910
 4867TIP3    H136016   6.254   5.954  12.178  0.1630  0.9531  0.8909
 4867TIP3    H236017   6.264   5.842  12.280  0.3490  0.1358 -0.0112
 4868TIP3   OH236018   5.373   0.749  11.905  0.5456  0.3169 -0.0835
 4868TIP3    H136019   5.322   0.804  11.846  0.9583 -2.1793 -3.0024
 4868TIP3    H236020   5.464   0.762  11.876  0.6691 -1.6264 -0.6702
 4869TIP3   OH236021   3.868   0.003   0.377  0.0141  0.2934 -0.4039
 4869TIP3    H136022   3.822  -0.015   0.294  0.5638 -0.9663 -0.4552
 4869TIP3    H236023   3.798   0.020   0.440 -0.4290  0.7106 -0.9926
 4870TIP3   OH236024   1.956   2.575  10.976 -0.0986  0.3851 -0.4636
 4870TIP3    H136025   2.030   2.579  11.036 -1.2757  1.8629  0.9552
 4870TIP3    H236026   1.991   2.610  10.894  1.1769 -0.4323 -0.3042
 4871TIP3   OH236027   6.724   4.711  14.454  0.1517 -0.2169  0.3139
 4871TIP3    H136028   6.714   4.720  14.549  0.3771 -1.1711  0.4385
 4871TIP3    H236029   6.659   4.771  14.417  0.0126  0.1103  1.0684
 4872TIP3   OH236030   0.583   4.979   4.116  0.0211  0.1965  0.2368
 4872TIP3    H136031   0.674   5.009   4.118  0.9652 -2.4148  0.8126
 4872TIP3    H236032   0.540   5.027   4.186  0.7439  1.9332 -0.4465
 4873TIP3   OH236033   0.518   5.595   4.900  0.2746  0.4096 -0.0547
 4873TIP3    H136034   0.478   5.556   4.977 -2.2760  0.1208 -1.4303
 4873TIP3    H236035   0.612   5.576   4.910  0.0174  0.2496  2.8284
 4874TIP3   OH236036   1.639   0.223   2.513 -0.1243  0.5350 -0.1453
 4874TIP3    H136037   1.561   0.251   2.466  0.5102 -0.0860 -1.6550
 4874TIP3    H236038   1.676   0.153   2.459  1.2488  0.5327  0.7287
 4875TIP3   OH236039   2.475   1.515  14.151 -0.1901  0.0028 -0.1430
 4875TIP3    H136040   2.486   1.609  14.163  0.9578  0.3198 -2.8954
 4875TIP3    H236041   2.380   1.502  14.151 -0.3545  1.0547  0.7347
 4876TIP3   OH236042   1.133   3.926  15.017 -0.2346  0.1149  0.2395
 4876TIP3    H136043   1.084   3.967  14.945  1.3707  2.0093  0.1288
 4876TIP3    H236044   1.066   3.900  15.080 -1.4934  1.0069 -0.6739
 4877TIP3   OH236045   1.255   5.058   1.349 -0.0503 -0.4409 -0.1862
 4877TIP3    H136046   1.210   5.132   1.390 -2.0115 -0.7862 -1.5531
 4877TIP3    H236047   1.316   5.098   1.287  0.7755  0.0294  0.9015
 4878TIP3   OH236048   4.850   3.732   4.018  0.4275 -0.4075 -0.3847
 4878TIP3    H136049   4.907   3.719   4.094  0.5410 -4.1219 -0.8939
 4878TIP3    H236050   4.888   3.807   3.972  2.8722 -0.6562  1.0522
 4879TIP3   OH236051   2.286   0.845   5.286 -0.1986  0.1929 -0.2193
 4879TIP3    H136052   2.241   0.885   5.361  1.7470  0.9137  0.6204
 4879TIP3    H236053   2.221   0.845   5.216 -1.4335  1.3891  0.8719
 4880TIP3   OH236054   4.173   6.204   0.959  0.1663 -0.1093 -0.5230
 4880TIP3    H136055   4.215   6.233   0.878 -0.4037  0.1305 -0.7409
 4880TIP3    H236056   4.096   6.154   0.929  0.3451 -0.6259 -0.1360
 4881TIP3   OH236057   2.695   1.085   3.755 -0.8749 -0.2567  0.4494
 4881TIP3    H136058   2.776   1.053   3.795 -0.4990 -0.4647 -0.4489
 4881TIP3    H236059   2.657   1.143   3.820  1.0452  1.4841  0.1140
 4882TIP3   OH236060   4.386   1.976  15.533  0.1656  0.3284 -0.0739
 4882TIP3    H136061   4.387   1.886  15.500  3.3388 -0.3875  1.6091
 4882TIP3    H236062   4.340   1.971  15.616  1.1236  0.0419  0.4506
 4883TIP3   OH236063   0.390   4.942  12.466  0.5498 -0.3525 -0.0541
 4883TIP3    H136064   0.306   4.987  12.461  0.1970 -0.9321  0.5163
 4883TIP3    H236065   0.382   4.885  12.542  1.9533  0.5924  0.8388
 4884TIP3   OH236066   6.023   2.240  14.927  0.3606 -0.1176 -0.4614
 4884TIP3    H136067   6.053   2.151  14.944  1.2489  0.1671 -0.5314
 4884TIP3    H236068   5.931   2.239  14.954  0.6822 -0.7310  0.6951
 4885TIP3   OH236069   5.933   2.906  13.871  0.0283 -0.3100 -0.0574
 4885TIP3    H136070   5.841   2.885  13.880  0.3279 -1.7918 -0.2909
 4885TIP3    H236071   5.935   3.001  13.856 -1.3723 -0.1059  0.9436
 4886TIP3   OH236072   6.512   2.171  13.260  0.4792  0.5544 -0.2321
 4886TIP3    H136073   6.439   2.134  13.210 -0.0669  2.0804 -0.6208
 4886TIP3    H236074   6.588   2.121  13.231 -0.3532 -0.9427  0.0345
 4887TIP3   OH236075   5.978   2.263  13.898 -0.4903 -0.0675  0.2866
 4887TIP3    H136076   6.064   2.251  13.858 -1.2012 -0.6703 -1.1221
 4887TIP3    H236077   5.969   2.189  13.958  0.1111  0.2167  0.7485
 4888TIP3   OH236078   4.172   4.786  16.217 -0.5644  0.3011 -0.4674
 4888TIP3    H136079   4.110   4.853  16.188 -0.9749 -1.0494 -3.0919
 4888TIP3    H236080   4.233   4.778  16.144  0.2571 -1.2329  0.3556
 4889TIP3   OH236081   5.540   5.101  16.006  0.5801  0.1858  0.6985
 4889TIP3    H136082   5.493   5.157  16.067  0.4470 -0.6708  1.3987
 4889TIP3    H236083   5.508   5.012  16.024  0.8519 -0.1420 -0.3222
 4890TIP3   OH236084   3.513   1.179  12.180  0.8247 -0.0267 -0.0794
 4890TIP3    H136085   3.598   1.202  12.144  0.5738 -0.9621 -1.3433
 4890TIP3    H236086   3.483   1.106  12.126 -1.1340  0.8022 -0.1981
 4891TIP3   OH236087   2.575   1.250   1.386  0.1055 -0.0224 -0.7359
 4891TIP3    H136088   2.563   1.281   1.476 -0.8164 -3.1599  0.3723
 4891TIP3    H236089   2.668   1.226   1.382  0.3996  1.0998 -1.0184
 4892TIP3   OH236090   4.767   3.579  14.870 -0.5408 -0.0792  0.2921
 4892TIP3    H136091   4.829   3.522  14.916 -0.6594 -0.7013 -0.2999
 4892TIP3    H236092   4.820   3.653  14.841  0.0195 -0.7624 -0.4952
 4893TIP3   OH236093   5.124   6.631   4.510 -0.7012  0.6103  0.3918
 4893TIP3    H136094   5.132   6.648   4.604 -1.2714  0.2308  0.5105
 4893TIP3    H236095   5.110   6.537   4.504 -2.8318  0.9058  0.0713
 4894TIP3   OH236096   0.496   0.010  14.743  0.3563  0.5183  0.0723
 4894TIP3    H136097   0.572  -0.012  14.797  0.7174  0.0957 -0.5962
 4894TIP3    H236098   0.448  -0.073  14.735 -0.5748  0.9286  1.0849
 4895TIP3   OH236099   2.364   4.590   2.729  0.1439  0.1791  0.3026
 4895TIP3    H136100   2.339   4.548   2.811  2.2749  0.2556  1.0587
 4895TIP3    H236101   2.424   4.528   2.687 -2.6753 -0.9557 -2.4579
 4896TIP3   OH236102   5.244   4.651  12.709  0.2539 -0.2447 -0.3754
 4896TIP3    H136103   5.327   4.697  12.719 -0.7096  1.7031 -0.9646
 4896TIP3    H236104   5.205   4.651  12.797 -0.7079  2.0638 -0.7467
 4897TIP3   OH236105   0.090   4.427  11.546  0.1516  0.2571  0.0188
 4897TIP3    H136106   0.139   4.418  11.464 -1.2435  0.0555 -0.8400
 4897TIP3    H236107   0.156   4.421  11.614  1.3466  0.3004 -1.0886
 4898TIP3   OH236108   4.923   1.029  14.710 -0.1874 -0.3503  0.4985
 4898TIP3    H136109   4.974   1.094  14.662 -1.4171 -0.6991 -1.3779
 4898TIP3    H236110   4.845   1.077  14.739  0.9867  0.1278  3.1606
 4899TIP3   OH236111   1.203   2.746  12.171 -0.0062 -0.5222 -0.0961
 4899TIP3    H136112   1.149   2.803  12.116  0.4089 -1.3878 -1.4478
 4899TIP3    H236113   1.155   2.663  12.174  0.8928 -1.0778 -0.7424
 4900TIP3   OH236114   0.984   3.371   0.166  0.1154 -0.0471  0.0828
 4900TIP3    H136115   1.050   3.390   0.100  0.2522 -0.5618  0.0640
 4900TIP3    H236116   0.905   3.349   0.116  0.0205  0.2434  0.1017
 4901TIP3   OH236117   4.331   0.868   0.672 -0.2199 -1.0515  0.6867
 4901TIP3    H136118   4.423   0.844   0.673  0.3390  0.6604 -1.3186
 4901TIP3    H236119   4.318   0.917   0.753  2.1893  3.4481 -1.3028
 4902TIP3   OH236120   4.668   4.964   3.312 -0.1139  0.0695  0.2493
 4902TIP3    H136121   4.646   5.018   3.236 -0.9888  1.8788  1.6917
 4902TIP3    H236122   4.743   5.009   3.352 -0.8266  0.2498  1.4512
 4903TIP3   OH236123   0.013   5.511  11.482  0.0913 -0.3921  0.0967
 4903TIP3    H136124   0.048   5.428  11.516 -1.3472 -1.4753 -0.8945
 4903TIP3    H236125  -0.063   5.528  11.537 -0.5939 -0.6494 -0.7492
 4904TIP3   OH236126   6.375   1.628   4.686  0.0400  0.3606 -0.0023
 4904TIP3    H136127   6.378   1.647   4.592  0.6944 -0.2133 -0.1112
 4904TIP3    H236128   6.282   1.627   4.708 -0.3860 -2.6672 -1.3402
 4905TIP3   OH236129   4.795   2.915  15.849  0.0434 -0.5382 -0.2866
 4905TIP3    H136130   4.873   2.962  15.822 -0.5219  0.0527 -0.9404
 4905TIP3    H236131   4.748   2.976  15.906  0.0029 -0.8436  0.0101
 4906TIP3   OH236132   1.779   2.920   4.456  0.5780  0.0411 -0.3426
 4906TIP3    H136133   1.745   2.927   4.545 -1.7663  0.0517 -1.1849
 4906TIP3    H236134   1.802   2.828   4.446  0.5840 -0.0142  0.1825
 4907TIP3   OH236135   6.466   4.330   2.959  0.0586 -0.0604 -0.0472
 4907TIP3    H136136   6.484   4.394   3.027  1.5848  0.1112 -0.5786
 4907TIP3    H236137   6.456   4.382   2.879 -0.1454 -0.3757 -0.2310
 4908TIP3   OH236138   2.898   3.478  12.449 -1.1514 -0.2267  0.3029
 4908TIP3    H136139   2.843   3.542  12.403 -2.6369 -2.0821 -0.6489
 4908TIP3    H236140   2.982   3.483  12.404 -1.3125  0.8606  0.0861
 4909TIP3   OH236141   1.065   6.062  16.333  0.2514 -0.7541 -0.0838
 4909TIP3    H136142   1.017   6.138  16.366  2.1569 -0.0217  1.2067
 4909TIP3    H236143   1.069   6.002  16.408  1.6234 -0.6207 -0.0151
 4910TIP3   OH236144   1.220   4.369   4.637  0.7496  0.7830  0.4978
 4910TIP3    H136145   1.173   4.334   4.713  3.5600 -0.2255  1.9063
 4910TIP3    H236146   1.285   4.303   4.616  1.3525  1.9422 -1.5767
 4911TIP3   OH236147   0.276   4.899  15.010 -0.2900 -1.1484 -0.1514
 4911TIP3    H136148   0.185   4.927  15.006 -0.1014 -0.5808 -0.7280
 4911TIP3    H236149   0.327   4.981  15.011  0.2407 -1.4499 -0.9274
 4912TIP3   OH236150   1.195   1.300   4.908  0.3895 -0.2653  0.1357
 4912TIP3    H136151   1.290   1.288   4.913  0.3948 -1.1023 -1.5476
 4912TIP3    H236152   1.163   1.227   4.856 -1.0224  0.7196 -0.4637
 4913TIP3   OH236153   4.559   3.956  13.533  0.5254 -0.9141  0.0437
 4913TIP3    H136154   4.480   3.953  13.586 -0.1112 -1.7824 -0.9061
 4913TIP3    H236155   4.528   3.957  13.442  1.5954 -1.2039 -0.3520
 4914TIP3   OH236156   4.075   6.477   6.593 -0.2999  0.1692  0.0587
 4914TIP3    H136157   4.075   6.509   6.683 -1.8829 -0.3882  0.2822
 4914TIP3    H236158   3.983   6.471   6.569  0.0149 -1.6743 -0.8808
 4915TIP3   OH236159   4.647   0.476   5.072 -0.1527 -0.0493  0.2535
 4915TIP3    H136160   4.697   0.556   5.089  0.8748 -0.5189 -0.4625
 4915TIP3    H236161   4.630   0.439   5.159 -0.4933  0.8581  0.5743
 4916TIP3   OH236162   3.955   4.537  15.173 -0.3812  0.3948  0.7046
 4916TIP3    H136163   3.935   4.627  15.151  0.8251  0.6059  0.4350
 4916TIP3    H236164   4.026   4.543  15.237  0.3516 -0.3881 -0.0240
 4917TIP3   OH236165   4.746   6.366  14.436 -0.6601 -0.2007 -0.3575
 4917TIP3    H136166   4.807   6.295  14.460  1.1621  1.8187  1.3950
 4917TIP3    H236167   4.737   6.358  14.341  2.2736 -0.7528 -0.7025
 4918TIP3   OH236168   4.363   6.755  15.816  0.0713 -0.0791  0.1478
 4918TIP3    H136169   4.361   6.848  15.792 -0.6139 -0.2000 -0.2995
 4918TIP3    H236170   4.291   6.716  15.766  2.2960 -1.4642 -2.2335
 4919TIP3   OH236171   5.569   1.785   4.998  0.0248  0.6878 -0.4493
 4919TIP3    H136172   5.564   1.826   4.911  0.4594 -1.5287 -1.5763
 4919TIP3    H236173   5.480   1.792   5.032 -0.5477  0.1836 -1.7655
 4920TIP3   OH236174   2.821   2.516  16.941  0.3600  0.6319  0.5494
 4920TIP3    H136175   2.829   2.547  16.850 -0.1288 -1.7502 -0.3795
 4920TIP3    H236176   2.897   2.459  16.953  0.4850  1.0289  1.6850
 4921TIP3   OH236177   2.610   0.535  14.832  0.0475  0.0241  0.4124
 4921TIP3    H136178   2.601   0.614  14.885 -0.9734  0.1913  0.0056
 4921TIP3    H236179   2.602   0.463  14.895 -0.6128  0.2285  0.5742
 4922TIP3   OH236180   2.174   3.696   0.108  0.3042 -0.5738  0.0563
 4922TIP3    H136181   2.122   3.774   0.089 -0.7496 -1.2824 -0.0344
 4922TIP3    H236182   2.147   3.669   0.196  1.2520 -0.3930  0.4195
 4923TIP3   OH236183   4.745   3.604  15.990 -0.1124  0.1671  0.4061
 4923TIP3    H136184   4.776   3.539  16.053 -0.0290  0.8562  1.0987
 4923TIP3    H236185   4.822   3.658  15.972 -0.4142  0.6624  0.5873
 4924TIP3   OH236186   0.453   4.573  15.757  0.1062 -0.2562 -0.1331
 4924TIP3    H136187   0.498   4.653  15.784 -1.3728  0.4151  0.4361
 4924TIP3    H236188   0.487   4.555  15.670  0.1195  1.2747 -0.4750
 4925TIP3   OH236189   2.930   3.053  16.827 -0.5560 -0.0805  0.1947
 4925TIP3    H136190   2.983   3.006  16.763 -0.0532 -0.1011  0.6271
 4925TIP3    H236191   2.868   3.104  16.774  0.0560  0.1416 -0.3159
 4926TIP3   OH236192   4.588   4.499   1.803  0.0333  0.2259 -0.5352
 4926TIP3    H136193   4.556   4.434   1.865  0.1874  1.4068  0.8352
 4926TIP3    H236194   4.524   4.497   1.731 -1.1139  0.0050  0.4548
 4927TIP3   OH236195   0.625   4.838  15.077  0.9236  0.1234  0.5505
 4927TIP3    H136196   0.610   4.928  15.047  0.7470  0.1614  0.7523
 4927TIP3    H236197   0.672   4.796  15.005  0.3419  0.1626  0.1431
 4928TIP3   OH236198   6.079   3.613  10.892  0.4044 -0.0071 -0.0228
 4928TIP3    H136199   6.075   3.612  10.796 -0.7440  0.5318 -0.0000
 4928TIP3    H236200   6.084   3.706  10.914  2.0302 -0.1690  0.4206
 4929TIP3   OH236201   3.263   4.955  14.068  0.1012 -0.4763 -0.0341
 4929TIP3    H136202   3.220   5.040  14.080 -0.7342 -0.5450 -2.1791
 4929TIP3    H236203   3.210   4.894  14.119 -1.1801 -0.2221 -1.0283
 4930TIP3   OH236204   5.975   5.100   0.948 -0.2830 -0.0231  0.0778
 4930TIP3    H136205   5.958   5.140   1.033 -1.9828  2.3650 -1.2343
 4930TIP3    H236206   5.890   5.063   0.922  0.1391 -0.4706 -0.6953
 4931TIP3   OH236207   6.539   0.767  13.211  0.3108 -0.0364  0.5906
 4931TIP3    H136208   6.471   0.712  13.172  0.2010 -0.5955  1.5433
 4931TIP3    H236209   6.620   0.720  13.194  0.1947 -0.6104  1.5902
 4932TIP3   OH236210   4.776   5.226  12.811 -0.6404 -0.5267 -0.0495
 4932TIP3    H136211   4.851   5.174  12.839  0.4000 -0.3800 -2.3779
 4932TIP3    H236212   4.712   5.162  12.779 -1.3414 -0.6172  1.4577
 4933TIP3   OH236213   1.798   3.431  13.286  0.5761  0.5807  0.4140
 4933TIP3    H136214   1.882   3.456  13.247  0.6415  0.3543  0.4056
 4933TIP3    H236215   1.788   3.339  13.263  0.6483  0.4246  0.9888
 4934TIP3   OH236216   0.225   4.323   4.559  0.6582  0.3678 -0.5611
 4934TIP3    H136217   0.287   4.346   4.490  1.4449  1.3237  0.4213
 4934TIP3    H236218   0.160   4.394   4.556  0.8404  0.5550 -0.1649
 4935TIP3   OH236219   5.461   0.720   5.843  0.6895 -0.2641 -0.3811
 4935TIP3    H136220   5.515   0.759   5.912 -0.8072  0.7984  0.2576
 4935TIP3    H236221   5.515   0.649   5.807  2.7522  1.1443 -0.2557
 4936TIP3   OH236222   2.701   3.025   4.499 -0.1799  0.0968 -0.3161
 4936TIP3    H136223   2.769   2.991   4.440  0.4609 -0.5765  0.7714
 4936TIP3    H236224   2.715   3.120   4.499  0.2650  0.0337 -0.7029
 4937TIP3   OH236225   2.741   0.627   3.846 -0.0449  0.0064 -0.5828
 4937TIP3    H136226   2.776   0.539   3.831 -0.2243  0.2761 -2.7891
 4937TIP3    H236227   2.654   0.625   3.805 -0.6100  0.8374  0.5176
 4938TIP3   OH236228   5.789   6.004   3.284  0.3931  0.0443 -0.2257
 4938TIP3    H136229   5.711   6.058   3.268 -1.3301 -2.8248 -2.7563
 4938TIP3    H236230   5.787   5.985   3.378  1.0355  4.0616  0.7498
 4939TIP3   OH236231   4.755   3.990  13.051 -0.4164 -0.8332  0.7219
 4939TIP3    H136232   4.818   3.993  12.979  1.0351  0.0391  1.9704
 4939TIP3    H236233   4.732   3.897  13.059  1.0088 -1.2198  0.4996
 4940TIP3   OH236234   1.873   2.019   5.545  0.0469 -0.4041 -0.5399
 4940TIP3    H136235   1.916   2.040   5.462  0.5542 -0.7073 -0.3537
 4940TIP3    H236236   1.779   2.026   5.525  0.1622  1.6450 -0.5984
 4941TIP3   OH236237   5.216   4.366   4.867 -0.0957 -0.1513  0.0582
 4941TIP3    H136238   5.300   4.322   4.863  0.8094  1.5936 -2.5357
 4941TIP3    H236239   5.188   4.356   4.958  1.4968 -3.2260  0.3388
 4942TIP3   OH236240   1.706   2.168  15.591  0.1117 -0.7866 -0.2401
 4942TIP3    H136241   1.749   2.232  15.648 -1.0173 -0.8352  0.6900
 4942TIP3    H236242   1.729   2.083  15.629 -0.3914 -0.8313 -0.0347
 4943TIP3   OH236243   3.140   6.569  14.555 -0.3474  0.3268 -0.4781
 4943TIP3    H136244   3.175   6.649  14.515  1.2284 -0.1762 -0.2080
 4943TIP3    H236245   3.208   6.503  14.538 -0.4859 -0.3553  1.4219
 4944TIP3   OH236246   4.469   3.040   2.798 -0.5191 -0.2061  0.0038
 4944TIP3    H136247   4.520   3.070   2.873  0.7361 -0.2892 -0.7974
 4944TIP3    H236248   4.432   2.956   2.826  0.6968 -0.6824  0.2060
 4945TIP3   OH236249   3.408   6.418  11.392 -0.3032 -0.0068  0.6828
 4945TIP3    H136250   3.418   6.501  11.345  0.0955  0.0210  0.8078
 4945TIP3    H236251   3.458   6.431  11.473  0.1446 -0.5250  0.4977
 4946TIP3   OH236252   5.176   4.506  17.313  0.2059  0.4068  0.4742
 4946TIP3    H136253   5.136   4.549  17.388 -0.0886 -0.4365  0.8164
 4946TIP3    H236254   5.269   4.499  17.336  0.5876  2.2735 -0.2787
 4947TIP3   OH236255   1.996   1.732  14.649  0.2166 -0.4018  0.0122
 4947TIP3    H136256   1.977   1.667  14.717  0.2177 -1.3100 -0.8402
 4947TIP3    H236257   1.939   1.806  14.671  0.2022 -0.6900  0.9885
 4948TIP3   OH236258   0.938   2.694  13.480 -0.6580  0.3542  0.4182
 4948TIP3    H136259   0.948   2.647  13.562  0.4863 -0.1513  0.0179
 4948TIP3    H236260   1.017   2.749  13.474 -0.6293  0.2476 -0.4068
 4949TIP3   OH236261   2.262   0.030   3.224  0.5684  0.1235  0.0177
 4949TIP3    H136262   2.219  -0.047   3.186  2.3236  0.0475 -2.0134
 4949TIP3    H236263   2.189   0.088   3.248 -0.7391 -1.3209 -0.2477
 4950TIP3   OH236264   6.145   5.035   1.901  0.7079 -0.3965 -0.8205
 4950TIP3    H136265   6.095   5.116   1.914  1.2849  0.1000 -1.6508
 4950TIP3    H236266   6.215   5.059   1.842  1.7017 -1.1964 -0.0039
 4951TIP3   OH236267   2.542   6.034  13.476  0.1410 -0.6092 -0.5593
 4951TIP3    H136268   2.482   5.992  13.414 -1.5147  1.6821 -0.6399
 4951TIP3    H236269   2.561   6.120  13.438 -0.1476  0.4996  1.6063
 4952TIP3   OH236270   6.109   1.153  11.532  0.0744 -0.1972  0.1825
 4952TIP3    H136271   6.117   1.199  11.448  1.9042  1.4901  1.1881
 4952TIP3    H236272   6.187   1.098  11.537  0.5298  0.5240  1.2110
 4953TIP3   OH236273   4.401   0.311   4.208 -0.3239 -0.2577 -0.8921
 4953TIP3    H136274   4.429   0.227   4.244 -0.7896 -0.1752 -0.3270
 4953TIP3    H236275   4.314   0.293   4.171 -0.5917  0.0714 -0.4158
 4954TIP3   OH236276   4.381   4.670  15.419 -0.0841  0.4261 -0.3337
 4954TIP3    H136277   4.297   4.684  15.463  0.2120  0.5150  0.2081
 4954TIP3    H236278   4.360   4.615  15.344 -0.6048  0.3209 -0.1136
 4955TIP3   OH236279   5.309   4.549   3.551 -0.3496  0.4412 -0.4647
 4955TIP3    H136280   5.399   4.565   3.523 -0.1846  1.8606  0.7135
 4955TIP3    H236281   5.300   4.454   3.551  1.6703  0.1876  0.8515
 4956TIP3   OH236282   5.478   4.398   2.614  0.7946  0.6797  0.1319
 4956TIP3    H136283   5.571   4.378   2.607  0.7102 -0.0055  0.8659
 4956TIP3    H236284   5.437   4.347   2.543  0.9917  1.1135 -0.2983
 4957TIP3   OH236285   4.313   5.886   4.867 -0.2661 -0.0505  0.1389
 4957TIP3    H136286   4.373   5.874   4.793  1.0176  0.8032  0.9883
 4957TIP3    H236287   4.226   5.869   4.831  0.2113  1.2823 -1.8380
 4958TIP3   OH236288   0.326   3.744  13.187  0.2118  0.1490  1.0149
 4958TIP3    H136289   0.297   3.792  13.264  1.2776 -0.3346  1.7342
 4958TIP3    H236290   0.417   3.772  13.174  0.3885 -0.5939  0.5875
 4959TIP3   OH236291   3.572   5.619  13.484 -0.0570 -0.0953 -0.2959
 4959TIP3    H136292   3.635   5.551  13.507  1.1118  1.5113  1.5181
 4959TIP3    H236293   3.578   5.626  13.388  0.3497 -1.9549 -0.4413
 4960TIP3   OH236294   1.237   1.912  11.110 -0.6689 -0.0488  0.2541
 4960TIP3    H136295   1.269   2.001  11.125  0.4100 -0.5322  0.9511
 4960TIP3    H236296   1.314   1.856  11.122 -1.0540 -0.9950 -1.3951
 4961TIP3   OH236297   4.835   3.609  13.684  0.2505  0.2275 -0.5937
 4961TIP3    H136298   4.901   3.645  13.743 -1.8774  1.0666  1.4264
 4961TIP3    H236299   4.833   3.515  13.705  0.3824  0.3045 -0.2243
 4962TIP3   OH236300   2.007   6.009   0.038  0.1910 -0.4121 -0.0874
 4962TIP3    H136301   1.944   5.999   0.110 -0.2428 -1.4132 -0.5884
 4962TIP3    H236302   2.087   5.968   0.071  0.3440  0.1379  0.2418
 4963TIP3   OH236303   2.064   2.885  11.755  0.3557  1.0828 -0.3859
 4963TIP3    H136304   2.025   2.836  11.683  1.7440  1.4573 -1.4451
 4963TIP3    H236305   2.090   2.818  11.819  2.4516  0.3365 -1.9177
 4964TIP3   OH236306   5.614   0.846  11.801  0.7317 -0.2189 -0.0525
 4964TIP3    H136307   5.621   0.874  11.710  0.6934  1.8109  0.5259
 4964TIP3    H236308   5.702   0.862  11.838  0.4912 -0.1180  0.4923
 4965TIP3   OH236309   3.134   5.713   0.674  0.4772  0.2037  0.0073
 4965TIP3    H136310   3.209   5.723   0.615  0.4112 -0.0621 -0.1250
 4965TIP3    H236311   3.152   5.772   0.747  1.1940 -0.4331  0.3620
 4966TIP3   OH236312   5.334   6.068   0.386  0.2025  0.5545  0.4857
 4966TIP3    H136313   5.263   6.088   0.447 -0.4140 -2.1707  0.8165
 4966TIP3    H236314   5.402   6.029   0.441 -0.0832 -1.3069 -0.3838
 4967TIP3   OH236315   4.498   5.236  16.112  0.0831  0.1211 -0.0728
 4967TIP3    H136316   4.580   5.279  16.089 -0.7039  0.8211 -1.6939
 4967TIP3    H236317   4.524   5.149  16.142  1.4168  0.3838 -0.4055
 4968TIP3   OH236318   5.957   3.469  13.371 -0.1944 -0.1411  0.1626
 4968TIP3    H136319   5.884   3.475  13.310 -0.3402 -0.9080  0.2446
 4968TIP3    H236320   5.940   3.389  13.420  0.7933 -0.4306  0.0606
 4969TIP3   OH236321   2.889   2.651  16.486  0.1192 -0.2633 -0.0700
 4969TIP3    H136322   2.876   2.694  16.570 -1.0095 -0.2745 -0.2319
 4969TIP3    H236323   2.933   2.569  16.508  4.4001  1.7563  0.1005
 4970TIP3   OH236324   5.764   0.226  17.182  0.5058  0.3687 -0.2002
 4970TIP3    H136325   5.673   0.223  17.212  0.1426 -1.5973 -1.3875
 4970TIP3    H236326   5.813   0.185  17.253  0.1110 -0.9404 -0.6600
 4971TIP3   OH236327   6.313   4.049   6.461 -0.2981  0.4729  0.2303
 4971TIP3    H136328   6.278   4.132   6.494 -0.2252  1.3122 -1.6871
 4971TIP3    H236329   6.388   4.031   6.519 -0.5385  1.5437  0.9139
 4972TIP3   OH236330   5.749   3.373  14.132  0.0705  0.7942  0.5108
 4972TIP3    H136331   5.761   3.399  14.041  0.0477  2.2538  0.8965
 4972TIP3    H236332   5.762   3.278  14.132 -4.3583 -0.0528 -1.7533
 4973TIP3   OH236333   0.929   6.599  10.747  0.2054 -0.0390  0.3572
 4973TIP3    H136334   0.964   6.518  10.710  0.7811  0.2887  0.1845
 4973TIP3    H236335   0.834   6.589  10.739  0.2530 -0.8474  0.6536
 4974TIP3   OH236336   4.372   1.476  16.913 -0.1842 -0.5176 -0.2841
 4974TIP3    H136337   4.290   1.432  16.935 -0.0389 -1.2959 -1.2478
 4974TIP3    H236338   4.421   1.412  16.861 -0.6155  1.2991 -3.1003
 4975TIP3   OH236339   4.365   0.650   2.631 -0.9335 -0.3180 -0.2541
 4975TIP3    H136340   4.313   0.596   2.691  0.0865 -1.3568 -0.2632
 4975TIP3    H236341   4.375   0.733   2.676  0.1333 -1.1968  1.2186
 4976TIP3   OH236342   1.055   0.597  15.441  0.4926 -0.5175 -0.6586
 4976TIP3    H136343   1.146   0.590  15.471  0.6292  0.7538 -0.6942
 4976TIP3    H236344   1.004   0.609  15.522 -0.0215 -3.8349 -0.3793
 4977TIP3   OH236345   5.635   5.516   6.324 -0.3020 -0.1140 -0.2336
 4977TIP3    H136346   5.656   5.606   6.298 -0.5064  0.7280  2.2674
 4977TIP3    H236347   5.539   5.514   6.330 -0.3782 -0.8522 -1.2774
 4978TIP3   OH236348   0.321   2.602  16.915  0.4470  0.9743 -0.1088
 4978TIP3    H136349   0.236   2.647  16.912 -1.6622 -2.6436 -0.3891
 4978TIP3    H236350   0.338   2.578  16.824  0.8726  0.1861  0.1695
 4979TIP3   OH236351   4.367   0.228   0.321  0.4236 -0.4917  0.3649
 4979TIP3    H136352   4.338   0.318   0.339  1.8428 -0.1870  1.3326
 4979TIP3    H236353   4.305   0.173   0.368 -1.7393 -0.1868 -1.9305
 4980TIP3   OH236354   1.227   1.898  14.379 -0.2434 -0.5153 -0.7088
 4980TIP3    H136355   1.217   1.818  14.327 -0.5218 -0.2102 -1.1369
 4980TIP3    H236356   1.273   1.958  14.320 -1.1901  0.0706 -0.8583
 4981TIP3   OH236357   3.537   6.233  12.246  0.3845  0.4866  0.0407
 4981TIP3    H136358   3.508   6.172  12.178  1.3301 -0.3766  0.3819
 4981TIP3    H236359   3.529   6.183  12.327  2.3983  0.3293  0.1923
 4982TIP3   OH236360   2.178   3.744   5.001 -0.2671  0.1639 -0.2294
 4982TIP3    H136361   2.207   3.722   4.912 -1.7035 -3.0559 -0.0358
 4982TIP3    H236362   2.169   3.660   5.045  1.5094  1.6382  3.4396
 4983TIP3   OH236363   6.516   4.819  12.225  0.0551 -0.3979  0.1509
 4983TIP3    H136364   6.544   4.865  12.145  0.1009 -0.3214  0.2114
 4983TIP3    H236365   6.544   4.876  12.296 -1.3278  0.2852  0.1860
 4984TIP3   OH236366   0.977   0.671  14.053 -0.5335 -0.2046  0.2211
 4984TIP3    H136367   0.989   0.765  14.043 -0.7011 -0.1668  0.3601
 4984TIP3    H236368   1.050   0.632  14.005 -0.5615 -0.0075  0.0155
 4985TIP3   OH236369   4.770   0.270   2.055  0.3949  0.0889 -0.1972
 4985TIP3    H136370   4.820   0.193   2.031  0.0728 -0.2186  0.0922
 4985TIP3    H236371   4.759   0.263   2.150  0.7063  0.6998 -0.1069
 4986TIP3   OH236372   3.818   5.707   4.779 -0.5983  0.1621  0.4247
 4986TIP3    H136373   3.855   5.790   4.808  0.1259  0.5741 -1.5368
 4986TIP3    H236374   3.891   5.659   4.740 -1.6951  0.3212 -2.0705
 4987TIP3   OH236375   3.882   0.941  15.248 -0.0973 -0.3861  0.5770
 4987TIP3    H136376   3.793   0.974  15.245 -0.6802 -1.8585  0.6612
 4987TIP3    H236377   3.937   1.019  15.260 -1.3873  0.4975  0.9122
 4988TIP3   OH236378   3.893   5.649   4.371 -0.3005  0.1806 -0.4719
 4988TIP3    H136379   3.866   5.560   4.350  2.5214 -0.4649 -1.8483
 4988TIP3    H236380   3.909   5.690   4.286  2.7146  0.4941  0.1348
 4989TIP3   OH236381   5.620   1.132   5.539 -0.4862 -0.9558 -0.0861
 4989TIP3    H136382   5.586   1.043   5.538 -1.2252 -0.6830 -0.2021
 4989TIP3    H236383   5.714   1.122   5.549 -0.7139 -1.7021  1.7477
 4990TIP3   OH236384   6.275   4.806   5.685  0.0023  0.8588  0.0599
 4990TIP3    H136385   6.298   4.713   5.682 -1.7075  0.4067  0.2169
 4990TIP3    H236386   6.335   4.847   5.623  0.2404 -0.4751 -0.6344
 4991TIP3   OH236387   3.548   4.451   4.040  0.0320 -0.2681  0.0455
 4991TIP3    H136388   3.561   4.500   4.122 -2.1664 -0.2826  0.4790
 4991TIP3    H236389   3.524   4.363   4.068  0.7265 -0.6971 -0.6685
 4992TIP3   OH236390   6.120   4.484  12.977  0.7097  0.3650  0.3471
 4992TIP3    H136391   6.078   4.509  12.895 -1.6357  0.1744  1.4081
 4992TIP3    H236392   6.137   4.390  12.968 -0.7589  0.0518  0.5189
 4993TIP3   OH236393   6.569   4.136   0.570 -0.1990  0.4143  0.0493
 4993TIP3    H136394   6.521   4.057   0.596 -2.3760  1.7850  0.4260
 4993TIP3    H236395   6.618   4.161   0.648  1.2166 -0.9772 -0.3270
 4994TIP3   OH236396   3.586   6.639   2.959  0.1816  0.1932  0.0549
 4994TIP3    H136397   3.674   6.638   2.920  0.0864  3.6627 -0.5469
 4994TIP3    H236398   3.527   6.655   2.886 -0.9473 -1.3821  0.5616
 4995TIP3   OH236399   2.832   4.134  13.562  0.8157 -0.6045  0.6605
 4995TIP3    H136400   2.803   4.114  13.651 -0.4305  0.5718  0.5518
 4995TIP3    H236401   2.851   4.048  13.523 -1.2524 -1.3691  1.2074
 4996TIP3   OH236402   6.046   2.369  12.052  0.7669  0.3540  0.1737
 4996TIP3    H136403   5.964   2.337  12.014 -0.6984  1.6292  2.1078
 4996TIP3    H236404   6.113   2.313  12.013 -0.8754 -0.1252 -2.2150
 4997TIP3   OH236405   1.149   0.927   3.938 -0.9095  0.3705  0.0926
 4997TIP3    H136406   1.079   0.872   3.974 -0.7423 -0.5477 -0.9248
 4997TIP3    H236407   1.175   0.983   4.011 -0.9830 -1.0098  1.2275
 4998TIP3   OH236408   2.471   2.963  10.731 -0.1654 -0.1307 -0.0021
 4998TIP3    H136409   2.417   2.884  10.740  0.6506 -1.3231 -3.6378
 4998TIP3    H236410   2.416   3.023  10.680  0.8889 -0.2886 -1.3713
 4999TIP3   OH236411   6.078   0.545   4.183 -0.6478  0.4194 -0.0761
 4999TIP3    H136412   6.075   0.471   4.123 -0.1704  0.9912 -0.8220
 4999TIP3    H236413   6.009   0.527   4.247  0.0871 -1.1309  0.3274
 5000TIP3   OH236414   2.795   3.593   1.817 -0.3800 -0.0036 -0.4109
 5000TIP3    H136415   2.827   3.645   1.743  0.4788  0.1664  0.0552
 5000TIP3    H236416   2.873   3.579   1.871 -0.7343 -1.2339 -0.1939
 5001TIP3   OH236417   2.082   2.825  12.278 -0.6996 -0.2343  0.7523
 5001TIP3    H136418   2.000   2.875  12.277 -0.2068  0.7402  2.7632
 5001TIP3    H236419   2.059   2.742  12.320 -0.5540  0.3206  1.9741
 5002TIP3   OH236420   4.232   5.453  13.146  0.1029 -0.6043 -0.1873
 5002TIP3    H136421   4.223   5.368  13.189  1.6459 -0.8980 -0.3963
 5002TIP3    H236422   4.280   5.507  13.210 -0.2653 -0.1017 -0.3307
 5003TIP3   OH236423   2.119   6.396  11.517 -0.2099  0.3539  0.1225
 5003TIP3    H136424   2.170   6.477  11.514  1.5398 -0.6884  0.5048
 5003TIP3    H236425   2.089   6.390  11.608  2.0310 -0.7823  0.8419
 5004TIP3   OH236426   2.132   6.760   5.248 -0.1711 -0.4826  0.0251
 5004TIP3    H136427   2.097   6.702   5.181 -2.8872 -0.3839  1.2211
 5004TIP3    H236428   2.104   6.721   5.331 -0.1357  1.3028  0.9407
 5005TIP3   OH236429   1.614   6.197  15.699 -0.2915 -0.0438 -0.1644
 5005TIP3    H136430   1.568   6.133  15.753 -2.2998  0.5523 -1.0742
 5005TIP3    H236431   1.630   6.271  15.758 -0.8329 -0.1267  0.0912
 5006TIP3   OH236432   1.214   3.223   5.152 -0.3429  0.0656  0.3158
 5006TIP3    H136433   1.200   3.305   5.105 -0.3816 -0.0047  0.2017
 5006TIP3    H236434   1.281   3.243   5.217 -1.4633  0.5916  1.3468
 5007TIP3   OH236435   5.482   1.216  14.785  0.2611  0.0138 -0.4781
 5007TIP3    H136436   5.399   1.258  14.762  0.4545  0.1593 -0.9172
 5007TIP3    H236437   5.459   1.125  14.804 -0.1285  0.2555  0.2647
 5008TIP3   OH236438   3.542   4.863   3.163  0.1081 -0.2237 -0.1647
 5008TIP3    H136439   3.476   4.794   3.171  0.2772 -0.2114  2.0379
 5008TIP3    H236440   3.493   4.944   3.178  0.6147 -0.2445  1.9822
 5009TIP3   OH236441   4.011   0.285   4.471 -0.1124 -0.0481 -0.0917
 5009TIP3    H136442   3.991   0.213   4.412 -0.8885  0.0897 -0.0117
 5009TIP3    H236443   3.980   0.363   4.425  1.5559  0.3656 -0.5874
 5010TIP3   OH236444   1.657   1.130   0.738 -0.3306 -0.3166  0.4722
 5010TIP3    H136445   1.674   1.044   0.777  0.3141 -0.0055  0.8979
 5010TIP3    H236446   1.562   1.133   0.727 -0.3648 -1.0569  0.5130
 5011TIP3   OH236447   4.787   3.815   1.590  0.4595 -0.2588  0.2192
 5011TIP3    H136448   4.766   3.737   1.641 -1.5590 -1.2578 -1.9630
 5011TIP3    H236449   4.721   3.880   1.616  1.6110  0.4885  1.4005
 5012TIP3   OH236450   4.700   1.968  14.938  0.4391  0.1237 -0.7269
 5012TIP3    H136451   4.781   2.009  14.969 -0.5479  0.6773  1.2788
 5012TIP3    H236452   4.729   1.891  14.890  2.1508 -0.1175  0.5950
 5013TIP3   OH236453   5.632   3.813  11.106  0.4534 -0.5311 -0.1090
 5013TIP3    H136454   5.683   3.844  11.181 -0.2851 -1.1731  0.6788
 5013TIP3    H236455   5.552   3.866  11.108  0.3691 -0.6458 -0.3614
 5014TIP3   OH236456   4.231   1.814  12.613 -0.5151 -0.2403 -0.2137
 5014TIP3    H136457   4.220   1.728  12.651  0.2143 -1.7426 -3.0850
 5014TIP3    H236458   4.268   1.797  12.526  2.3442  3.0888  0.1193
 5015TIP3   OH236459   5.633   4.725   1.930 -0.0719 -0.1646  0.7510
 5015TIP3    H136460   5.650   4.633   1.952 -1.0665 -0.4452  0.4121
 5015TIP3    H236461   5.716   4.756   1.893  0.3135 -0.8874  0.9698
 5016TIP3   OH236462   5.056   0.496  15.308  0.1015 -0.9757 -0.2837
 5016TIP3    H136463   5.095   0.551  15.376  0.5110  0.1606 -1.4027
 5016TIP3    H236464   4.968   0.475  15.341  0.5460 -1.0314  0.8975
 5017TIP3   OH236465   1.217   2.904   3.836 -0.9536 -0.2417 -0.2394
 5017TIP3    H136466   1.158   2.888   3.763 -1.4656  1.0265 -0.1131
 5017TIP3    H236467   1.289   2.954   3.798 -2.3116  2.4614  0.4862
 5018TIP3   OH236468   3.130   4.687  12.107 -0.5139 -0.9362  0.0551
 5018TIP3    H136469   3.070   4.752  12.142  0.5868 -0.2181  0.6752
 5018TIP3    H236470   3.079   4.640  12.041 -1.7944 -0.4817  0.6889
 5019TIP3   OH236471   1.792   4.234  13.272  0.5501  0.1905 -0.4961
 5019TIP3    H136472   1.885   4.211  13.272  0.0721 -2.0178  0.7861
 5019TIP3    H236473   1.788   4.319  13.315  1.8954 -0.0720  0.1822
 5020TIP3   OH236474   1.976   5.033   1.851 -0.5743  0.4602  0.0430
 5020TIP3    H136475   2.056   5.070   1.890  0.6212  0.6303 -2.3785
 5020TIP3    H236476   1.975   4.942   1.880 -0.6952  0.9802  1.8021
 5021TIP3   OH236477   2.451   0.224  14.662  0.5247 -0.1220  0.0840
 5021TIP3    H136478   2.442   0.144  14.610 -0.8412  0.9017 -1.3356
 5021TIP3    H236479   2.448   0.295  14.599 -0.9844  1.1803  1.5054
 5022TIP3   OH236480   6.121   0.621  13.827 -0.5068  0.0471  0.0469
 5022TIP3    H136481   6.138   0.572  13.908  2.7560 -0.3263 -0.7194
 5022TIP3    H236482   6.042   0.582  13.791  0.6085 -3.1326  0.6934
 5023TIP3   OH236483   2.317   5.277  14.798 -0.2380 -0.6023  0.0376
 5023TIP3    H136484   2.355   5.265  14.885 -0.2184 -0.5671  0.0341
 5023TIP3    H236485   2.280   5.366  14.800  0.1453 -0.4378 -0.1367
 5024TIP3   OH236486   4.230   5.044  15.946  0.2227 -0.9463  0.0937
 5024TIP3    H136487   4.258   5.070  16.034 -0.3431  0.6620 -0.1679
 5024TIP3    H236488   4.241   4.949  15.945  1.2442 -0.8866  1.5371
 5025TIP3   OH236489   2.661   6.098   6.723  0.5566  0.2438  0.4455
 5025TIP3    H136490   2.608   6.164   6.767 -0.5368  0.2754 -0.8443
 5025TIP3    H236491   2.603   6.061   6.657  1.7515 -0.6543 -0.1437
 5026TIP3   OH236492   0.439   0.495   0.886 -0.2564 -0.5631 -0.3882
 5026TIP3    H136493   0.445   0.428   0.955  1.1561  0.8041  0.8887
 5026TIP3    H236494   0.346   0.520   0.885 -0.3419 -0.7582  0.9019
 5027TIP3   OH236495   1.457   4.137   4.923 -0.2054 -0.2966 -0.2383
 5027TIP3    H136496   1.501   4.057   4.952 -0.7569 -0.3940  0.3456
 5027TIP3    H236497   1.514   4.171   4.854  0.8310 -0.3772  0.5485
 5028TIP3   OH236498   0.881   1.151   3.963  0.2682 -0.1467 -0.0428
 5028TIP3    H136499   0.968   1.130   3.996  0.0159 -0.1961  0.5912
 5028TIP3    H236500   0.896   1.217   3.895  0.6789  0.9173  1.0584
 5029TIP3   OH236501   4.153   2.151  14.225  0.3294  0.1857 -0.2519
 5029TIP3    H136502   4.189   2.147  14.313  1.2144  0.7229 -0.5764
 5029TIP3    H236503   4.117   2.240  14.218  0.1945  0.1197 -0.4063
 5030TIP3   OH236504   3.831   4.265   3.422 -0.0215 -0.1503 -0.0641
 5030TIP3    H136505   3.861   4.313   3.345 -2.5549  1.4043 -0.2027
 5030TIP3    H236506   3.803   4.180   3.387 -2.7555  1.1299 -1.3164
 5031TIP3   OH236507   4.312   0.733  17.116  0.4449 -0.2342  0.6795
 5031TIP3    H136508   4.221   0.761  17.105  0.6741  0.0259 -0.8985
 5031TIP3    H236509   4.312   0.641  17.091  1.0066  0.3999 -2.0087
 5032TIP3   OH236510   5.207   1.300   1.637 -0.2908  0.6611  0.1487
 5032TIP3    H136511   5.223   1.392   1.613 -0.1502  1.0869  1.7688
 5032TIP3    H236512   5.125   1.302   1.686  0.7238  0.2596  1.9397
 5033TIP3   OH236513   3.568   0.174  12.862  0.3963 -0.0383 -0.4293
 5033TIP3    H136514   3.555   0.136  12.775 -0.0884  2.0456 -1.3251
 5033TIP3    H236515   3.644   0.232  12.853  0.9291 -0.5014  0.8039
 5034TIP3   OH236516   3.762   0.178  12.472 -0.0269  0.3989  0.0928
 5034TIP3    H136517   3.766   0.248  12.537  4.2059  1.0459 -0.5965
 5034TIP3    H236518   3.777   0.222  12.388  0.2614 -1.0381 -0.6420
 5035TIP3   OH236519   3.707   6.472   5.604  0.1737 -0.0213 -0.3597
 5035TIP3    H136520   3.713   6.438   5.694  0.6490 -0.0116 -0.3852
 5035TIP3    H236521   3.749   6.404   5.550  1.0346  0.5406 -0.4237
 5036TIP3   OH236522   3.658   0.735  16.889 -0.2354  0.2400  0.1525
 5036TIP3    H136523   3.582   0.722  16.946  0.0581 -1.2559  0.2229
 5036TIP3    H236524   3.689   0.647  16.869 -0.0478  0.7381 -1.9575
 5037TIP3   OH236525   3.644   5.066  15.407 -0.5164  0.4196  0.0196
 5037TIP3    H136526   3.628   5.143  15.353  0.1428  1.6310  1.4794
 5037TIP3    H236527   3.644   5.099  15.497 -1.2660 -1.4631  0.7745
 5038TIP3   OH236528   1.918   3.431  14.162 -0.7467 -0.5638 -0.1535
 5038TIP3    H136529   1.826   3.452  14.152 -0.9143 -1.9988 -2.1354
 5038TIP3    H236530   1.918   3.343  14.200 -0.2345 -0.9555 -1.0289
 5039TIP3   OH236531   1.053   6.313   4.425  0.4384 -0.1844 -0.1562
 5039TIP3    H136532   1.100   6.344   4.347 -0.0264 -1.9492 -1.1868
 5039TIP3    H236533   0.961   6.332   4.406  0.3555 -0.3354  0.0952
 5040TIP3   OH236534   0.665   1.811   0.229  0.2789 -0.0506  0.2093
 5040TIP3    H136535   0.736   1.835   0.288  0.8641  1.1764 -0.9450
 5040TIP3    H236536   0.708   1.768   0.155 -0.2428  0.0849 -0.1813
 5041TIP3   OH236537   6.753   2.628  15.946  0.5806  0.3455 -0.1946
 5041TIP3    H136538   6.838   2.660  15.914  0.3421  1.9000  0.5997
 5041TIP3    H236539   6.761   2.633  16.041 -0.5781  1.0571 -0.1143
 5042TIP3   OH236540   4.780   6.000  15.623 -0.3095  0.2963  0.9764
 5042TIP3    H136541   4.699   5.968  15.583 -0.2051  1.4962 -0.2821
 5042TIP3    H236542   4.750   6.043  15.703 -1.0436  1.3231  0.1877
 5043TIP3   OH236543   1.426   0.488   2.525  0.0844 -0.2471  0.0096
 5043TIP3    H136544   1.442   0.548   2.452  0.7956  0.4465  0.7094
 5043TIP3    H236545   1.429   0.401   2.485  0.9437  0.0912 -0.7158
 5044TIP3   OH236546   0.288   2.188  14.797  0.6728  0.3539  0.6136
 5044TIP3    H136547   0.259   2.118  14.739  0.2525  0.2572  0.9359
 5044TIP3    H236548   0.332   2.143  14.869 -0.5933  0.3323  1.4029
 5045TIP3   OH236549   2.540   2.549   3.333 -0.1323  0.0675 -0.0767
 5045TIP3    H136550   2.547   2.502   3.416  1.1332  0.8319  0.2756
 5045TIP3    H236551   2.597   2.500   3.274  0.2736  0.4823 -0.0302
 5046TIP3   OH236552   5.580   5.148  13.896  0.6152  0.3953  0.3387
 5046TIP3    H136553   5.605   5.196  13.817  0.2585 -1.2081 -0.8030
 5046TIP3    H236554   5.492   5.115  13.876  0.4838  0.0405  1.4507
 5047TIP3   OH236555   5.368   0.182   5.619  0.2188  0.0915  0.2109
 5047TIP3    H136556   5.316   0.179   5.539  1.6833  1.2012 -0.8509
 5047TIP3    H236557   5.322   0.125   5.680 -1.9897  0.7091 -0.7822
 5048TIP3   OH236558   4.574   3.381  14.753 -0.0848  0.2996 -0.4264
 5048TIP3    H136559   4.522   3.377  14.673 -0.7230  0.5171 -0.0263
 5048TIP3    H236560   4.586   3.474  14.769  0.4767  0.2504 -0.5437
 5049TIP3   OH236561   4.943   2.627   4.823  0.2839 -0.3446  0.2143
 5049TIP3    H136562   5.005   2.615   4.751  0.3040  0.1993  0.1378
 5049TIP3    H236563   4.927   2.721   4.826 -0.8329 -0.5181 -0.0013
 5050TIP3   OH236564   6.490   4.310  15.515 -0.2026 -0.2548 -0.0575
 5050TIP3    H136565   6.465   4.348  15.430 -0.5897  0.1875  0.2466
 5050TIP3    H236566   6.529   4.383  15.563 -0.9206 -0.2350  0.5207
 5051TIP3   OH236567   0.614   4.158   3.465  0.2904 -0.0300 -0.0251
 5051TIP3    H136568   0.708   4.149   3.479  0.3284  0.8185  0.3303
 5051TIP3    H236569   0.607   4.205   3.381  0.2485  1.4861  0.7854
 5052TIP3   OH236570   2.921   6.547  12.434  1.0824 -0.0396 -0.3582
 5052TIP3    H136571   2.893   6.462  12.400 -0.2931  0.6976 -1.1613
 5052TIP3    H236572   2.888   6.610  12.370  2.6226  1.0742 -0.1119
 5053TIP3   OH236573   5.678   2.972   5.312 -0.8329 -0.0330  0.1454
 5053TIP3    H136574   5.607   2.933   5.362 -0.3299 -0.4527  0.5469
 5053TIP3    H236575   5.757   2.955   5.364 -0.6222  1.7181  0.4477
 5054TIP3   OH236576   6.350   0.374   2.228  0.3351 -0.0755  0.1203
 5054TIP3    H136577   6.437   0.360   2.265  0.0078  0.1141  0.9744
 5054TIP3    H236578   6.360   0.349   2.136  0.8804 -1.6820  0.5705
 5055TIP3   OH236579   3.564   1.729   6.055 -0.2613 -0.7402  0.0528
 5055TIP3    H136580   3.609   1.809   6.081 -1.2031  0.1887 -1.0605
 5055TIP3    H236581   3.593   1.663   6.119  2.3558 -0.1259 -0.4013
 5056TIP3   OH236582   0.481   3.556  12.877 -0.2301  0.1861  0.1460
 5056TIP3    H136583   0.408   3.537  12.936 -0.0598 -0.2765  0.2140
 5056TIP3    H236584   0.510   3.644  12.902  0.6169 -0.4517  1.5856
 5057TIP3   OH236585   2.420   3.224   4.913 -0.2501  0.0496  0.9840
 5057TIP3    H136586   2.490   3.160   4.906  0.6019  0.9590  1.0108
 5057TIP3    H236587   2.339   3.172   4.913  0.2854 -0.8864 -1.4565
 5058TIP3   OH236588   2.615   5.236   1.660  0.3746 -0.2935  0.0737
 5058TIP3    H136589   2.707   5.264   1.656  0.1456  0.3530 -1.0784
 5058TIP3    H236590   2.576   5.271   1.580 -0.2249 -2.9155 -0.8957
 5059TIP3   OH236591   4.722   1.216  16.945  0.1339 -0.3496  0.0876
 5059TIP3    H136592   4.723   1.303  16.986 -1.5054 -0.8229  1.2054
 5059TIP3    H236593   4.635   1.209  16.905  0.6450 -1.0750 -0.9679
 5060TIP3   OH236594   2.532   0.795  14.421  0.3674 -0.1888 -0.1649
 5060TIP3    H136595   2.610   0.847  14.441  0.7481 -0.4553 -0.9080
 5060TIP3    H236596   2.460   0.841  14.464  0.9839 -0.1518  0.8591
 5061TIP3   OH236597   4.591   4.916   5.851  0.2334  0.1162 -0.1643
 5061TIP3    H136598   4.596   4.866   5.932 -1.0041  2.2238  1.3013
 5061TIP3    H236599   4.568   5.004   5.878  1.8042  1.4169 -2.6731
 5062TIP3   OH236600   0.611   5.572  14.036 -0.1225 -0.7690 -0.1229
 5062TIP3    H136601   0.538   5.553  13.977  0.0540  1.0821 -0.9815
 5062TIP3    H236602   0.688   5.536  13.993 -0.2660 -1.1229 -0.0845
 5063TIP3   OH236603   2.311   5.665  12.591  0.2447  1.0591 -0.1144
 5063TIP3    H136604   2.282   5.575  12.610  0.7221  0.6908 -1.0317
 5063TIP3    H236605   2.263   5.720  12.652 -1.7047  0.3909 -0.9769
 5064TIP3   OH236606   1.225   4.526   2.185  0.2924 -0.6234 -0.0133
 5064TIP3    H136607   1.189   4.605   2.146  0.2111 -0.7865 -0.2717
 5064TIP3    H236608   1.288   4.557   2.249  1.1507 -0.3705 -0.9684
 5065TIP3   OH236609   5.597   3.613  16.649 -0.0895  0.8629  0.1395
 5065TIP3    H136610   5.645   3.589  16.570  0.6839  2.5160  0.0636
 5065TIP3    H236611   5.510   3.577  16.636  0.3150  0.2650 -1.0209
 5066TIP3   OH236612   6.356   4.482  12.713  0.2477  0.1719 -0.1142
 5066TIP3    H136613   6.411   4.538  12.658  0.6663 -0.6231 -0.5206
 5066TIP3    H236614   6.273   4.530  12.720 -0.0051  0.0670 -1.8814
 5067TIP3   OH236615   1.718   0.867   4.927 -0.1269 -0.0014 -0.4502
 5067TIP3    H136616   1.799   0.854   4.879 -0.8868 -2.3042 -1.2349
 5067TIP3    H236617   1.658   0.905   4.862 -0.2134 -0.0710 -0.4113
 5068TIP3   OH236618   2.050   3.342   4.624  0.1344 -0.1538 -0.1156
 5068TIP3    H136619   1.968   3.293   4.613  0.1049  0.0180 -0.6921
 5068TIP3    H236620   2.031   3.429   4.589  0.1664  0.3023  0.9778
 5069TIP3   OH236621   3.221   1.481   2.975 -0.1926  0.4324  0.6078
 5069TIP3    H136622   3.177   1.532   3.042 -0.4545  0.2239  0.5979
 5069TIP3    H236623   3.301   1.448   3.017  0.7237  2.0104  0.1941
 5070TIP3   OH236624   6.080   6.450   0.789  0.3977  0.3894 -0.7255
 5070TIP3    H136625   6.023   6.517   0.752 -0.6325  0.3403  0.6818
 5070TIP3    H236626   6.021   6.393   0.839  1.7759  0.9735  1.7396
 5071TIP3   OH236627   5.755   4.871   5.221  0.1562 -0.0014  0.4881
 5071TIP3    H136628   5.825   4.936   5.221  0.2020 -0.0430 -0.0214
 5071TIP3    H236629   5.678   4.919   5.190  0.3085 -0.3005 -0.3992
 5072TIP3   OH236630   6.408   2.590  15.037  0.4968 -0.4742 -0.4991
 5072TIP3    H136631   6.318   2.574  15.066  0.4628 -0.3261 -0.5241
 5072TIP3    H236632   6.436   2.507  14.998  0.6956 -0.8215  0.3479
 5073TIP3   OH236633   0.096   0.979   5.123  0.1526  0.5204  0.9724
 5073TIP3    H136634   0.121   0.892   5.154  0.8379  1.6747  3.9709
 5073TIP3    H236635   0.036   1.012   5.190 -3.1560  1.0354 -1.9331
 5074TIP3   OH236636   1.833   4.672  16.646  0.1906 -0.5880  0.0943
 5074TIP3    H136637   1.887   4.698  16.572  0.7124 -0.6720  0.4418
 5074TIP3    H236638   1.850   4.738  16.713 -0.2388 -0.5385  0.1557
 5075TIP3   OH236639   0.957   1.196  13.572 -0.1518 -0.0664  0.7764
 5075TIP3    H136640   0.898   1.251  13.624 -0.5598 -1.6682  2.0897
 5075TIP3    H236641   0.947   1.229  13.483 -0.7789  1.6232  1.4211
 5076TIP3   OH236642   5.723   1.888  15.970  0.0839  0.2862 -0.4708
 5076TIP3    H136643   5.669   1.810  15.956  2.2707 -1.2208 -0.9461
 5076TIP3    H236644   5.701   1.918  16.058 -1.3230 -0.4001 -0.5637
 5077TIP3   OH236645   3.480   2.156   4.196  0.0001  0.0580 -0.4954
 5077TIP3    H136646   3.529   2.229   4.235 -0.7584 -0.1288  0.8678
 5077TIP3    H236647   3.512   2.151   4.106 -1.8796  3.8342 -1.5251
 5078TIP3   OH236648   3.030   5.512   3.420 -0.2763 -0.0976  0.5613
 5078TIP3    H136649   2.953   5.522   3.476 -1.5541  1.1883 -1.3016
 5078TIP3    H236650   3.099   5.484   3.480 -1.8817 -0.1484  2.5166
 5079TIP3   OH236651   6.464   6.654  14.847 -0.1634  0.1614  0.1775
 5079TIP3    H136652   6.558   6.639  14.835 -0.5733 -0.7510 -2.7240
 5079TIP3    H236653   6.422   6.585  14.796 -2.3948  1.2602  0.3918
 5080TIP3   OH236654   5.472   6.048   1.896  0.1990  0.3315  0.1963
 5080TIP3    H136655   5.503   6.064   1.807 -0.5165  1.2764  0.1023
 5080TIP3    H236656   5.385   6.088   1.899 -0.1389 -0.4249  1.0750
 5081TIP3   OH236657   6.739   1.314  13.817 -0.7216 -0.4930  0.9308
 5081TIP3    H136658   6.694   1.388  13.774 -1.0578 -0.8474  0.6633
 5081TIP3    H236659   6.677   1.241  13.809  0.0063 -1.0609  0.3259
 5082TIP3   OH236660   1.837   2.100  16.497  0.1050  0.1367 -0.5938
 5082TIP3    H136661   1.861   2.036  16.429 -1.0807  0.1021 -0.9989
 5082TIP3    H236662   1.905   2.167  16.491  0.0954  0.0702 -1.7427
 5083TIP3   OH236663   1.579   1.203  13.585  0.0381 -0.2927  0.6168
 5083TIP3    H136664   1.593   1.290  13.549  2.5691 -0.6225  0.6372
 5083TIP3    H236665   1.610   1.208  13.675 -0.0678 -1.1446  0.7135
 5084TIP3   OH236666   3.405   1.642  13.173 -0.9259  0.3327  0.0214
 5084TIP3    H136667   3.322   1.606  13.204 -1.0618  1.4265  0.9576
 5084TIP3    H236668   3.471   1.583  13.208 -1.2734 -0.4655 -0.6138
 5085TIP3   OH236669   6.769   6.705  17.206  0.3495 -0.2503  0.1036
 5085TIP3    H136670   6.769   6.661  17.121 -0.4595 -0.1260  0.0317
 5085TIP3    H236671   6.797   6.638  17.267  2.2567  0.0084 -0.4159
 5086TIP3   OH236672   5.801   5.263  12.083 -0.1757 -0.3253 -0.5436
 5086TIP3    H136673   5.874   5.253  12.021  0.1822 -3.3948  0.2266
 5086TIP3    H236674   5.813   5.351  12.119  1.7857  0.1230 -2.0933
 5087TIP3   OH236675   5.617   5.979  12.054 -0.6097 -0.5151  0.4998
 5087TIP3    H136676   5.538   5.930  12.030 -1.4423  0.9684  0.1072
 5087TIP3    H236677   5.590   6.038  12.124  0.1535 -0.0048  0.3843
 5088TIP3   OH236678   5.208   4.612   2.972 -0.4680 -0.3375  0.2529
 5088TIP3    H136679   5.272   4.617   3.042 -1.5910  0.1334  1.2757
 5088TIP3    H236680   5.202   4.519   2.952  2.1959 -0.2492 -1.5010
 5089TIP3   OH236681   0.795   4.435  15.986  0.7245  0.5656  0.6040
 5089TIP3    H136682   0.780   4.364  16.048  1.8562  0.4864  0.8138
 5089TIP3    H236683   0.758   4.512  16.028 -0.1203  0.1856  0.5696
 5090TIP3   OH236684   6.574   0.636   2.180 -0.6339 -0.4337  0.2469
 5090TIP3    H136685   6.556   0.684   2.261 -1.2082  0.5292 -0.4311
 5090TIP3    H236686   6.643   0.686   2.137 -1.5812  0.0993 -0.7054
 5091TIP3   OH236687   4.004   0.983  13.688  0.7300 -0.3047 -0.1343
 5091TIP3    H136688   3.985   1.018  13.601 -0.2163 -0.8620 -0.1709
 5091TIP3    H236689   3.984   0.890  13.681 -0.6408 -0.1368  1.0173
 5092TIP3   OH236690   6.529   1.840   1.604  0.1502 -0.4918  0.5735
 5092TIP3    H136691   6.439   1.848   1.634 -0.1631  0.1217 -0.4850
 5092TIP3    H236692   6.525   1.856   1.510  1.4449  0.1906  0.6098
 5093TIP3   OH236693   4.235   4.308   6.305 -0.3596  0.2233 -0.1053
 5093TIP3    H136694   4.145   4.334   6.324 -0.4638 -1.5951  2.3124
 5093TIP3    H236695   4.289   4.370   6.354 -0.3752  0.2205 -0.0845
 5094TIP3   OH236696   3.823   3.035   2.962  0.0766  0.1264  0.4901
 5094TIP3    H136697   3.839   3.010   3.053  1.3479 -2.6425 -0.4066
 5094TIP3    H236698   3.748   3.095   2.967 -0.5692 -0.7522  3.2361
 5095TIP3   OH236699   4.216   0.943   5.168  0.5108 -0.2012 -0.7037
 5095TIP3    H136700   4.153   0.912   5.103  0.8400 -1.6461 -0.3618
 5095TIP3    H236701   4.246   1.027   5.134  0.4202 -0.7690 -2.2484
 5096TIP3   OH236702   6.157   2.119   4.075 -0.1192  0.4948  0.0239
 5096TIP3    H136703   6.108   2.050   4.030  0.1372 -0.0513  0.5691
 5096TIP3    H236704   6.249   2.094   4.066  0.2221  2.2288 -2.1988
 5097TIP3   OH236705   4.613   0.613  14.324  0.0348  0.2431 -0.0763
 5097TIP3    H136706   4.698   0.603  14.282  0.5016 -0.0212  0.8883
 5097TIP3    H236707   4.559   0.544  14.285  0.1542  0.6423 -0.9513
 5098TIP3   OH236708   2.607   4.394   2.284 -0.1959  0.0846 -0.1169
 5098TIP3    H136709   2.660   4.349   2.350  0.6442  0.4096 -0.5485
 5098TIP3    H236710   2.526   4.418   2.329  1.6034  3.2043  1.8304
 5099TIP3   OH236711   4.985   0.821  13.780  0.1259  0.3601 -0.1449
 5099TIP3    H136712   4.989   0.901  13.833 -0.5738  0.2992 -0.0013
 5099TIP3    H236713   4.916   0.837  13.717 -0.7150 -0.5229  0.5327
 5100TIP3   OH236714   3.323   3.130   2.820 -0.2896  0.4322 -0.3216
 5100TIP3    H136715   3.265   3.206   2.818 -0.4150  0.3166 -1.4319
 5100TIP3    H236716   3.286   3.070   2.756 -0.5749 -0.8695  1.0072
 5101TIP3   OH236717   3.996   1.624   5.738 -0.1250  0.5861  0.4751
 5101TIP3    H136718   4.035   1.554   5.791  0.3942 -0.2855 -0.9775
 5101TIP3    H236719   3.923   1.656   5.790 -0.1642 -0.8235  1.3512
 5102TIP3   OH236720   2.612   3.353  11.569  0.3047  0.0934 -0.2567
 5102TIP3    H136721   2.704   3.382  11.569  0.8948 -1.6868 -0.7470
 5102TIP3    H236722   2.602   3.306  11.487 -0.2710 -2.0454  0.9809
 5103TIP3   OH236723   0.183   0.987  15.027 -0.0798  0.9285  0.3520
 5103TIP3    H136724   0.230   1.070  15.036 -0.6796  1.0956  2.3980
 5103TIP3    H236725   0.236   0.936  14.966  2.6174  1.2119  2.3043
 5104TIP3   OH236726   6.742   6.445  15.085  0.8599  0.0157 -0.1185
 5104TIP3    H136727   6.698   6.388  15.021  0.0694  0.0880  0.3471
 5104TIP3    H236728   6.834   6.419  15.080  1.1236  1.0936 -2.4272
 5105TIP3   OH236729   4.580   5.470   2.674 -0.0598 -0.5552 -0.0556
 5105TIP3    H136730   4.491   5.467   2.639  0.4299 -1.6784 -1.2670
 5105TIP3    H236731   4.575   5.423   2.757 -0.9257  0.8488  0.7242
 5106TIP3   OH236732   5.119   2.371   4.935  0.4295 -0.5618 -0.3432
 5106TIP3    H136733   5.205   2.357   4.974 -0.3924 -1.6098  1.1507
 5106TIP3    H236734   5.066   2.409   5.005 -0.9454 -2.0427 -0.5207
 5107TIP3   OH236735   4.065   1.686  13.197  0.4274  0.1168 -0.0601
 5107TIP3    H136736   4.047   1.651  13.110  0.4696  1.0570 -0.4623
 5107TIP3    H236737   3.991   1.657  13.250 -0.7215  1.3061 -0.9305
 5108TIP3   OH236738   5.035   0.367   6.076 -0.4157  0.4215  0.8424
 5108TIP3    H136739   5.005   0.383   5.986  1.9596 -1.2751 -0.3794
 5108TIP3    H236740   4.962   0.394   6.131 -1.7465  2.1035 -1.5509
 5109TIP3   OH236741   0.505   4.734  14.790 -0.3360 -0.6649 -0.2552
 5109TIP3    H136742   0.416   4.701  14.797 -0.6478  0.2220  0.0471
 5109TIP3    H236743   0.498   4.828  14.807  0.8205 -0.7788  1.0121
 5110TIP3   OH236744   5.345   3.358  15.042 -0.1883 -0.5156  0.1359
 5110TIP3    H136745   5.311   3.324  14.959  0.2787 -0.4058 -0.1106
 5110TIP3    H236746   5.426   3.403  15.017  0.6557 -1.5974  0.8182
 5111TIP3   OH236747   4.783   4.062   5.225 -0.0869 -0.0840  0.7511
 5111TIP3    H136748   4.715   3.995   5.218  0.1306 -0.1861 -0.7524
 5111TIP3    H236749   4.864   4.012   5.232 -0.0249  0.0247  0.8068
 5112TIP3   OH236750   6.256   1.985   0.981  0.3411  0.2918  0.1479
 5112TIP3    H136751   6.307   2.024   1.052 -0.8528  1.3570  0.4620
 5112TIP3    H236752   6.231   1.899   1.013 -2.5241  1.7465  2.2941
 5113TIP3   OH236753   4.652   1.857   1.551 -0.0637  0.0873  0.3178
 5113TIP3    H136754   4.580   1.883   1.608 -1.9303 -3.6240 -0.0088
 5113TIP3    H236755   4.730   1.866   1.606 -0.9842  2.1768  1.4077
 5114TIP3   OH236756   0.635   5.578   3.982 -0.1721 -0.2754 -0.3781
 5114TIP3    H136757   0.648   5.493   3.939 -0.2119 -0.2289 -0.4813
 5114TIP3    H236758   0.542   5.579   4.006  0.3315 -1.2735  1.7641
 5115TIP3   OH236759   0.572   0.154   5.039  0.0344  0.4573 -0.1765
 5115TIP3    H136760   0.636   0.127   4.973 -0.0825  0.2448 -0.2028
 5115TIP3    H236761   0.588   0.248   5.050 -1.1419  0.9036 -1.8310
 5116TIP3   OH236762   2.651   0.733  11.485 -0.2729  0.8588 -0.2685
 5116TIP3    H136763   2.613   0.817  11.459  0.4519  0.7948 -1.5931
 5116TIP3    H236764   2.731   0.725  11.433  1.0460  0.5103  1.6787
 5117TIP3   OH236765   4.180   1.268  12.059  0.5100 -0.2039 -0.0443
 5117TIP3    H136766   4.159   1.227  11.975  2.6554  0.9865 -1.2470
 5117TIP3    H236767   4.106   1.327  12.075  1.0171  1.1504 -2.2455
 5118TIP3   OH236768   1.482   1.652   1.746 -0.5156 -0.3397  0.3786
 5118TIP3    H136769   1.462   1.620   1.658 -0.4727 -0.6821  0.4890
 5118TIP3    H236770   1.550   1.592   1.777 -0.3415 -0.0587  0.5444
 5119TIP3   OH236771   2.496   1.951   0.192  0.3782 -1.4994  0.3360
 5119TIP3    H136772   2.510   1.946   0.287 -0.9290 -1.3233  0.5550
 5119TIP3    H236773   2.454   1.868   0.170 -0.3072 -1.0990  0.1023
 5120TIP3   OH236774   5.518   2.386  17.098  0.1779  0.0683 -0.2845
 5120TIP3    H136775   5.500   2.302  17.140  0.7559 -1.0710 -2.1923
 5120TIP3    H236776   5.462   2.449  17.143 -0.8336 -1.4851  0.6839
 5121TIP3   OH236777   4.546   5.870  13.941 -0.2532 -0.7846 -0.0322
 5121TIP3    H136778   4.487   5.801  13.972 -0.3965 -0.6707 -0.0493
 5121TIP3    H236779   4.516   5.949  13.986 -0.4623 -0.6194 -0.4605
 5122TIP3   OH236780   2.541   2.880  14.326 -0.0936  0.3266  0.2703
 5122TIP3    H136781   2.459   2.911  14.366 -0.0007 -0.2465  0.9282
 5122TIP3    H236782   2.598   2.861  14.400  0.1158 -0.6899 -0.1302
 5123TIP3   OH236783   5.631   0.180  12.896 -0.1296 -0.5243 -0.6566
 5123TIP3    H136784   5.668   0.257  12.939 -0.8414 -0.7480  0.4091
 5123TIP3    H236785   5.558   0.153  12.953 -0.1061 -1.7820 -1.1776
 5124TIP3   OH236786   6.756   3.398  14.772  0.5918 -0.8032 -0.3400
 5124TIP3    H136787   6.837   3.381  14.819  0.0930  1.3330  1.4477
 5124TIP3    H236788   6.771   3.481  14.728 -1.1423  0.5577  1.4642
 5125TIP3   OH236789   1.528   0.429   3.545 -0.2279  0.6432 -0.0909
 5125TIP3    H136790   1.554   0.402   3.457 -0.4706 -0.9397  0.2954
 5125TIP3    H236791   1.499   0.520   3.534  0.2592  0.6591 -1.5311
 5126TIP3   OH236792   1.575   1.034  14.211  0.0959 -0.0374  0.2950
 5126TIP3    H136793   1.565   0.974  14.138 -0.0877  2.6715 -2.0515
 5126TIP3    H236794   1.583   1.121  14.171 -0.0882  1.6148  3.4857
 5127TIP3   OH236795   5.809   3.368   0.780 -0.0921  0.5143  0.2398
 5127TIP3    H136796   5.826   3.429   0.707  0.9910  0.3995  0.3730
 5127TIP3    H236797   5.882   3.383   0.840  0.7058 -1.5798 -0.1588
 5128TIP3   OH236798   3.656   3.392  15.139 -0.0659  0.2009 -0.0682
 5128TIP3    H136799   3.745   3.386  15.174  0.4660  0.4150 -1.3369
 5128TIP3    H236800   3.652   3.322  15.073 -1.2074 -0.5269  0.7495
 5129TIP3   OH236801   1.461   1.044  11.876 -0.8296 -0.6152  0.4382
 5129TIP3    H136802   1.479   1.136  11.896 -1.7825 -0.4924  0.7555
 5129TIP3    H236803   1.548   1.004  11.869 -0.3606  0.5564 -0.9540
 5130TIP3   OH236804   2.798   4.605   4.990  0.2075  0.3578 -0.0538
 5130TIP3    H136805   2.871   4.629   4.933 -1.3689  2.4344 -1.3470
 5130TIP3    H236806   2.757   4.530   4.947  1.0721 -0.3009  0.2529
 5131TIP3   OH236807   2.494   2.092  14.719 -0.6160  1.0292 -0.8702
 5131TIP3    H136808   2.485   2.101  14.813 -1.1971 -0.0142 -0.8094
 5131TIP3    H236809   2.588   2.099  14.703 -0.2471 -0.9341  0.0682
 5132TIP3   OH236810   6.228   1.709  11.092 -0.1225 -0.1584 -0.4496
 5132TIP3    H136811   6.192   1.622  11.073  0.3313 -0.8487  1.6325
 5132TIP3    H236812   6.320   1.703  11.066 -0.2116 -0.1108 -0.7881
 5133TIP3   OH236813   1.806   2.247  12.014  0.1128  0.7462  0.2315
 5133TIP3    H136814   1.868   2.204  11.954  1.2324  1.1138  1.1051
 5133TIP3    H236815   1.745   2.177  12.039 -0.9709  0.7796 -2.0331
 5134TIP3   OH236816   4.519   6.133   2.511  0.1476  0.4056 -0.9422
 5134TIP3    H136817   4.534   6.209   2.455 -0.0012  1.0618 -0.1201
 5134TIP3    H236818   4.541   6.163   2.599 -2.4248  0.3613 -0.1832
 5135TIP3   OH236819   1.486   1.761  14.089  0.2751 -0.3421 -0.2909
 5135TIP3    H136820   1.515   1.726  14.173 -0.0103 -1.2774 -0.5766
 5135TIP3    H236821   1.390   1.759  14.094  0.2564 -0.4293 -0.6515
 5136TIP3   OH236822   4.028   4.531   4.440  0.0159 -0.2181 -0.3573
 5136TIP3    H136823   4.017   4.586   4.362  1.3293 -0.6195 -0.8540
 5136TIP3    H236824   4.120   4.543   4.465 -1.0056  2.2970  2.9966
 5137TIP3   OH236825   6.386   2.197   5.972 -0.2973  0.1007  0.2043
 5137TIP3    H136826   6.312   2.248   5.938  0.1465  0.3720 -0.3631
 5137TIP3    H236827   6.440   2.260   6.018 -0.4464 -0.1136  0.6871
 5138TIP3   OH236828   1.550   5.245   5.268  0.2137 -0.6419  0.4679
 5138TIP3    H136829   1.557   5.193   5.188 -1.0106 -0.3567  0.1570
 5138TIP3    H236830   1.569   5.183   5.339  0.2225 -1.1578  0.0189
 5139TIP3   OH236831   1.981   1.930  15.276 -0.5873  0.0552 -0.1092
 5139TIP3    H136832   1.984   1.877  15.196  0.1326 -0.7813  0.4577
 5139TIP3    H236833   2.028   1.878  15.341 -0.0759  1.2908  0.5314
 5140TIP3   OH236834   2.027   4.115  17.210 -0.2281 -0.7906  0.5547
 5140TIP3    H136835   2.087   4.181  17.244  0.1644 -1.2703  0.8086
 5140TIP3    H236836   2.079   4.035  17.207 -0.3208 -0.8344 -0.9255
 5141TIP3   OH236837   0.045   2.218  11.162 -0.1402  0.5719 -0.1762
 5141TIP3    H136838   0.140   2.228  11.171 -0.2904  0.6974  1.5694
 5141TIP3    H236839   0.028   2.127  11.187 -0.5410  0.7453  0.2014
 5142TIP3   OH236840   2.589   0.157  13.224 -0.0839 -0.7564 -0.1375
 5142TIP3    H136841   2.645   0.081  13.208 -0.2127 -0.7718 -0.5263
 5142TIP3    H236842   2.568   0.191  13.137  0.3583  0.0120  0.0486
 5143TIP3   OH236843   4.347   4.801   1.837 -0.2176 -0.0693 -0.4099
 5143TIP3    H136844   4.358   4.746   1.915 -0.8853 -1.0564 -0.9871
 5143TIP3    H236845   4.254   4.794   1.816 -0.0007 -0.0188 -1.4350
 5144TIP3   OH236846   5.696   2.213  17.344 -0.3312  0.8453  0.4877
 5144TIP3    H136847   5.748   2.289  17.316  1.0471 -0.2615 -0.0361
 5144TIP3    H236848   5.671   2.170  17.263  2.3792 -1.5097  0.7271
 5145TIP3   OH236849   1.254   0.130   1.277  0.0025 -0.1398  0.5230
 5145TIP3    H136850   1.307   0.209   1.263  1.0181 -0.7694  0.7125
 5145TIP3    H236851   1.313   0.057   1.257 -1.2432 -0.8513 -0.7265
 5146TIP3   OH236852   4.123   3.091  13.753  0.4808 -0.3313 -0.5898
 5146TIP3    H136853   4.184   3.107  13.682  0.3420  0.9995 -0.4451
 5146TIP3    H236854   4.177   3.058  13.825  0.6937 -1.1745 -1.1260
 5147TIP3   OH236855   1.662   4.360   2.968 -0.4673  0.3602 -0.2497
 5147TIP3    H136856   1.749   4.388   2.996 -0.6919  1.2217 -0.3982
 5147TIP3    H236857   1.627   4.311   3.043  0.5968 -1.0317 -0.6256
 5148TIP3   OH236858   5.459   0.194  14.907  0.2979 -0.4479  0.1556
 5148TIP3    H136859   5.363   0.185  14.908  0.4309 -2.2423  0.1291
 5148TIP3    H236860   5.490   0.133  14.973  1.5123 -1.5286 -1.3400
 5149TIP3   OH236861   5.148   0.335  16.009 -0.0740  0.1658  0.5939
 5149TIP3    H136862   5.151   0.314  16.102 -1.9265 -1.1475  0.4288
 5149TIP3    H236863   5.059   0.312  15.982  0.0045  1.7462 -1.2320
 5150TIP3   OH236864   0.562   6.373  13.194 -0.1451  0.5548 -0.7718
 5150TIP3    H136865   0.566   6.439  13.263  0.1101 -0.4557  0.2148
 5150TIP3    H236866   0.537   6.421  13.115  0.3260  1.8672 -0.1438
 5151TIP3   OH236867   2.277   3.375   5.406  1.0001  0.0441  1.2054
 5151TIP3    H136868   2.223   3.451   5.383  1.0816  0.1052  1.2157
 5151TIP3    H236869   2.321   3.352   5.324  1.8032  0.6714  1.4472
 5152TIP3   OH236870   0.672   3.617   3.326 -0.5885  0.0846  0.2816
 5152TIP3    H136871   0.656   3.691   3.267 -2.0534  0.3450  0.9772
 5152TIP3    H236872   0.702   3.547   3.268  1.2123  1.2869 -0.3510
 5153TIP3   OH236873   6.506   0.972   1.563  0.2242 -0.7960 -0.7944
 5153TIP3    H136874   6.563   0.901   1.532 -0.6136 -1.7624 -0.1891
 5153TIP3    H236875   6.419   0.950   1.531 -0.2027 -0.5019  0.1076
 5154TIP3   OH236876   0.776   6.313  17.291 -0.2432 -0.1693 -0.4205
 5154TIP3    H136877   0.798   6.387  17.348  0.8709 -0.2093 -0.7813
 5154TIP3    H236878   0.839   6.319  17.219 -2.7596  1.0129 -2.7194
 5155TIP3   OH236879   6.158   6.703   3.994  0.1508  0.1714  0.8251
 5155TIP3    H136880   6.083   6.749   3.957  0.2987 -0.3674 -0.1595
 5155TIP3    H236881   6.124   6.661   4.073 -0.9383 -1.1186 -0.2762
 5156TIP3   OH236882   2.909   2.213   0.219 -0.3995 -0.0684 -0.1468
 5156TIP3    H136883   2.938   2.303   0.235  2.0875 -1.1081  2.0546
 5156TIP3    H236884   2.816   2.213   0.242 -0.3578  1.8289  0.1732
 5157TIP3   OH236885   1.924   5.435  14.391  0.2388 -0.4416  0.8474
 5157TIP3    H136886   1.928   5.341  14.408  0.9613 -0.2255  2.0404
 5157TIP3    H236887   2.013   5.458  14.365 -0.6834 -0.6536 -3.1702
 5158TIP3   OH236888   0.210   1.828   2.875 -0.8702 -0.2728  0.3738
 5158TIP3    H136889   0.186   1.896   2.938 -2.7559 -1.5063  1.0838
 5158TIP3    H236890   0.191   1.867   2.789 -0.2161  0.7076  0.6649
 5159TIP3   OH236891   3.251   6.099  12.374  0.2196  0.1263  0.4838
 5159TIP3    H136892   3.254   6.017  12.424  0.2517 -0.2302 -0.0892
 5159TIP3    H236893   3.286   6.165  12.433  0.0442 -0.2482  1.0090
 5160TIP3   OH236894   3.568   4.324   2.044 -0.6437  0.0271 -0.0624
 5160TIP3    H136895   3.503   4.365   1.987 -0.4185 -0.2022 -0.4922
 5160TIP3    H236896   3.577   4.384   2.118 -1.5920 -0.1024  0.1746
 5161TIP3   OH236897   5.756   4.454   5.608  0.3043  0.1535  0.2577
 5161TIP3    H136898   5.776   4.547   5.612 -2.4789  0.8076  0.7989
 5161TIP3    H236899   5.746   4.436   5.514 -0.3576  0.6873  0.2221
 5162TIP3   OH236900   0.735   1.779  13.354  0.0104  0.1413 -0.0584
 5162TIP3    H136901   0.802   1.724  13.313  0.9623  0.8265  0.5575
 5162TIP3    H236902   0.753   1.867  13.322  0.0201  0.4924  0.8779
 5163TIP3   OH236903   1.709   5.340   6.849 -0.3217  0.5221 -0.1070
 5163TIP3    H136904   1.619   5.369   6.837 -0.1876  0.8260 -0.3830
 5163TIP3    H236905   1.762   5.416   6.826 -0.0282  0.8193  1.4606
 5164TIP3   OH236906   1.975   6.771  12.644 -0.0069 -0.3675  0.4892
 5164TIP3    H136907   2.000   6.852  12.599  1.9891 -1.1220  0.1375
 5164TIP3    H236908   1.911   6.799  12.709 -1.6048  1.0301 -1.5610
 5165TIP3   OH236909   4.642   3.738  13.175 -0.1896  0.1862 -0.2357
 5165TIP3    H136910   4.705   3.723  13.246 -1.3757  0.0411  0.8243
 5165TIP3    H236911   4.680   3.694  13.099  0.2284 -1.2624  0.7731
 5166TIP3   OH236912   2.818   0.622  16.786  0.3265  0.2878 -0.2834
 5166TIP3    H136913   2.771   0.654  16.709 -0.0245 -2.2231 -1.2068
 5166TIP3    H236914   2.908   0.610  16.756  0.6337  1.1428  0.2767
 5167TIP3   OH236915   2.580   5.134   2.485 -0.2418 -0.3678  0.4255
 5167TIP3    H136916   2.498   5.088   2.504 -1.4054  1.4266  0.0600
 5167TIP3    H236917   2.593   5.122   2.391 -0.4145 -0.1523  0.3740
 5168TIP3   OH236918   0.658   2.817   5.614  0.2408 -0.2815 -0.7643
 5168TIP3    H136919   0.619   2.891   5.661  1.3224 -0.2788  0.1534
 5168TIP3    H236920   0.752   2.836   5.612  0.4478 -1.2833 -1.1401
 5169TIP3   OH236921   4.072   0.604  14.835  0.4775 -0.3705  0.2988
 5169TIP3    H136922   4.068   0.630  14.743  0.0230  0.0220  0.4237
 5169TIP3    H236923   4.165   0.593  14.853  0.6826  0.9937  0.1781
 5170TIP3   OH236924   2.314   5.502   4.710 -0.0789 -0.4997 -0.4823
 5170TIP3    H136925   2.228   5.469   4.685  0.1375 -0.9474 -0.6529
 5170TIP3    H236926   2.296   5.573   4.771 -0.5803 -0.2371 -0.9325
 5171TIP3   OH236927   2.318   0.957  11.847 -0.1819  0.1219  0.3125
 5171TIP3    H136928   2.360   0.893  11.904  0.3643 -1.3598 -1.6364
 5171TIP3    H236929   2.390   1.003  11.804 -0.4776 -1.1068 -1.6133
 5172TIP3   OH236930   2.818   1.128  15.621  0.6087  0.2784 -0.3879
 5172TIP3    H136931   2.843   1.119  15.713 -0.6698 -0.7294 -0.1006
 5172TIP3    H236932   2.900   1.119  15.573  1.0996 -0.8745  0.5818
 5173TIP3   OH236933   5.136   0.448  14.407  0.0148  0.1662 -0.5286
 5173TIP3    H136934   5.225   0.463  14.436  0.2928 -0.0742 -1.2335
 5173TIP3    H236935   5.112   0.527  14.359 -0.4121  0.5291  0.2727
 5174TIP3   OH236936   0.293   2.701   0.775 -0.0709  0.1600 -0.4068
 5174TIP3    H136937   0.356   2.647   0.728  0.7424  1.3054 -0.6554
 5174TIP3    H236938   0.316   2.791   0.753 -1.3137  0.6360  0.1135
 5175TIP3   OH236939   5.652   1.584  13.194 -0.1921 -0.0945 -0.5338
 5175TIP3    H136940   5.558   1.596  13.207 -0.2395  0.5871 -1.3749
 5175TIP3    H236941   5.659   1.531  13.115  0.1224 -0.8501 -0.0016
 5176TIP3   OH236942   0.310   2.262   4.055 -0.0786 -0.6064 -0.1566
 5176TIP3    H136943   0.367   2.300   4.122  0.7090  0.2264 -1.2843
 5176TIP3    H236944   0.249   2.207   4.105 -0.7933  1.5326  1.4434
 5177TIP3   OH236945   0.965   2.909  13.874 -0.7697  0.1043  0.1921
 5177TIP3    H136946   0.961   2.948  13.961 -0.2214  1.9834 -0.5631
 5177TIP3    H236947   0.918   2.971  13.818 -0.9235 -0.9445 -0.8982
 5178TIP3   OH236948   0.126   6.739  12.517 -0.3367 -0.5911 -0.2148
 5178TIP3    H136949   0.075   6.819  12.499  1.1012  0.1376 -1.3177
 5178TIP3    H236950   0.140   6.701  12.430 -0.2131 -1.5514  0.2194
 5179TIP3   OH236951   1.132   2.432   3.606 -0.1024  0.3917 -0.6188
 5179TIP3    H136952   1.225   2.450   3.593 -0.5880  2.2646 -1.9429
 5179TIP3    H236953   1.125   2.337   3.606  1.9754  0.1642  1.0194
 5180TIP3   OH236954   6.173   6.644   3.523 -0.0998 -0.1443 -0.1474
 5180TIP3    H136955   6.157   6.603   3.608  0.7191 -0.4727 -0.1399
 5180TIP3    H236956   6.191   6.736   3.544  1.7602 -0.5574  0.2278
 5181TIP3   OH236957   3.865   5.447  15.197 -0.1629  0.1891  0.0134
 5181TIP3    H136958   3.786   5.394  15.195  0.7168 -1.2094  0.5462
 5181TIP3    H236959   3.932   5.392  15.157  0.9575  0.6030  1.2271
 5182TIP3   OH236960   1.450   6.632  13.046 -0.1841 -0.4932  0.2806
 5182TIP3    H136961   1.491   6.580  13.116 -2.2527 -2.3231  0.2207
 5182TIP3    H236962   1.364   6.593  13.033 -0.6872  1.1127 -1.8958
 5183TIP3   OH236963   6.167   6.263  10.650 -0.6202  0.2521 -0.0508
 5183TIP3    H136964   6.233   6.326  10.680 -0.7153 -0.2703  1.3151
 5183TIP3    H236965   6.218   6.186  10.623 -0.5642  0.5557 -0.8374
 5184TIP3   OH236966   0.336   0.565   0.315 -0.8967  0.3058  0.7427
 5184TIP3    H136967   0.384   0.517   0.248  1.6980  0.8898  2.0432
 5184TIP3    H236968   0.283   0.498   0.359 -0.8182 -0.5072 -0.3627
 5185TIP3   OH236969   0.932   2.539  13.697 -0.1485 -0.6328  0.0713
 5185TIP3    H136970   0.849   2.536  13.744 -0.0610 -0.6853  0.2243
 5185TIP3    H236971   0.998   2.550  13.766  0.1569 -2.6613  0.1846
 5186TIP3   OH236972   2.630   4.127   0.723 -0.5782 -0.1603  0.0396
 5186TIP3    H136973   2.643   4.107   0.630 -1.0128 -0.1009 -0.0359
 5186TIP3    H236974   2.535   4.137   0.732 -0.4708  0.6417  0.3239
 5187TIP3   OH236975   5.739   6.087   5.782 -0.0354  0.7588 -0.3001
 5187TIP3    H136976   5.760   6.131   5.700 -0.5852  1.0452 -0.2938
 5187TIP3    H236977   5.718   6.159   5.843  1.8364  0.6553  0.5405
 5188TIP3   OH236978   1.508   5.416   0.351 -0.0242 -0.6840  0.4925
 5188TIP3    H136979   1.528   5.453   0.264 -1.5616 -1.8956 -0.4230
 5188TIP3    H236980   1.566   5.463   0.410  0.4570  0.8118 -1.0710
 5189TIP3   OH236981   5.310   0.101  16.004  0.0139  0.5849 -0.1494
 5189TIP3    H136982   5.316   0.066  16.092  0.2656  2.0570  0.4427
 5189TIP3    H236983   5.240   0.166  16.008 -0.8631 -0.2224 -1.3676
 5190TIP3   OH236984   6.327   5.610   0.432  0.1390 -0.5548 -0.1256
 5190TIP3    H136985   6.365   5.601   0.519  0.6699 -1.1434 -0.4114
 5190TIP3    H236986   6.386   5.670   0.386  0.5375 -1.1769 -0.4494
 5191TIP3   OH236987   4.957   2.873  16.804 -0.4394  0.0230  0.2144
 5191TIP3    H136988   4.977   2.914  16.720 -3.2610  2.1035  0.3977
 5191TIP3    H236989   4.981   2.938  16.870  1.5959 -1.5263  1.1074
 5192TIP3   OH236990   2.373   3.060   3.967  0.6765 -0.2036  0.0992
 5192TIP3    H136991   2.308   3.038   3.901  1.5490 -1.2118 -0.4473
 5192TIP3    H236992   2.426   2.981   3.977  1.6040  0.4747  0.7826
 5193TIP3   OH236993   5.210   1.458  14.519  0.0130 -0.0642 -0.7726
 5193TIP3    H136994   5.208   1.553  14.522  1.7371  0.0008 -1.0211
 5193TIP3    H236995   5.302   1.435  14.526 -0.5638 -1.8990  3.2542
 5194TIP3   OH236996   0.165   6.728   2.134  0.3237  0.3406 -0.0437
 5194TIP3    H136997   0.141   6.812   2.174  1.8354  1.1109 -0.6765
 5194TIP3    H236998   0.082   6.679   2.130 -0.9486  2.4040 -1.1353
 5195TIP3   OH236999   0.158   2.660   0.235 -0.4596 -0.1447  0.2278
 5195TIP3    H137000   0.208   2.579   0.235  0.3777  0.3422  0.9959
 5195TIP3    H237001   0.125   2.667   0.325 -0.9649  0.1044  0.0255
 5196TIP3   OH237002   4.129   4.770   1.486  0.4094 -0.1973 -0.2444
 5196TIP3    H137003   4.065   4.841   1.483  0.2777 -0.2889  0.2562
 5196TIP3    H237004   4.212   4.812   1.506  0.3443 -0.1704 -0.0221
 5197TIP3   OH237005   0.753   3.059  15.754 -0.5284 -0.4650  0.0492
 5197TIP3    H137006   0.666   3.022  15.771 -0.9732  0.3903 -0.3144
 5197TIP3    H237007   0.737   3.152  15.743  0.5495 -0.1876  0.7401
 5198TIP3   OH237008   2.084   0.097   5.840  0.9851 -0.7350 -0.2525
 5198TIP3    H137009   2.119   0.123   5.755  1.6163  0.7921  0.4487
 5198TIP3    H237010   2.058   0.179   5.882  0.6215 -1.4662  1.0100
 5199TIP3   OH237011   2.738   0.839   0.788 -0.4008  0.6376 -0.3040
 5199TIP3    H137012   2.716   0.912   0.846 -2.1605  1.0785 -1.4485
 5199TIP3    H237013   2.820   0.865   0.746  0.5559  0.5918  1.4508
 5200TIP3   OH237014   4.931   3.285  14.640  0.1107  0.1963 -0.1369
 5200TIP3    H137015   4.989   3.358  14.660 -2.0269  2.0121 -0.2881
 5200TIP3    H237016   4.869   3.319  14.576 -1.3898 -1.5137  0.3148
 5201TIP3   OH237017   3.551   0.466  16.100 -0.0445  0.6403 -0.6448
 5201TIP3    H137018   3.582   0.396  16.157 -0.4861  0.8370 -0.1599
 5201TIP3    H237019   3.621   0.478  16.036 -0.1462 -0.5325 -0.9856
 5202TIP3   OH237020   5.635   2.275  14.690 -0.4059  0.1822 -0.4131
 5202TIP3    H137021   5.666   2.260  14.780  0.8313 -0.1200 -0.8662
 5202TIP3    H237022   5.548   2.236  14.688  0.2724 -1.4669  0.1767
 5203TIP3   OH237023   2.594   4.470   3.782  0.3932  0.1030  0.2892
 5203TIP3    H137024   2.581   4.512   3.697  1.3771 -0.3313 -0.0949
 5203TIP3    H237025   2.648   4.393   3.762 -0.5500 -0.7933  1.1147
 5204TIP3   OH237026   2.308   2.091  13.880 -0.3102  0.3285 -0.1695
 5204TIP3    H137027   2.254   2.020  13.848 -0.2952 -0.5166  1.5936
 5204TIP3    H237028   2.246   2.152  13.921  0.0191 -1.0753  2.6667
 5205TIP3   OH237029   6.101   3.190  13.398  0.3106 -0.3541 -0.8237
 5205TIP3    H137030   6.107   3.169  13.305  3.0452 -0.5540 -0.6918
 5205TIP3    H237031   6.191   3.181  13.431 -0.3974  0.5960  1.6539
 5206TIP3   OH237032   5.199   6.528  15.670 -0.2535 -0.2442  0.0253
 5206TIP3    H137033   5.191   6.615  15.631 -0.2307 -0.7910 -1.2548
 5206TIP3    H237034   5.116   6.485  15.649 -0.7919 -0.1458  1.7330
 5207TIP3   OH237035   5.099   1.022   1.311 -0.7036  0.3031 -0.4906
 5207TIP3    H137036   5.031   1.080   1.344 -0.6254 -0.1088  0.4125
 5207TIP3    H237037   5.164   1.019   1.381 -0.5934 -0.6923 -0.6191
 5208TIP3   OH237038   0.815   4.307  13.767  0.4005  0.9763 -0.3005
 5208TIP3    H137039   0.846   4.379  13.821  0.8968 -0.3099  1.2110
 5208TIP3    H237040   0.744   4.267  13.817  1.9503 -1.2560  0.2641
 5209TIP3   OH237041   3.483   6.139  13.368  0.7445 -0.5805 -0.6793
 5209TIP3    H137042   3.424   6.203  13.327  0.8484  0.5314  0.8151
 5209TIP3    H237043   3.456   6.137  13.459  1.4942 -1.8493 -0.4656
 5210TIP3   OH237044   5.541   0.957   3.521  0.7415 -0.2712  0.6880
 5210TIP3    H137045   5.590   1.020   3.468  1.4875  0.5409  2.2540
 5210TIP3    H237046   5.449   0.979   3.506  0.9641  0.4327  0.3149
 5211TIP3   OH237047   5.890   2.470   3.488  0.1541  0.8193 -0.5144
 5211TIP3    H137048   5.960   2.406   3.506  0.4003  1.4813  1.0719
 5211TIP3    H237049   5.809   2.422   3.504  0.1908  0.0031 -2.5055
 5212TIP3   OH237050   3.870   5.984   4.248  0.2846 -0.4108  0.2122
 5212TIP3    H137051   3.829   6.033   4.177  0.4635 -0.1318  0.2998
 5212TIP3    H237052   3.918   5.914   4.204 -1.3426 -1.5540  0.1735
 5213TIP3   OH237053   6.332   6.322  11.867 -0.2619  0.4906 -0.3623
 5213TIP3    H137054   6.381   6.270  11.803  0.5224  0.2962  0.3818
 5213TIP3    H237055   6.358   6.412  11.849 -0.8340  0.5392 -0.9801
 5214TIP3   OH237056   5.630   1.773  14.621  0.0007 -0.2095 -0.1687
 5214TIP3    H137057   5.666   1.828  14.690  1.2297  0.1065 -1.0341
 5214TIP3    H237058   5.664   1.685  14.639 -0.3845 -0.3048  0.1095
 5215TIP3   OH237059   2.258   0.165  12.324 -0.2503 -0.0175  0.2012
 5215TIP3    H137060   2.174   0.209  12.312  0.9557  2.3419 -0.4440
 5215TIP3    H237061   2.308   0.188  12.245  1.3084 -0.5655  0.9843
 5216TIP3   OH237062   2.128   6.540  12.754  0.0465  0.8007  0.0622
 5216TIP3    H137063   2.194   6.536  12.825  0.3591  0.9379 -0.2180
 5216TIP3    H237064   2.105   6.632  12.748 -0.7274  0.6555  0.6590
 5217TIP3   OH237065   6.497   1.639   5.830 -0.4623 -0.3808 -0.2054
 5217TIP3    H137066   6.449   1.721   5.833 -0.2810 -0.2261 -1.2144
 5217TIP3    H237067   6.529   1.626   5.920 -2.0770 -0.3202  0.4156
 5218TIP3   OH237068   2.963   5.028  13.106  0.8464 -0.1011 -0.3474
 5218TIP3    H137069   3.024   5.083  13.156  1.2764  0.6129 -1.6153
 5218TIP3    H237070   2.941   4.957  13.166  1.1351  0.8612  0.9485
 5219TIP3   OH237071   2.118   4.940  14.099  0.6110 -0.6802 -0.2987
 5219TIP3    H137072   2.164   4.860  14.078 -0.2756 -0.8660 -1.6525
 5219TIP3    H237073   2.056   4.953  14.027 -0.5148  0.2591  0.7679
 5220TIP3   OH237074   0.041   0.423  10.664 -0.1768 -0.1427 -0.0136
 5220TIP3    H137075   0.018   0.507  10.704  1.3614 -0.4747  1.6970
 5220TIP3    H237076  -0.036   0.367  10.679 -0.8984  0.7033 -0.4762
 5221TIP3   OH237077   5.625   2.878  11.969  0.4498  0.1340 -0.2810
 5221TIP3    H137078   5.579   2.944  12.021  1.8281  1.4549 -0.6702
 5221TIP3    H237079   5.718   2.891  11.991  0.9763  0.0630 -2.3052
 5222TIP3   OH237080   4.672   2.866  16.875 -0.1462  0.0614  0.2732
 5222TIP3    H137081   4.763   2.888  16.852 -0.3022  2.1202  1.3662
 5222TIP3    H237082   4.671   2.770  16.881  1.6243 -0.0841 -1.0100
 5223TIP3   OH237083   1.920   3.878   3.908 -0.1277 -0.0889 -0.1269
 5223TIP3    H137084   1.991   3.906   3.966 -1.5487  0.6744  1.3476
 5223TIP3    H237085   1.907   3.952   3.848 -1.0712  0.7476  1.0333
 5224TIP3   OH237086   3.249   0.042  13.491 -0.0976 -0.4812  0.2006
 5224TIP3    H137087   3.214   0.101  13.558 -1.4474 -1.4207  0.3739
 5224TIP3    H237088   3.256   0.096  13.413 -1.9616 -0.1915  0.1699
 5225TIP3   OH237089   0.978   5.917  14.206 -0.1735 -0.1128  0.5415
 5225TIP3    H137090   0.966   5.823  14.219  2.0823 -0.5044  0.2472
 5225TIP3    H237091   0.995   5.951  14.293 -1.3845  0.1179  0.7033
 5226TIP3   OH237092   3.494   6.758  13.049 -0.0989  0.3868 -0.1469
 5226TIP3    H137093   3.567   6.738  13.107 -0.5330 -0.6718  0.0592
 5226TIP3    H237094   3.524   6.833  12.997  1.3643 -0.4078 -0.5066
 5227TIP3   OH237095   2.292   4.294   1.973  0.3882 -0.1512  0.3759
 5227TIP3    H137096   2.268   4.386   1.987 -1.3881 -0.4213 -0.5412
 5227TIP3    H237097   2.377   4.284   2.015  0.1395  1.6551  1.3986
 5228TIP3   OH237098   4.980   4.781   2.258  0.5235  0.1459 -0.3839
 5228TIP3    H137099   4.948   4.845   2.322 -0.9657 -0.5642 -0.3749
 5228TIP3    H237100   4.956   4.696   2.296  1.6413 -0.3848 -0.8369
 5229TIP3   OH237101   1.994   6.048   0.658 -0.7162  0.3510 -0.2343
 5229TIP3    H137102   2.030   6.088   0.738 -0.1200  2.0826 -1.3118
 5229TIP3    H237103   1.899   6.046   0.674 -0.7858  2.2667 -0.0990
 5230TIP3   OH237104   0.916   2.012   4.585 -0.6907  0.5421 -0.2802
 5230TIP3    H137105   0.990   2.069   4.609 -0.3720  0.1040 -0.2129
 5230TIP3    H237106   0.924   1.937   4.644 -1.5125  0.7456  0.0976
 5231TIP3   OH237107   0.212   4.318   3.835  0.2380  0.1675 -0.1350
 5231TIP3    H137108   0.217   4.331   3.740  1.5609  1.2317  0.0463
 5231TIP3    H237109   0.283   4.372   3.870  0.1488 -0.6812  1.4271
 5232TIP3   OH237110   0.579   2.842  12.033  0.0564 -0.0776  0.6584
 5232TIP3    H137111   0.516   2.786  11.988 -0.5230  1.5061 -0.5932
 5232TIP3    H237112   0.661   2.793  12.030 -0.2740 -0.5809 -0.9824
 5233TIP3   OH237113   5.507   0.159  11.705  0.1473 -0.3167 -0.3248
 5233TIP3    H137114   5.458   0.240  11.715 -0.6028 -0.9668  1.5699
 5233TIP3    H237115   5.547   0.144  11.790  1.7330 -1.0380 -1.1564
 5234TIP3   OH237116   1.741   3.752  15.562 -0.4516  0.9285 -0.4506
 5234TIP3    H137117   1.801   3.696  15.513 -1.9042  0.7823 -2.1197
 5234TIP3    H237118   1.798   3.802  15.621  1.2908  0.6704 -1.8503
 5235TIP3   OH237119   0.396   0.890  12.488 -0.6894  0.7188 -0.5203
 5235TIP3    H137120   0.423   0.977  12.460  1.0624  0.9054  1.4485
 5235TIP3    H237121   0.367   0.903  12.579 -0.5352 -0.7211 -0.2496
 5236TIP3   OH237122   3.189   1.840  13.960  0.1808 -0.4955  0.0918
 5236TIP3    H137123   3.168   1.920  14.008  0.4922 -0.8836  0.8965
 5236TIP3    H237124   3.262   1.801  14.008 -0.9640 -2.0621  0.6509
 5237TIP3   OH237125   3.382   2.666  11.830  0.5293 -1.1372 -0.3222
 5237TIP3    H137126   3.312   2.708  11.781  0.0443 -0.2640  1.0409
 5237TIP3    H237127   3.346   2.582  11.857  0.2302 -0.9560 -0.1533
 5238TIP3   OH237128   3.563   6.114   1.618 -0.5111 -0.1393 -0.0873
 5238TIP3    H137129   3.538   6.037   1.568  1.4943 -1.8460  1.3827
 5238TIP3    H237130   3.643   6.089   1.664  0.7019  3.0902 -0.1395
 5239TIP3   OH237131   3.947   1.298  16.746  0.2086 -0.4076 -0.1353
 5239TIP3    H137132   3.891   1.231  16.784  0.3997 -1.7400 -2.0774
 5239TIP3    H237133   4.014   1.250  16.697  1.5889  1.1759  0.0877
 5240TIP3   OH237134   3.052   3.204   1.667 -0.0110 -0.7110 -0.1558
 5240TIP3    H137135   3.071   3.176   1.756  1.8466  0.9765  0.0578
 5240TIP3    H237136   2.957   3.217   1.664  0.0628  0.7213  2.0678
 5241TIP3   OH237137   2.182   2.827   2.501  0.5737  0.2910  0.4183
 5241TIP3    H137138   2.216   2.881   2.573 -0.5937 -1.0085  2.0394
 5241TIP3    H237139   2.242   2.752   2.498  0.0956 -0.1105  0.6847
 5242TIP3   OH237140   4.762   3.946  16.525  0.0558 -0.3972  0.1594
 5242TIP3    H137141   4.734   3.886  16.595 -0.5417 -0.4243 -0.0920
 5242TIP3    H237142   4.728   4.031  16.553 -0.3760 -0.4478 -0.1971
 5243TIP3   OH237143   1.050   0.677  16.574  0.6109 -0.2054  0.2348
 5243TIP3    H137144   1.044   0.677  16.669  1.8045  0.7227  0.3299
 5243TIP3    H237145   0.985   0.741  16.545 -0.4801 -1.2354  0.3488
 5244TIP3   OH237146   6.583   0.417   3.390 -0.1099 -0.5097  0.1916
 5244TIP3    H137147   6.569   0.345   3.451 -0.6937 -1.2173 -0.7408
 5244TIP3    H237148   6.621   0.376   3.312 -0.2775  0.2115 -0.2844
 5245TIP3   OH237149   5.081   4.633   0.228  0.4912 -0.0473  0.0714
 5245TIP3    H137150   5.064   4.544   0.260  0.8281 -1.0089 -2.2507
 5245TIP3    H237151   5.007   4.653   0.171  0.8212  0.8475 -0.0574
 5246TIP3   OH237152   2.758   4.607   2.572 -0.3288  0.0416 -0.3850
 5246TIP3    H137153   2.851   4.588   2.578 -0.2218  0.7147  0.2219
 5246TIP3    H237154   2.718   4.523   2.548  0.5321 -0.0062 -1.7779
 5247TIP3   OH237155   5.731   2.105  16.709 -0.5009 -0.0444 -0.1227
 5247TIP3    H137156   5.683   2.150  16.779  0.9254  0.7765  0.3619
 5247TIP3    H237157   5.697   2.144  16.628 -0.9492  0.2153  0.1831
 5248TIP3   OH237158   2.788   1.342  14.935  0.6071  0.5463 -0.5313
 5248TIP3    H137159   2.746   1.301  15.011 -0.6177  2.2772 -0.2041
 5248TIP3    H237160   2.790   1.273  14.869 -0.3474 -0.3650  0.3437
 5249TIP3   OH237161   3.611   5.174  16.825 -0.3631 -0.0932 -0.4825
 5249TIP3    H137162   3.641   5.195  16.736 -0.0286  0.3496 -0.2697
 5249TIP3    H237163   3.631   5.252  16.876 -1.2880 -0.0394 -0.1847
 5250TIP3   OH237164   0.492   4.426  14.748 -0.3950 -0.3139  0.6678
 5250TIP3    H137165   0.541   4.475  14.814 -2.1260 -0.4624  2.1529
 5250TIP3    H237166   0.420   4.485  14.724 -0.8148 -0.9796  0.2724
 5251TIP3   OH237167   5.392   4.348  14.563  0.0389 -0.4180 -0.2551
 5251TIP3    H137168   5.359   4.259  14.574  1.0258 -0.7571  0.0166
 5251TIP3    H237169   5.419   4.375  14.650 -0.6833  0.3343 -0.2460
 5252TIP3   OH237170   1.323   1.791   0.129 -0.3696 -0.1449 -0.3761
 5252TIP3    H137171   1.412   1.784   0.164 -1.0577 -0.3003  1.4489
 5252TIP3    H237172   1.316   1.717   0.070  1.0011  0.3931 -1.2796
 5253TIP3   OH237173   1.447   3.654  12.260  0.1116  0.1733 -0.3253
 5253TIP3    H137174   1.352   3.666  12.266  0.1871  0.3778  0.7771
 5253TIP3    H237175   1.470   3.688  12.174 -0.8635 -0.2025 -0.7444
 5254TIP3   OH237176   1.571   1.957   0.295 -0.4044  0.5399 -0.1177
 5254TIP3    H137177   1.586   1.889   0.229  3.0456  0.6798  0.3120
 5254TIP3    H237178   1.580   2.039   0.247  0.9729  0.6348  0.2485
 5255TIP3   OH237179   2.692   3.238  16.898 -0.4277  0.1208 -0.2447
 5255TIP3    H137180   2.715   3.196  16.980  1.0642 -0.8165 -1.0906
 5255TIP3    H237181   2.628   3.179  16.858  0.4517 -0.5751 -0.6881
 5256TIP3   OH237182   3.856   0.747  14.592  0.4932 -1.1530  0.3201
 5256TIP3    H137183   3.920   0.804  14.633  1.8400 -1.1987 -1.5913
 5256TIP3    H237184   3.782   0.805  14.571  0.9080 -0.5857  0.4149
 5257TIP3   OH237185   2.353   2.849  16.275 -0.1031  0.3114  0.3960
 5257TIP3    H137186   2.342   2.945  16.274 -0.7124  0.2435  0.0427
 5257TIP3    H237187   2.448   2.836  16.275 -0.0156  0.9178  0.3517
 5258TIP3   OH237188   4.715   5.966   1.200 -0.0509  0.1211  0.1780
 5258TIP3    H137189   4.721   6.026   1.126  0.3957 -0.4019 -0.2196
 5258TIP3    H237190   4.805   5.960   1.233  0.3766 -1.9980 -1.1497
 5259TIP3   OH237191   1.537   5.611  12.134  0.0268 -0.3074  0.3951
 5259TIP3    H137192   1.512   5.700  12.158  2.8642  0.4124  1.0199
 5259TIP3    H237193   1.457   5.572  12.099 -2.0315  1.5187  2.7425
 5260TIP3   OH237194   1.708   0.422   5.134  0.8174  0.6241  0.2815
 5260TIP3    H137195   1.653   0.344   5.127 -1.7370  2.4559 -3.3879
 5260TIP3    H237196   1.795   0.393   5.109 -0.1722 -1.0456 -1.4578
 5261TIP3   OH237197   0.144   2.716  11.552  0.2878  0.1417 -0.1099
 5261TIP3    H137198   0.116   2.626  11.533 -2.3367  1.0344 -0.8648
 5261TIP3    H237199   0.109   2.768  11.480  0.6642  1.9536  0.9578
 5262TIP3   OH237200   2.906   2.361  12.325  0.2985 -0.2768  0.0164
 5262TIP3    H137201   2.872   2.416  12.253 -0.5434 -0.0525  0.5629
 5262TIP3    H237202   2.862   2.396  12.403  2.3417  0.4845  0.8873
 5263TIP3   OH237203   2.034   0.140   0.154 -0.0845  0.1455  0.4571
 5263TIP3    H137204   1.969   0.084   0.195 -1.1402 -0.8747 -2.4090
 5263TIP3    H237205   2.075   0.085   0.087  0.6732  2.0441 -0.7196
 5264TIP3   OH237206   4.725   0.188  16.377 -0.0023  0.4243 -0.2286
 5264TIP3    H137207   4.651   0.187  16.437 -0.2864 -0.9140 -0.5602
 5264TIP3    H237208   4.802   0.180  16.433 -0.2105  0.1611  0.0236
 5265TIP3   OH237209   4.218   3.766  11.800  0.1497  0.0054  0.1783
 5265TIP3    H137210   4.136   3.723  11.776  1.4815 -2.1110 -0.9144
 5265TIP3    H237211   4.286   3.701  11.781  2.0021  1.1455  2.3487
 5266TIP3   OH237212   3.384   2.947  12.067 -0.1417 -0.1232  0.6487
 5266TIP3    H137213   3.390   3.014  12.135 -0.7390 -0.1971  0.7728
 5266TIP3    H237214   3.397   2.864  12.113 -0.7813 -0.1908  0.7145
 5267TIP3   OH237215   1.599   4.017  15.793 -0.4421  0.6662 -0.2866
 5267TIP3    H137216   1.531   3.953  15.772  0.8079 -1.1625  0.9539
 5267TIP3    H237217   1.572   4.055  15.876 -0.8956  1.3966 -0.7495
 5268TIP3   OH237218   2.254   4.554  13.731 -0.4369  0.0107  0.1069
 5268TIP3    H137219   2.321   4.520  13.672  1.0323  1.1234  1.0336
 5268TIP3    H237220   2.257   4.496  13.807  0.7905  1.0476  0.9075
 5269TIP3   OH237221   4.587   5.257   2.146  0.2539 -0.3033  0.2361
 5269TIP3    H137222   4.555   5.281   2.059 -1.5047 -1.2777  0.5695
 5269TIP3    H237223   4.546   5.321   2.205  1.9891  0.7969  0.3375
 5270TIP3   OH237224   3.179   4.307  15.301 -0.3436  0.0873  0.2315
 5270TIP3    H137225   3.172   4.363  15.224  0.7630  0.6009  0.4806
 5270TIP3    H237226   3.259   4.256  15.286  0.4619  0.9136  1.4609
 5271TIP3   OH237227   2.992   3.617   5.257 -0.5197 -0.2778 -0.0624
 5271TIP3    H137228   2.931   3.582   5.192 -2.5979  0.6923  1.2336
 5271TIP3    H237229   3.045   3.542   5.283 -2.1728 -1.5569 -0.2088
 5272TIP3   OH237230   0.256   2.448   5.053  0.4499 -0.7239  0.4715
 5272TIP3    H137231   0.181   2.449   5.113  0.8892  1.1491  1.0738
 5272TIP3    H237232   0.330   2.475   5.107  0.3248  4.5423 -1.3920
 5273TIP3   OH237233   1.616   6.266  17.027 -0.0908  0.0273  0.0285
 5273TIP3    H137234   1.624   6.252  17.121 -1.8625  0.3344  0.2532
 5273TIP3    H237235   1.607   6.178  16.990  0.0959 -0.0608  0.1846
 5274TIP3   OH237236   0.226   3.444  16.352 -0.2572  0.0726  0.5059
 5274TIP3    H137237   0.196   3.446  16.443 -1.1877 -2.9464  0.3773
 5274TIP3    H237238   0.312   3.401  16.356 -1.2809 -2.1833 -0.1503
 5275TIP3   OH237239   4.953   1.230   5.396  0.0043  0.4038 -0.3189
 5275TIP3    H137240   4.861   1.207   5.385  0.2215  0.3051 -2.3725
 5275TIP3    H237241   4.952   1.306   5.454 -1.2641 -0.3515  0.6873
 5276TIP3   OH237242   4.581   0.638  16.582 -0.8019  0.0976 -0.2273
 5276TIP3    H137243   4.510   0.579  16.560 -0.4326 -0.1110 -0.8636
 5276TIP3    H237244   4.658   0.582  16.592 -0.5071  0.4304 -0.5648
 5277TIP3   OH237245   2.472   1.479  14.953  0.2305  0.1220  0.3904
 5277TIP3    H137246   2.427   1.529  15.021  0.5285  1.5749 -0.4410
 5277TIP3    H237247   2.564   1.482  14.977  0.2310 -0.1835  0.4305
 5278TIP3   OH237248   5.528   6.184   0.183 -0.6382 -0.0115 -0.4360
 5278TIP3    H137249   5.543   6.092   0.206 -0.2024  0.6072  2.0821
 5278TIP3    H237250   5.436   6.199   0.203 -0.4647  0.3212  0.1517
 5279TIP3   OH237251   1.875   3.613  10.560 -0.6354 -0.4364 -0.5928
 5279TIP3    H137252   1.905   3.537  10.611 -1.2967 -0.0331  0.4155
 5279TIP3    H237253   1.804   3.650  10.611 -0.0369  1.1487 -0.8471
 5280TIP3   OH237254   0.444   2.534   5.953  0.1566 -0.3607 -0.0722
 5280TIP3    H137255   0.415   2.616   5.994 -0.2512  0.2649 -1.5633
 5280TIP3    H237256   0.506   2.497   6.016  0.1954  0.9886  0.7227
 5281TIP3   OH237257   5.412   5.112  16.365 -0.2544  0.1679  0.7077
 5281TIP3    H137258   5.383   5.173  16.298  2.2767  2.3825  1.4577
 5281TIP3    H237259   5.473   5.054  16.320 -0.4863  0.0143  0.5893
 5282TIP3   OH237260   2.216   0.895  16.419  0.0366  0.1201 -0.7910
 5282TIP3    H137261   2.204   0.925  16.329  0.1205  0.4378 -0.6983
 5282TIP3    H237262   2.308   0.915  16.438  0.3742 -1.0904 -1.0541
 5283TIP3   OH237263   6.013   0.196   2.970 -0.0966  0.4841 -0.3532
 5283TIP3    H137264   6.109   0.199   2.970 -0.0552  0.7847 -2.7929
 5283TIP3    H237265   5.992   0.108   3.002  1.0723 -0.2261 -1.4456
 5284TIP3   OH237266   2.312   2.934   0.610 -0.7926  0.0122  0.0315
 5284TIP3    H137267   2.360   2.995   0.666 -1.1910  2.4084 -2.0600
 5284TIP3    H237268   2.223   2.969   0.608 -1.9427 -2.5747  1.3381
 5285TIP3   OH237269   6.063   4.894   4.608 -0.0337 -0.3705  0.2981
 5285TIP3    H137270   6.011   4.829   4.559 -0.3577  0.7155 -0.8542
 5285TIP3    H237271   6.088   4.848   4.688 -1.1249 -1.5797 -0.0020
 5286TIP3   OH237272   3.871   0.935  15.900 -0.5054  0.2464 -0.1679
 5286TIP3    H137273   3.891   1.025  15.877  1.5526 -0.0991  0.0716
 5286TIP3    H237274   3.872   0.933  15.995  1.6152 -0.3824 -0.1375
 5287TIP3   OH237275   5.655   1.349  15.662 -0.0720 -0.1554 -0.7172
 5287TIP3    H137276   5.734   1.298  15.680 -0.3708  0.1836  2.0265
 5287TIP3    H237277   5.599   1.335  15.739 -0.8385  3.0012 -0.5496
 5288TIP3   OH237278   0.406   4.004   3.533 -0.2654  0.1473  0.2085
 5288TIP3    H137279   0.481   4.045   3.489 -1.1715 -0.0307 -1.6046
 5288TIP3    H237280   0.392   3.922   3.486  0.2840 -1.3680  2.5226
 5289TIP3   OH237281   1.204   5.356   5.719 -0.8457 -0.1214  0.0268
 5289TIP3    H137282   1.146   5.289   5.755 -3.2462  1.4042 -0.8002
 5289TIP3    H237283   1.198   5.346   5.624  0.6464 -0.2029 -0.0920
 5290TIP3   OH237284   2.282   4.639  16.503  0.3497 -0.4440  0.4290
 5290TIP3    H137285   2.246   4.552  16.522  1.8724 -1.2018  0.0194
 5290TIP3    H237286   2.324   4.629  16.417  3.1933 -0.1861  1.6814
 5291TIP3   OH237287   0.248   6.422  15.079 -0.0938  0.4417  0.2630
 5291TIP3    H137288   0.297   6.362  15.022 -1.1501  0.5436 -0.7903
 5291TIP3    H237289   0.287   6.409  15.166  0.3019 -1.1176 -0.1052
 5292TIP3   OH237290   0.771   2.901   6.383  0.5763  0.2511  0.0440
 5292TIP3    H137291   0.716   2.873   6.457  2.2113  0.2164  1.2938
 5292TIP3    H237292   0.860   2.897   6.417  1.3485  0.5639 -1.8548
 5293TIP3   OH237293   5.291   5.743  16.141 -0.0444 -0.6069 -0.3289
 5293TIP3    H137294   5.197   5.738  16.121 -0.5362  0.7416  1.3890
 5293TIP3    H237295   5.325   5.805  16.077 -1.1096  1.7623  1.2434
 5294TIP3   OH237296   5.856   6.081  16.444  0.3806  0.2306 -0.2114
 5294TIP3    H137297   5.927   6.077  16.381  1.1356  2.3669  0.4130
 5294TIP3    H237298   5.877   6.156  16.499 -1.5226 -0.0760  1.0294
 5295TIP3   OH237299   4.974   3.231  13.499  0.2563 -0.4528  0.2018
 5295TIP3    H137300   4.947   3.171  13.429  1.9307 -1.7920  0.6385
 5295TIP3    H237301   5.000   3.311  13.453  1.2308 -1.2791 -0.7349
 5296TIP3   OH237302   6.199   1.851   0.553  0.2859  0.0698  0.2479
 5296TIP3    H137303   6.250   1.801   0.617  1.6175 -0.4254 -1.1438
 5296TIP3    H237304   6.240   1.938   0.552 -0.3750  0.4007  0.7681
 5297TIP3   OH237305   0.409   3.815  15.967  0.5101  0.1512 -0.6357
 5297TIP3    H137306   0.452   3.873  15.904 -1.2400  0.1768 -1.8877
 5297TIP3    H237307   0.331   3.863  15.995  0.5874 -0.4019  0.5807
 5298TIP3   OH237308   0.600   5.953   1.585 -0.3755  0.2267  0.0317
 5298TIP3    H137309   0.623   5.863   1.608 -1.6049  0.0024  0.4673
 5298TIP3    H237310   0.634   6.006   1.657  1.0470  0.2170 -0.6128
 5299TIP3   OH237311   5.383   3.376  11.453 -0.3379  0.1220  0.0281
 5299TIP3    H137312   5.430   3.428  11.388 -1.1739 -0.8355 -1.4124
 5299TIP3    H237313   5.368   3.292  11.409  0.4919 -1.1565  2.0698
 5300TIP3   OH237314   3.428   1.093  12.457 -0.2050  0.0818  0.4205
 5300TIP3    H137315   3.338   1.105  12.426  0.1162  1.5050 -0.0464
 5300TIP3    H237316   3.482   1.129  12.387  0.6523  0.8758  1.4610
 5301TIP3   OH237317   3.637   2.190   3.683  0.6009  0.0904 -0.0034
 5301TIP3    H137318   3.613   2.271   3.638  0.8750 -0.0102 -0.3316
 5301TIP3    H237319   3.723   2.208   3.720  0.2019  0.3131  0.8366
 5302TIP3   OH237320   2.909   2.085  11.468  0.4043 -0.5854 -0.0217
 5302TIP3    H137321   2.830   2.085  11.523 -0.0123 -1.0540 -0.6159
 5302TIP3    H237322   2.880   2.121  11.384  1.2992  1.2813  0.4042
 5303TIP3   OH237323   4.862   4.846   0.695 -0.3155 -0.1879  0.3486
 5303TIP3    H137324   4.906   4.928   0.717 -0.0424 -0.5052  0.9889
 5303TIP3    H237325   4.928   4.796   0.646 -0.7380  0.2846 -0.7474
 5304TIP3   OH237326   2.903   1.483   2.272  0.1799 -0.4810 -0.1486
 5304TIP3    H137327   2.964   1.553   2.296  0.1731 -0.3688 -0.4520
 5304TIP3    H237328   2.819   1.528   2.264  0.2918 -0.4065 -0.9676
 5305TIP3   OH237329   1.116   4.852  16.805  0.1038  0.0030 -0.6168
 5305TIP3    H137330   1.078   4.900  16.731 -0.0707 -0.2101 -0.6654
 5305TIP3    H237331   1.089   4.761  16.791  0.7331 -0.1770 -0.7255
 5306TIP3   OH237332   5.937   6.641   3.333 -0.2633  0.7115 -0.1046
 5306TIP3    H137333   5.874   6.599   3.391  1.6006 -2.5230 -0.1884
 5306TIP3    H237334   6.018   6.644   3.384  0.8066 -0.0374 -1.6961
 5307TIP3   OH237335   1.884   0.732   3.224 -0.5639  0.9510  0.5418
 5307TIP3    H137336   1.828   0.795   3.269 -2.7598 -0.3423 -0.2197
 5307TIP3    H237337   1.883   0.654   3.280  2.6880  1.6696  1.8358
 5308TIP3   OH237338   6.266   0.310  12.859 -0.3572 -0.1013  0.2309
 5308TIP3    H137339   6.273   0.314  12.955  1.2031  2.5598  0.0922
 5308TIP3    H237340   6.349   0.345  12.827 -1.4190  0.4766 -2.0878
 5309TIP3   OH237341   2.916   5.916  16.821 -0.1085 -0.4980  0.5146
 5309TIP3    H137342   2.982   5.940  16.756 -0.6837 -3.0125 -1.1280
 5309TIP3    H237343   2.957   5.848  16.873 -0.8435 -0.9358  0.5310
 5310TIP3   OH237344   5.275   3.489  17.052 -0.2496 -0.0341  0.3313
 5310TIP3    H137345   5.272   3.574  17.095  1.1671  0.3616 -0.2887
 5310TIP3    H237346   5.368   3.471  17.040 -0.5116 -1.7861  0.6472
 5311TIP3   OH237347   6.224   5.990   5.019  0.1940  0.0318  0.0528
 5311TIP3    H137348   6.213   5.954   4.931 -1.1785  1.5938 -0.4684
 5311TIP3    H237349   6.142   6.036   5.037  0.3246 -0.4455  2.2803
 5312TIP3   OH237350   2.688   1.463  17.243  0.1031 -0.1363 -0.6326
 5312TIP3    H137351   2.611   1.518  17.257 -0.2093 -0.6199 -0.4262
 5312TIP3    H237352   2.654   1.383  17.203  0.4392 -0.5367 -0.1285
 5313TIP3   OH237353   5.870   1.072   1.837  0.1494  0.0286 -0.0498
 5313TIP3    H137354   5.838   1.077   1.746  0.1781  0.5943 -0.0299
 5313TIP3    H237355   5.917   0.989   1.840 -0.0489 -0.1081 -0.4902
 5314TIP3   OH237356   3.926   5.823   0.484  0.0932 -0.3245  0.1300
 5314TIP3    H137357   4.014   5.819   0.446  0.1934  0.4977  0.2600
 5314TIP3    H237358   3.886   5.740   0.459  0.7743 -0.5526 -0.2509
 5315TIP3   OH237359   2.650   5.721  11.409  0.6870  0.0308  0.3880
 5315TIP3    H137360   2.702   5.733  11.488 -0.5710  0.2112  1.2116
 5315TIP3    H237361   2.706   5.753  11.338  1.5586  0.5221  1.2774
 5316TIP3   OH237362   0.125   2.730  14.245 -0.2989  0.4613 -0.1489
 5316TIP3    H137363   0.074   2.658  14.210 -0.3723  1.6160 -2.6262
 5316TIP3    H237364   0.214   2.696  14.251 -0.4930 -0.1070 -0.4546
 5317TIP3   OH237365   5.381   5.532  13.691 -0.2612  0.3605  0.0193
 5317TIP3    H137366   5.472   5.560  13.675 -0.2638 -1.0888 -3.4594
 5317TIP3    H237367   5.338   5.541  13.606 -3.0812 -0.2255  1.2580
 5318TIP3   OH237368   4.203   0.708   3.008 -0.0132  0.1958  0.4470
 5318TIP3    H137369   4.146   0.674   3.077  2.1195 -1.2583  1.5657
 5318TIP3    H237370   4.201   0.803   3.020 -3.2887  0.3848 -0.5106
 5319TIP3   OH237371   1.123   0.081  16.790 -0.6450 -0.1429  0.0105
 5319TIP3    H137372   1.082   0.019  16.850 -1.3344 -1.9037 -2.1619
 5319TIP3    H237373   1.141   0.158  16.844 -0.7858 -1.7808  2.5545
 5320TIP3   OH237374   1.316   3.817   5.407  0.0594  0.3984  0.3107
 5320TIP3    H137375   1.412   3.823   5.410 -0.0283  2.2060  0.3193
 5320TIP3    H237376   1.295   3.823   5.314  0.0155 -2.5552  0.0078
 5321TIP3   OH237377   5.109   4.651  11.839 -0.2331 -0.7258  0.1409
 5321TIP3    H137378   5.163   4.607  11.905  1.1955  0.6609 -0.0350
 5321TIP3    H237379   5.131   4.608  11.757  1.5610  0.5704 -0.1160
 5322TIP3   OH237380   2.627   1.472  11.952 -0.1148 -0.5021 -0.2480
 5322TIP3    H137381   2.637   1.566  11.941 -0.4073 -0.5195 -0.7163
 5322TIP3    H237382   2.715   1.441  11.974 -0.2438  0.0159  1.0594
 5323TIP3   OH237383   0.516   0.820  17.312 -0.0725 -0.0889  0.2741
 5323TIP3    H137384   0.526   0.743  17.256  0.7534 -1.4915  2.2297
 5323TIP3    H237385   0.578   0.883  17.278  0.9043 -1.1650 -0.0076
 5324TIP3   OH237386   5.321   2.576  17.276 -0.5409  0.7631 -0.0043
 5324TIP3    H137387   5.362   2.654  17.313  0.0979  0.3611  0.1500
 5324TIP3    H237388   5.228   2.588  17.293 -0.5590  1.9326 -0.8205
 5325TIP3   OH237389   1.771   2.127  13.247  0.5133 -0.0167  0.1206
 5325TIP3    H137390   1.753   2.183  13.322 -1.8670 -0.0440 -0.3783
 5325TIP3    H237391   1.867   2.123  13.244  0.7410  2.4290  1.3151
 5326TIP3   OH237392   2.120   0.984  13.327  0.6558 -0.2885 -0.2058
 5326TIP3    H137393   2.056   1.042  13.286  1.4975 -0.3105 -1.6432
 5326TIP3    H237394   2.098   0.985  13.420 -1.1327  0.0606 -0.5881
 5327TIP3   OH237395   4.890   4.600  12.229  0.9671 -0.0802  0.5776
 5327TIP3    H137396   4.896   4.611  12.324  1.8514 -1.3916  0.6978
 5327TIP3    H237397   4.910   4.687  12.193  0.1587  0.5416  1.5786
 5328TIP3   OH237398   3.087   0.739   5.167  0.2660  0.3625 -0.1629
 5328TIP3    H137399   3.038   0.800   5.222 -0.9256  0.3754 -1.1979
 5328TIP3    H237400   3.105   0.789   5.087  1.8436  0.2955  0.1128
 5329TIP3   OH237401   2.392   5.085  16.444 -0.4924  0.2647  0.4109
 5329TIP3    H137402   2.411   5.038  16.362  0.4576 -0.2597  0.9214
 5329TIP3    H237403   2.323   5.033  16.486  0.8191 -0.9389  1.1571
 5330TIP3   OH237404   1.350   5.749  14.488  0.2759  0.1842  0.2817
 5330TIP3    H137405   1.409   5.736  14.562  0.2868 -0.0436  0.2343
 5330TIP3    H237406   1.289   5.676  14.493  0.1531  0.2804  0.1835
 5331TIP3   OH237407   3.906   5.141  15.219  0.2663 -1.0802  0.0754
 5331TIP3    H137408   3.922   5.139  15.314  1.4317  0.7988 -0.0382
 5331TIP3    H237409   3.947   5.062  15.186  0.0690 -1.6365  1.1074
 5332TIP3   OH237410   5.131   5.056   2.139 -0.5282  0.6197  0.2055
 5332TIP3    H137411   5.049   5.104   2.129  0.0015  1.6545  0.6199
 5332TIP3    H237412   5.138   5.040   2.233  0.7433  2.4321  0.4683
 5333TIP3   OH237413   6.118   4.969   4.337 -0.6176 -0.0407  0.1239
 5333TIP3    H137414   6.104   4.965   4.431 -3.1672 -0.9289 -0.2237
 5333TIP3    H237415   6.160   5.054   4.323  0.9466 -0.4005  2.1148
 5334TIP3   OH237416   2.221   0.737   3.524 -0.0999  0.3778 -0.5680
 5334TIP3    H137417   2.266   0.774   3.448  0.8142  4.4265  1.6184
 5334TIP3    H237418   2.290   0.698   3.576 -0.1762  0.5843 -0.3086
 5335TIP3   OH237419   2.747   0.792   4.136  0.1719 -0.8716 -0.0672
 5335TIP3    H137420   2.742   0.873   4.187  0.2807 -0.8358 -0.1128
 5335TIP3    H237421   2.656   0.771   4.115  0.0797 -1.2009  0.6262
 5336TIP3   OH237422   2.963   4.895  12.213  0.4696  0.0169 -0.0413
 5336TIP3    H137423   2.957   4.976  12.162  0.2606 -0.4982 -0.8539
 5336TIP3    H237424   2.936   4.921  12.301 -1.8012  0.3876 -0.7658
 5337TIP3   OH237425   0.886   1.986  12.845 -0.0888 -0.1630  0.2295
 5337TIP3    H137426   0.967   1.936  12.854  0.4188  0.8575  1.5945
 5337TIP3    H237427   0.843   1.948  12.769  1.6309 -0.7756 -0.4764
 5338TIP3   OH237428   3.125   0.737  14.134 -0.1667 -0.2118 -0.5741
 5338TIP3    H137429   3.095   0.649  14.156 -1.6740  0.5780  0.8018
 5338TIP3    H237430   3.161   0.729  14.046 -1.8948 -1.8494 -1.2065
 5339TIP3   OH237431   1.498   4.909   5.973 -0.1140  0.5781  0.2110
 5339TIP3    H137432   1.436   4.964   6.023 -1.2224  0.0481 -0.5348
 5339TIP3    H237433   1.442   4.845   5.930  0.8644  0.7826 -1.4102
 5340TIP3   OH237434   1.685   1.992   4.287  0.0958  0.0848  0.0428
 5340TIP3    H137435   1.673   1.910   4.239  0.8575  0.6567 -1.1742
 5340TIP3    H237436   1.649   1.975   4.374  1.4263 -1.9744  0.2544
 5341TIP3   OH237437   4.043   6.668   5.935 -0.5097 -0.1708 -0.0479
 5341TIP3    H137438   4.036   6.577   5.908 -0.8649  0.6546 -3.1533
 5341TIP3    H237439   3.989   6.716   5.873 -0.1629  2.1989  1.3445
 5342TIP3   OH237440   3.874   4.357   2.265 -0.9365  0.5331 -0.1969
 5342TIP3    H137441   3.906   4.311   2.342  2.3568  2.8444  0.0224
 5342TIP3    H237442   3.891   4.297   2.192  1.8771  0.6758  0.2468
 5343TIP3   OH237443   0.476   3.443   2.372  0.0584 -0.2656 -0.4769
 5343TIP3    H137444   0.387   3.408   2.381  0.1508 -0.6146 -0.8861
 5343TIP3    H237445   0.531   3.366   2.365  0.8295 -0.2112  3.1384
 5344TIP3   OH237446   4.087   4.412  12.265 -0.2233  0.1497  0.2714
 5344TIP3    H137447   4.005   4.459  12.280 -0.4812  0.6286 -2.2147
 5344TIP3    H237448   4.129   4.409  12.351 -0.9904  3.4428  0.9054
 5345TIP3   OH237449   3.572   5.321   1.572  0.3559  0.8053 -0.0514
 5345TIP3    H137450   3.623   5.341   1.650 -0.7377  0.5127  0.7661
 5345TIP3    H237451   3.578   5.401   1.519 -1.3998  2.2471  1.7567
 5346TIP3   OH237452   6.454   3.301  12.620  0.4887 -0.4429 -0.1608
 5346TIP3    H137453   6.515   3.339  12.684 -1.3247  1.9698  0.2839
 5346TIP3    H237454   6.493   3.322  12.535  0.5151  0.7241  0.1223
 5347TIP3   OH237455   3.186   5.544  12.917  0.4588  0.6990 -0.1809
 5347TIP3    H137456   3.160   5.468  12.970  0.4221 -0.1380 -1.3529
 5347TIP3    H237457   3.139   5.618  12.955 -2.3411 -0.4540 -1.1715
 5348TIP3   OH237458   2.559   5.944   3.774 -0.3044  1.3648  0.1723
 5348TIP3    H137459   2.603   6.028   3.763  0.4373  0.7414 -1.9633
 5348TIP3    H237460   2.615   5.881   3.729 -1.3976 -0.1161  0.7916
 5349TIP3   OH237461   4.007   4.281  15.730  0.3570 -0.0098 -0.0406
 5349TIP3    H137462   3.971   4.365  15.701 -0.3986  0.0641  1.0159
 5349TIP3    H237463   3.930   4.228  15.750  0.8273 -1.1007 -1.0629
 5350TIP3   OH237464   5.697   4.033   2.196  0.1366  0.1605  0.1223
 5350TIP3    H137465   5.605   4.031   2.170  0.3012 -0.8867 -0.4305
 5350TIP3    H237466   5.741   4.078   2.123  0.1366  0.1570  0.1200
 5351TIP3   OH237467   4.451   5.367   1.395  0.3085  0.0430 -0.4662
 5351TIP3    H137468   4.451   5.333   1.306  1.5824  1.8349 -1.2117
 5351TIP3    H237469   4.533   5.416   1.402  0.0470  0.2729  1.5638
 5352TIP3   OH237470   2.555   6.298  12.074 -0.0760 -0.1158  0.5035
 5352TIP3    H137471   2.556   6.207  12.103 -1.1937 -0.2762  0.0995
 5352TIP3    H237472   2.587   6.296  11.984  1.1194  0.0735  0.9059
 5353TIP3   OH237473   0.311   2.010  11.862  0.0529 -0.4589 -0.1336
 5353TIP3    H137474   0.336   2.076  11.928 -0.1454  0.5453 -1.0403
 5353TIP3    H237475   0.392   1.992  11.814  0.2132 -1.2458  0.4137
 5354TIP3   OH237476   2.354   4.424   2.373  0.7340  0.0511  0.0513
 5354TIP3    H137477   2.351   4.386   2.286 -0.1280  0.9930 -0.3507
 5354TIP3    H237478   2.296   4.369   2.426  2.5785 -1.5652  0.5047
 5355TIP3   OH237479   4.730   6.373   6.105 -0.2930  0.3409  0.1690
 5355TIP3    H137480   4.695   6.284   6.114  1.8449 -0.6799 -0.9023
 5355TIP3    H237481   4.753   6.381   6.013 -0.4141  2.0150  0.2529
 5356TIP3   OH237482   0.456   6.133  13.764 -0.0099 -0.5617 -0.0549
 5356TIP3    H137483   0.515   6.068  13.804 -0.0559 -0.1556  0.6899
 5356TIP3    H237484   0.427   6.187  13.838  1.6431  1.6073 -0.8947
 5357TIP3   OH237485   4.060   0.606  15.422 -0.1035  0.8713 -0.2290
 5357TIP3    H137486   4.083   0.619  15.514  0.3649 -1.0378 -0.0478
 5357TIP3    H237487   3.977   0.558  15.424  0.0994  0.4842 -0.7880
 5358TIP3   OH237488   0.221   1.556   5.318 -0.1997  0.3144  0.3543
 5358TIP3    H137489   0.152   1.536   5.382  0.9025  0.0847  1.5113
 5358TIP3    H237490   0.225   1.651   5.316 -0.9568  0.3418 -0.1824
 5359TIP3   OH237491   4.350   0.552  13.454  0.5275 -0.4474  0.7350
 5359TIP3    H137492   4.345   0.589  13.542  1.2428  0.1115  0.5527
 5359TIP3    H237493   4.444   0.540  13.439  0.4169 -0.3960 -0.0124
 5360TIP3   OH237494   1.089   3.997  14.496  1.0606  0.4012 -0.1753
 5360TIP3    H137495   1.036   4.076  14.506 -0.1155 -0.4530  0.7630
 5360TIP3    H237496   1.140   3.992  14.577  0.9643  0.0987 -0.1300
 5361TIP3   OH237497   0.506   4.771   0.908 -0.6403  0.5167 -0.2145
 5361TIP3    H137498   0.565   4.705   0.944  0.0100  0.6742 -0.9702
 5361TIP3    H237499   0.428   4.767   0.964 -1.4051 -2.1848 -1.3228
 5362TIP3   OH237500   1.047   3.483  17.048  0.3117 -0.1943  0.2580
 5362TIP3    H137501   0.981   3.422  17.016 -0.7752  1.9131 -1.8388
 5362TIP3    H237502   1.130   3.437  17.038 -0.5184 -1.5221 -0.7182
 5363TIP3   OH237503   3.852   4.394   5.372  0.3332  0.6005 -0.8697
 5363TIP3    H137504   3.937   4.362   5.401 -1.0354 -0.6391  2.2187
 5363TIP3    H237505   3.827   4.333   5.302  1.2332 -0.0601 -0.6340
 5364TIP3   OH237506   1.384   1.100   3.381  0.4466  0.2806  0.0942
 5364TIP3    H137507   1.465   1.049   3.376  0.4429  0.1439  1.2097
 5364TIP3    H237508   1.317   1.044   3.341  0.5034 -0.4594  1.0254
 5365TIP3   OH237509   1.589   1.702   0.166 -0.1923 -0.4578 -0.5099
 5365TIP3    H137510   1.619   1.695   0.075 -0.3619  0.3920 -0.6338
 5365TIP3    H237511   1.643   1.638   0.213 -0.2369 -1.0514 -1.2334
 5366TIP3   OH237512   0.655   3.772  16.622 -0.8405 -0.1525 -0.4731
 5366TIP3    H137513   0.559   3.767  16.619 -0.9675  0.7514  0.9390
 5366TIP3    H237514   0.677   3.845  16.565 -0.8485 -1.2671 -1.9615
 5367TIP3   OH237515   6.626   3.556  11.720 -0.3887 -0.5348  0.5184
 5367TIP3    H137516   6.674   3.578  11.800 -1.0651 -0.2188  0.8452
 5367TIP3    H237517   6.542   3.521  11.750 -1.5201  1.5154 -0.0161
 5368TIP3   OH237518   2.474   2.318  15.503 -0.3353 -0.1602  0.0326
 5368TIP3    H137519   2.485   2.287  15.414  0.7475 -1.7614  0.6802
 5368TIP3    H237520   2.562   2.344  15.531 -0.3297 -1.2534  1.1501
 5369TIP3   OH237521   1.083   1.694   6.409  0.4827 -0.3534  0.1760
 5369TIP3    H137522   1.127   1.772   6.375 -0.6231 -0.0107 -0.5021
 5369TIP3    H237523   1.075   1.636   6.334  3.1834 -2.0752  1.0936
 5370TIP3   OH237524   6.090   2.255   3.440  0.2166  0.3084  0.2358
 5370TIP3    H137525   6.089   2.325   3.374 -0.7315  0.0545 -0.0425
 5370TIP3    H237526   6.181   2.225   3.442  0.3197  0.5225 -0.7444
 5371TIP3   OH237527   4.541   0.723  12.794  0.3007 -0.0839  0.5135
 5371TIP3    H137528   4.544   0.779  12.872 -0.0976 -1.8863  1.8731
 5371TIP3    H237529   4.590   0.645  12.819 -1.8248 -1.7148 -0.1940
 5372TIP3   OH237530   5.928   4.270   5.712 -0.3324  0.3362 -0.3313
 5372TIP3    H137531   5.867   4.197   5.725  1.2535 -1.2533 -1.3302
 5372TIP3    H237532   5.871   4.345   5.694 -2.0356 -0.5152  1.1424
 5373TIP3   OH237533   6.763   4.461   3.413  0.8075 -0.5124  0.3438
 5373TIP3    H137534   6.714   4.433   3.490 -0.5414  1.1730  0.1642
 5373TIP3    H237535   6.833   4.517   3.447  0.7107 -0.4356  0.4184
 5374TIP3   OH237536   1.795   2.462   3.212 -0.0372 -0.2181  0.7384
 5374TIP3    H137537   1.797   2.488   3.304  0.8790 -1.6353  1.1599
 5374TIP3    H237538   1.806   2.367   3.214  1.0263 -0.1707 -0.8624
 5375TIP3   OH237539   4.774   1.256  14.802 -0.2467  0.0234 -0.0750
 5375TIP3    H137540   4.811   1.299  14.725 -0.4284 -0.0089 -0.1805
 5375TIP3    H237541   4.682   1.245  14.781  0.0217 -1.5250 -0.5709
 5376TIP3   OH237542   6.133   3.951  12.837  0.1962  0.3020  0.2689
 5376TIP3    H137543   6.124   3.960  12.742 -0.1953  0.6172  0.3376
 5376TIP3    H237544   6.228   3.942  12.850  0.2282 -0.0682 -0.1771
 5377TIP3   OH237545   3.657   1.052  13.054 -0.0477  0.5999 -0.3151
 5377TIP3    H137546   3.562   1.063  13.053 -0.0250  0.8178 -0.2236
 5377TIP3    H237547   3.684   1.064  12.963  0.0798  2.2938 -0.0866
 5378TIP3   OH237548   5.043   1.279   6.818 -0.1776  0.0579  0.4008
 5378TIP3    H137549   4.984   1.348   6.847  0.8297  1.4117 -0.6530
 5378TIP3    H237550   5.111   1.276   6.885 -0.8311 -0.7590  1.0535
 5379TIP3   OH237551   5.419   3.238  13.123  0.0902 -0.4228  0.1573
 5379TIP3    H137552   5.432   3.195  13.039  0.0765 -1.2118  0.5477
 5379TIP3    H237553   5.452   3.327  13.110 -0.5407 -0.3163 -0.8783
 5380TIP3   OH237554   5.104   3.036   4.986  0.1701 -0.0459 -0.0528
 5380TIP3    H137555   5.059   3.057   4.904 -0.9935 -1.3098  0.2247
 5380TIP3    H237556   5.114   2.941   4.984 -0.3595 -0.1577  1.4967
 5381TIP3   OH237557   3.311   0.811   4.120  0.0007 -0.1723  0.3022
 5381TIP3    H137558   3.319   0.889   4.174  1.7997 -0.4822  0.5503
 5381TIP3    H237559   3.217   0.802   4.105 -0.2753  1.8010  0.5818
 5382TIP3   OH237560   2.419   6.557   2.391  0.4660  0.4284 -0.4121
 5382TIP3    H137561   2.494   6.615   2.407  0.0297  0.8589  0.1213
 5382TIP3    H237562   2.410   6.555   2.296  2.5970 -1.5094 -0.6367
 5383TIP3   OH237563   1.918   3.668   5.347 -0.2903  0.3714 -0.2592
 5383TIP3    H137564   1.861   3.607   5.394 -1.4515  0.5719 -1.3571
 5383TIP3    H237565   1.901   3.650   5.255 -0.7694  2.4196 -0.6218
 5384TIP3   OH237566   0.084   5.524   4.449 -0.1582  0.1382  0.0053
 5384TIP3    H137567   0.024   5.453   4.425  0.5744  0.0555 -1.7678
 5384TIP3    H237568   0.076   5.532   4.544 -1.5014 -1.1846  0.0354
 5385TIP3   OH237569   5.304   0.464   2.174  0.2694  0.4618  0.1944
 5385TIP3    H137570   5.353   0.382   2.179  1.8356  1.3258 -0.2401
 5385TIP3    H237571   5.275   0.481   2.263 -1.4029 -1.2936  0.0513
 5386TIP3   OH237572   1.805   4.731  12.880 -0.0327  0.5239 -0.1697
 5386TIP3    H137573   1.845   4.759  12.962  0.4088  1.2692 -0.6233
 5386TIP3    H237574   1.879   4.708  12.824 -0.2769  0.9276 -0.6687
 5387TIP3   OH237575   6.642   6.754  14.551  0.5261  0.0413  0.3369
 5387TIP3    H137576   6.583   6.807  14.497  1.1245 -1.5925 -2.0846
 5387TIP3    H237577   6.703   6.816  14.590 -2.0216  1.6628  2.0166
 5388TIP3   OH237578   3.556   1.059   3.632 -0.1181  0.0976 -0.6742
 5388TIP3    H137579   3.583   0.975   3.667  0.7124  0.2475 -0.9271
 5388TIP3    H237580   3.623   1.080   3.566 -0.4438  0.8409 -0.7789
 5389TIP3   OH237581   1.959   2.482   2.156  0.2716  0.4808 -0.2147
 5389TIP3    H137582   1.991   2.569   2.134 -0.0338  0.5475 -0.3867
 5389TIP3    H237583   1.864   2.488   2.150  0.2888 -0.1707 -1.3849
 5390TIP3   OH237584   6.563   3.056  13.473 -0.0210 -0.8223  0.0033
 5390TIP3    H137585   6.504   3.051  13.548 -0.0453 -0.3147  0.0197
 5390TIP3    H237586   6.649   3.073  13.510 -0.1609  0.2145 -0.1235
 5391TIP3   OH237587   5.154   1.526  12.651  0.7008  0.0754 -0.3705
 5391TIP3    H137588   5.152   1.580  12.730  0.7157  0.4791 -0.6414
 5391TIP3    H237589   5.148   1.436  12.683  1.9075  0.1633  0.1755
 5392TIP3   OH237590   5.646   1.742   1.866 -0.3824 -0.2515 -0.1257
 5392TIP3    H137591   5.725   1.692   1.848 -0.3182 -0.0062 -0.5596
 5392TIP3    H237592   5.594   1.686   1.923  0.4772 -0.0621  0.8667
 5393TIP3   OH237593   1.414   2.292  15.601 -0.3273 -0.1477  0.6893
 5393TIP3    H137594   1.408   2.386  15.613  1.0362  0.0157  0.3088
 5393TIP3    H237595   1.507   2.276  15.586 -0.8232 -1.2344 -1.7228
 5394TIP3   OH237596   2.237   0.240  15.965  0.6614 -0.4999  0.2960
 5394TIP3    H137597   2.323   0.282  15.972  0.8357 -0.5259 -1.2645
 5394TIP3    H237598   2.185   0.301  15.913  0.1480 -1.0826  0.1140
 5395TIP3   OH237599   6.394   4.105  15.669  0.0162 -0.3194  1.0082
 5395TIP3    H137600   6.451   4.175  15.638 -0.0675  0.3614  2.3147
 5395TIP3    H237601   6.416   4.030  15.614  0.8923  0.4272  0.3112
 5396TIP3   OH237602   5.701   6.573  16.769  0.1458  0.2323  0.4214
 5396TIP3    H137603   5.701   6.625  16.688  2.5571  1.0404  0.8421
 5396TIP3    H237604   5.714   6.638  16.838  2.4778 -0.7754  1.0370
 5397TIP3   OH237605   5.359   6.543  16.208  0.3646  0.1127  0.1022
 5397TIP3    H137606   5.291   6.537  16.140 -0.5540 -0.1283  1.0145
 5397TIP3    H237607   5.366   6.636  16.226  1.3254  0.2837 -0.9895
 5398TIP3   OH237608   6.035   0.640  16.447  0.2957  0.1004 -0.1408
 5398TIP3    H137609   5.962   0.676  16.397 -0.5767  0.8595  1.5558
 5398TIP3    H237610   5.993   0.595  16.521  1.4842  2.2067  1.9605
 5399TIP3   OH237611   6.622   0.233   4.736  1.1886 -0.1380  0.4083
 5399TIP3    H137612   6.618   0.287   4.814 -0.7869 -0.6276  0.7049
 5399TIP3    H237613   6.585   0.287   4.667 -1.5058 -1.2068  0.8567
 5400TIP3   OH237614   5.156   3.278  15.922 -0.1757 -0.5482  0.0476
 5400TIP3    H137615   5.071   3.239  15.906  0.7344 -2.9951  0.7198
 5400TIP3    H237616   5.193   3.292  15.835 -1.1582  0.3593 -0.2390
 5401TIP3   OH237617   4.353   0.597  11.515  0.4158 -0.3089 -0.2107
 5401TIP3    H137618   4.261   0.572  11.507  0.3188  0.5301 -2.2661
 5401TIP3    H237619   4.402   0.515  11.504 -0.0716 -0.7764  1.0325
 5402TIP3   OH237620   1.035   6.405   4.793  0.1138  0.3121 -0.2321
 5402TIP3    H137621   0.973   6.469   4.829  0.1286 -0.5694  1.4521
 5402TIP3    H237622   1.102   6.459   4.751  0.9084  1.5700  2.3757
 5403TIP3   OH237623   1.202   1.572  11.318  0.5509  0.3402 -0.6137
 5403TIP3    H137624   1.232   1.660  11.297 -0.0463  0.9298  0.8516
 5403TIP3    H237625   1.160   1.580  11.404  2.2157 -1.7524  0.4947
 5404TIP3   OH237626   4.393   6.053  12.187  0.1443 -0.4557  0.4548
 5404TIP3    H137627   4.456   6.080  12.254  0.0944 -1.0522  0.7459
 5404TIP3    H237628   4.387   6.129  12.128  1.2736 -0.4611  0.3147
 5405TIP3   OH237629   6.695   2.692   1.519  0.1943  0.0424  0.2334
 5405TIP3    H137630   6.735   2.736   1.595  1.4332 -0.3734 -0.1537
 5405TIP3    H237631   6.605   2.675   1.547  0.0969  1.4794  0.9474
 5406TIP3   OH237632   0.146   5.243   3.307 -0.3856 -0.3597  0.3693
 5406TIP3    H137633   0.140   5.228   3.213 -0.0183  0.0025  0.2909
 5406TIP3    H237634   0.106   5.164   3.345  0.1915 -0.8740 -0.0696
 5407TIP3   OH237635   0.036   3.970   2.956 -0.0247 -0.1719  0.4283
 5407TIP3    H137636   0.105   4.022   2.916  0.5582 -0.6254  0.8356
 5407TIP3    H237637   0.030   3.891   2.903 -0.4058 -0.0270  0.2483
 5408TIP3   OH237638   0.061   3.721   3.205 -0.5660  0.3537  0.0425
 5408TIP3    H137639   0.054   3.815   3.220  0.1286  0.1873  1.6298
 5408TIP3    H237640  -0.010   3.683   3.258 -0.6251 -0.0394 -0.3152
 5409TIP3   OH237641   4.701   2.874  11.658 -0.3828 -0.2556 -0.3025
 5409TIP3    H137642   4.638   2.866  11.730 -1.8388 -1.3095 -1.6371
 5409TIP3    H237643   4.658   2.931  11.595  1.4125  1.7045  0.1424
 5410TIP3   OH237644   4.383   2.310  15.670  0.5094  0.8447 -0.1722
 5410TIP3    H137645   4.421   2.294  15.583  0.9498  0.5509  0.0646
 5410TIP3    H237646   4.373   2.222  15.707  0.3604  0.9738  0.0909
 5411TIP3   OH237647   6.449   2.563   1.154  0.0385  0.2254  0.2389
 5411TIP3    H137648   6.403   2.638   1.116 -0.3660 -0.0001  0.2736
 5411TIP3    H237649   6.399   2.487   1.124  1.6671 -0.2000 -1.5567
 5412TIP3   OH237650   3.399   0.523  13.271  0.1139  0.3159 -0.0004
 5412TIP3    H137651   3.339   0.595  13.254  0.9963  1.4579  1.4521
 5412TIP3    H237652   3.408   0.479  13.187 -1.3852  1.1528 -0.6440
 5413TIP3   OH237653   3.859   5.302   4.535 -0.6012  0.5709  0.3293
 5413TIP3    H137654   3.861   5.248   4.614  1.4251  3.0083  2.0988
 5413TIP3    H237655   3.766   5.323   4.524 -0.9101  0.4561  2.3051
 5414TIP3   OH237656   6.753   6.500   6.426 -0.4228 -0.5330 -0.3575
 5414TIP3    H137657   6.690   6.437   6.392 -2.4044  1.6258 -0.9891
 5414TIP3    H237658   6.729   6.583   6.384 -0.0400  1.3563  2.7959
 5415TIP3   OH237659   3.431   3.438   0.551 -0.9582  0.2531 -0.1034
 5415TIP3    H137660   3.508   3.395   0.587 -2.8086 -1.1167  2.5663
 5415TIP3    H237661   3.444   3.531   0.570  0.7113  0.2939 -1.2118
 5416TIP3   OH237662   3.540   3.343  11.959 -0.0831 -0.0716  0.8173
 5416TIP3    H137663   3.486   3.271  11.927 -0.7711  0.7962 -0.0377
 5416TIP3    H237664   3.520   3.348  12.053 -1.0371 -0.1611  0.6321
 5417TIP3   OH237665   0.057   0.455  17.006 -0.3619  0.3461 -0.5090
 5417TIP3    H137666   0.010   0.376  17.035 -1.4838  0.3423 -2.1504
 5417TIP3    H237667   0.098   0.429  16.923  1.9737  0.5975  0.4925
 5418TIP3   OH237668   2.555   3.030  11.750  0.4410  0.3701  0.1819
 5418TIP3    H137669   2.471   3.030  11.704  0.1186  2.2683  0.6535
 5418TIP3    H237670   2.531   3.041  11.842  1.1764 -0.1310  0.4400
 5419TIP3   OH237671   4.350   5.026   6.094 -0.7524  0.0241  0.4670
 5419TIP3    H137672   4.430   5.023   6.146  0.3178 -0.0631 -1.1378
 5419TIP3    H237673   4.310   5.110   6.117  0.8766  1.0236 -0.2462
 5420TIP3   OH237674   1.203   4.713   5.118  0.0414  0.2660 -0.3477
 5420TIP3    H137675   1.279   4.746   5.070  0.3450  0.3860  0.2101
 5420TIP3    H237676   1.239   4.665   5.192 -0.4212  0.1220 -0.2069
 5421TIP3   OH237677   1.812   5.559  11.082  0.3464  0.0057 -0.3276
 5421TIP3    H137678   1.725   5.595  11.101  0.3433  0.1285 -0.5661
 5421TIP3    H237679   1.843   5.525  11.166 -0.8082 -1.9531 -0.6331
 5422TIP3   OH237680   6.447   2.139  12.846  0.2088 -0.2413 -0.0261
 5422TIP3    H137681   6.426   2.220  12.892 -0.3936  0.3991 -1.3781
 5422TIP3    H237682   6.362   2.096  12.833  0.5745 -1.4165  1.2040
 5423TIP3   OH237683   3.685   3.788  14.636  0.2558  0.2027 -0.3953
 5423TIP3    H137684   3.610   3.819  14.686  2.0626  4.2807  0.1997
 5423TIP3    H237685   3.743   3.749  14.701 -0.1303 -0.4695 -0.4378
 5424TIP3   OH237686   0.152   5.107  10.930  0.5795  0.3968 -0.1397
 5424TIP3    H137687   0.151   5.140  11.020  0.8239 -0.1174  0.0590
 5424TIP3    H237688   0.231   5.146  10.892  1.5514 -0.9033  0.4744
 5425TIP3   OH237689   0.099   0.241   5.376 -0.6624  0.0877 -0.0201
 5425TIP3    H137690   0.027   0.236   5.439  1.1604  1.6397  2.3680
 5425TIP3    H237691   0.074   0.312   5.317 -2.6326 -1.7143 -1.5042
 5426TIP3   OH237692   5.978   5.181  14.264  0.2588 -0.2772  0.1217
 5426TIP3    H137693   6.024   5.251  14.310 -1.5699 -0.1803  1.9630
 5426TIP3    H237694   5.919   5.145  14.329  0.8390 -3.3061 -0.8899
 5427TIP3   OH237695   6.665   4.542   2.553  0.0591 -0.1948  0.7485
 5427TIP3    H137696   6.632   4.631   2.564 -0.8323 -0.5999  1.4357
 5427TIP3    H237697   6.592   4.493   2.516  0.1651 -0.9034  1.4539
 5428TIP3   OH237698   0.591   3.751   3.598 -0.0545  0.1111  0.4060
 5428TIP3    H137699   0.674   3.709   3.577  0.2434  1.2922 -0.9441
 5428TIP3    H237700   0.542   3.749   3.515 -0.9722  0.3024  0.9328
 5429TIP3   OH237701   3.509   3.388  12.966  0.7063 -0.0749 -0.1506
 5429TIP3    H137702   3.462   3.467  12.992 -0.6479 -0.7322 -0.5176
 5429TIP3    H237703   3.458   3.316  13.002  0.0619 -0.9136 -2.5231
 5430TIP3   OH237704   0.516   0.417   3.610  0.4901 -0.1407  0.0053
 5430TIP3    H137705   0.612   0.423   3.618  0.4130  1.5700 -0.0416
 5430TIP3    H237706   0.492   0.492   3.556 -0.8111 -1.0864 -0.7671
 5431TIP3   OH237707   1.414   5.928   4.394 -0.1168  0.5899 -0.0090
 5431TIP3    H137708   1.416   5.972   4.309  0.1260  0.9627  0.1859
 5431TIP3    H237709   1.450   5.841   4.377  0.1697  0.7519 -0.2363
 5432TIP3   OH237710   3.070   1.481  13.838 -0.2081 -0.8881  0.4330
 5432TIP3    H137711   3.097   1.396  13.803 -0.6702 -0.9622  0.2510
 5432TIP3    H237712   2.975   1.481  13.830 -0.2118 -0.3645  0.4628
 5433TIP3   OH237713   5.387   6.320  15.715 -0.2607  0.0241 -0.3643
 5433TIP3    H137714   5.424   6.322  15.803 -0.8742 -0.1168 -0.1055
 5433TIP3    H237715   5.351   6.408  15.702 -0.9422 -0.2222 -0.1457
 5434TIP3   OH237716   0.795   4.074  15.356  0.2911 -0.5549  0.1753
 5434TIP3    H137717   0.879   4.118  15.346  0.2139 -0.3537  0.4086
 5434TIP3    H237718   0.802   3.997  15.300  0.3844 -0.1890 -0.3195
 5435TIP3   OH237719   1.081   0.353   3.596 -1.0362 -0.3738  0.4881
 5435TIP3    H137720   1.053   0.361   3.688 -0.6777  0.9165  0.4973
 5435TIP3    H237721   1.061   0.262   3.574 -1.6833 -0.5483  1.6632
 5436TIP3   OH237722   1.084   4.986   0.491  0.5765 -0.1817  0.1891
 5436TIP3    H137723   0.992   4.965   0.501  0.1564  1.1460 -0.6528
 5436TIP3    H237724   1.127   4.901   0.476 -0.7525 -0.6509 -1.2383
 5437TIP3   OH237725   5.172   0.320  16.761  0.3416 -0.5315  0.1526
 5437TIP3    H137726   5.237   0.250  16.764 -0.9406 -1.8177 -0.7907
 5437TIP3    H237727   5.197   0.373  16.685  0.0568 -1.3168 -0.5172
 5438TIP3   OH237728   6.016   4.401  12.097  0.2208  0.0905  0.3278
 5438TIP3    H137729   6.042   4.392  12.189  0.1270 -1.3965  0.2311
 5438TIP3    H237730   6.082   4.459  12.059  0.1697  0.8518  1.3609
 5439TIP3   OH237731   1.109   5.837   1.368 -0.2889  0.0583  0.0619
 5439TIP3    H137732   1.061   5.868   1.444 -0.4589  0.7661 -0.3208
 5439TIP3    H237733   1.100   5.742   1.370  0.8409 -0.0632  1.6715
 5440TIP3   OH237734   4.128   0.945  14.023  0.4599  0.1261 -0.3991
 5440TIP3    H137735   4.104   0.866  13.974  2.5623 -0.9272  0.1588
 5440TIP3    H237736   4.069   0.944  14.099 -0.9415  0.2688 -1.4541
 5441TIP3   OH237737   5.296   5.556  12.301 -0.1292 -0.2849  0.6051
 5441TIP3    H137738   5.255   5.580  12.384 -0.3132 -0.6509  0.6254
 5441TIP3    H237739   5.242   5.484  12.268 -0.9934  0.8762 -0.5982
 5442TIP3   OH237740   3.575   3.310   0.352  0.1221  0.0401  0.3325
 5442TIP3    H137741   3.611   3.238   0.403  1.3628  0.3966 -0.0020
 5442TIP3    H237742   3.528   3.363   0.416  2.7114  1.1788  1.4501
 5443TIP3   OH237743   1.496   2.951   4.091  0.2289 -0.2643 -0.1860
 5443TIP3    H137744   1.544   2.925   4.013  1.2248 -1.3905  0.7563
 5443TIP3    H237745   1.554   3.012   4.136 -0.0445 -0.1437  0.0097
 5444TIP3   OH237746   2.303   2.501  15.408  0.0196  0.4450  0.3731
 5444TIP3    H137747   2.380   2.458  15.443  0.3861  0.2904 -0.6067
 5444TIP3    H237748   2.241   2.430  15.391  1.0314  0.1057 -2.2939
 5445TIP3   OH237749   1.656   0.188  14.112 -0.2744  0.4662 -0.2543
 5445TIP3    H137750   1.588   0.250  14.083 -0.3678  0.5026  0.0339
 5445TIP3    H237751   1.663   0.204  14.206  0.0404  0.3666 -0.2630
 5446TIP3   OH237752   1.656   2.193  12.550 -0.5882  0.0735 -0.1439
 5446TIP3    H137753   1.686   2.131  12.484  2.7006  1.9089 -0.5624
 5446TIP3    H237754   1.690   2.278  12.521 -2.9539  1.7608  1.5872
 5447TIP3   OH237755   1.049   4.834  15.531 -0.2851 -0.2773  0.1361
 5447TIP3    H137756   1.092   4.885  15.462 -0.3773  0.4200  0.5763
 5447TIP3    H237757   1.024   4.900  15.596  1.6340 -1.1325  1.8340
 5448TIP3   OH237758   2.815   6.756  13.993 -0.2871 -0.6019 -0.2627
 5448TIP3    H137759   2.797   6.676  14.041 -1.6808 -0.5882 -0.7334
 5448TIP3    H237760   2.766   6.747  13.911  2.9421 -1.1815 -2.3335
 5449TIP3   OH237761   5.525   1.466  11.932 -0.8667 -0.3350  0.6780
 5449TIP3    H137762   5.436   1.432  11.930 -0.5924 -1.1939  1.8648
 5449TIP3    H237763   5.514   1.559  11.955 -1.4160 -0.7842  2.3983
 5450TIP3   OH237764   5.815   6.291  16.721 -0.1397 -0.0818  0.0185
 5450TIP3    H137765   5.760   6.364  16.695  0.0086  0.8506  2.1750
 5450TIP3    H237766   5.776   6.258  16.802  0.3711 -1.7727 -0.3783
 5451TIP3   OH237767   1.364   1.328   5.684  0.0809  0.0489  0.1574
 5451TIP3    H137768   1.370   1.422   5.703  0.2253  0.0752 -0.0076
 5451TIP3    H237769   1.447   1.293   5.716  0.7303  0.2447 -1.2415
 5452TIP3   OH237770   5.025   6.153   3.900  0.0875  0.1854 -0.5099
 5452TIP3    H137771   5.007   6.075   3.847  0.9827 -0.7170  0.4511
 5452TIP3    H237772   4.985   6.133   3.985  0.4879  0.6961 -0.1943
 5453TIP3   OH237773   2.051   5.592   4.007  0.1262 -0.5561  0.3119
 5453TIP3    H137774   2.143   5.595   3.982  0.5525 -0.6023  1.7969
 5453TIP3    H237775   2.016   5.678   3.984  0.5942 -0.4544 -0.0184
 5454TIP3   OH237776   4.928   5.013  14.690  0.7667 -0.2726  0.0184
 5454TIP3    H137777   4.940   4.955  14.615  0.6767 -0.5076  0.1850
 5454TIP3    H237778   4.855   4.975  14.739 -1.8965  2.0226 -1.8499
 5455TIP3   OH237779   3.626   1.498   5.212 -0.1557  0.2286 -0.2448
 5455TIP3    H137780   3.617   1.593   5.201  0.9025  0.5894  1.5689
 5455TIP3    H237781   3.698   1.474   5.154 -3.0426 -0.2994 -4.0038
 5456TIP3   OH237782   2.473   2.654   0.254  0.0323 -0.1154 -0.1034
 5456TIP3    H137783   2.560   2.666   0.216 -0.3879 -0.2910 -1.1696
 5456TIP3    H237784   2.429   2.593   0.194 -0.7802 -0.1264  0.4863
 5457TIP3   OH237785   5.804   5.560  16.953  0.2157 -0.2405  0.7747
 5457TIP3    H137786   5.730   5.618  16.971 -1.5022 -1.2841 -2.1944
 5457TIP3    H237787   5.879   5.618  16.945 -1.0372  1.3384  0.0065
 5458TIP3   OH237788   4.964   5.935  16.543  0.3047  0.0002 -0.2561
 5458TIP3    H137789   4.914   6.006  16.583 -0.3343 -0.3065 -0.4840
 5458TIP3    H237790   4.917   5.916  16.462  0.3407 -0.8118 -0.1000
 5459TIP3   OH237791   4.729   4.553  11.833 -0.5555  0.3960 -0.5162
 5459TIP3    H137792   4.675   4.562  11.754 -1.6294 -0.0386  0.1507
 5459TIP3    H237793   4.707   4.629  11.885 -1.4956 -0.4129  0.3125
 5460TIP3   OH237794   6.162   3.199   0.305  0.1095 -0.4165 -0.1348
 5460TIP3    H137795   6.091   3.151   0.261  0.6836 -2.5623  1.1362
 5460TIP3    H237796   6.165   3.161   0.393  1.7396  0.8247  0.3821
 5461TIP3   OH237797   3.620   4.615  13.427  0.2675  0.9172 -0.2528
 5461TIP3    H137798   3.581   4.627  13.341  0.8884 -0.9054 -0.8347
 5461TIP3    H237799   3.711   4.641  13.416  0.5330 -0.0317 -0.3619
 5462TIP3   OH237800   4.108   5.939  12.296  0.0941  0.2426  0.2076
 5462TIP3    H137801   4.100   5.910  12.205 -0.1532 -0.6496  0.5036
 5462TIP3    H237802   4.185   5.996  12.296  0.6357 -0.4721 -0.3878
 5463TIP3   OH237803   4.929   4.110  13.503 -0.3131 -0.2170  0.2004
 5463TIP3    H137804   4.945   4.047  13.433  1.3040  0.5470 -0.1809
 5463TIP3    H237805   4.958   4.194  13.466 -0.4449  0.3782  1.4071
 5464TIP3   OH237806   4.571   2.780  16.402 -0.7000  0.1311  0.0097
 5464TIP3    H137807   4.571   2.686  16.422  0.7363 -0.2379 -1.4783
 5464TIP3    H237808   4.540   2.784  16.311  1.3239  0.8532 -0.7007
 5465TIP3   OH237809   0.605   1.108  13.414 -0.2065  0.4089 -0.9393
 5465TIP3    H137810   0.626   1.201  13.418  1.0687  0.1032  1.0808
 5465TIP3    H237811   0.523   1.100  13.463  0.9155  0.2402  1.0374
 5466TIP3   OH237812   0.233   2.456   5.784  0.2853  0.0904 -0.3155
 5466TIP3    H137813   0.208   2.372   5.824 -0.9203  0.3810 -0.4235
 5466TIP3    H237814   0.293   2.496   5.847 -2.2966  0.9683  1.7531
 5467TIP3   OH237815   2.861   5.032  12.836 -0.6250  0.7001 -0.1163
 5467TIP3    H137816   2.910   4.961  12.796 -3.6223 -1.1764 -0.7550
 5467TIP3    H237817   2.895   5.038  12.926  0.3351 -0.8954 -0.3505
 5468TIP3   OH237818   1.770   2.422   3.724 -0.0552 -0.1530  0.1161
 5468TIP3    H137819   1.795   2.371   3.801  1.7319  0.4715 -0.0072
 5468TIP3    H237820   1.848   2.422   3.669 -0.6634  1.0640 -0.7923
 5469TIP3   OH237821   1.973   6.480  12.309  0.6805  0.0440 -0.1590
 5469TIP3    H137822   2.041   6.546  12.296 -0.0002  0.4606 -1.7690
 5469TIP3    H237823   1.901   6.508  12.253 -1.0603 -0.1080  1.8870
 5470TIP3   OH237824   1.999   2.525  11.603  0.0511  0.0450  0.2753
 5470TIP3    H137825   1.958   2.609  11.584 -0.9533 -0.2134  1.1807
 5470TIP3    H237826   2.034   2.496  11.519  1.2951  1.7946  0.1289
 5471TIP3   OH237827   0.248   4.579   2.909  0.0201  0.4901  0.3019
 5471TIP3    H137828   0.243   4.660   2.858  1.0386  0.1735 -0.3380
 5471TIP3    H237829   0.181   4.522   2.871  0.9504  0.1527 -0.9150
 5472TIP3   OH237830   3.505   6.696   2.224 -0.1196 -0.2420 -0.7910
 5472TIP3    H137831   3.521   6.781   2.184  0.3369  0.1846  0.2771
 5472TIP3    H237832   3.592   6.656   2.230  0.0704  0.3837  1.2544
 5473TIP3   OH237833   6.454   0.153  15.485  0.3179  0.2846  0.4331
 5473TIP3    H137834   6.447   0.178  15.393  1.2932  1.1396  0.5704
 5473TIP3    H237835   6.546   0.128  15.497  0.1202 -0.1689  1.0891
 5474TIP3   OH237836   3.987   5.033  11.072  0.3056  0.4621  0.1357
 5474TIP3    H137837   4.007   5.118  11.032  0.5009  0.5214  0.3590
 5474TIP3    H237838   3.928   4.991  11.010  0.2523  0.7395 -0.0029
 5475TIP3   OH237839   0.921   6.023  13.302  0.5021  0.4174 -0.6804
 5475TIP3    H137840   0.981   6.049  13.372 -2.1382 -0.8618  2.3394
 5475TIP3    H237841   0.865   6.100  13.288 -1.0469 -0.2917  1.1383
 5476TIP3   OH237842   0.790   4.708   2.650 -0.4544  0.2216 -0.5140
 5476TIP3    H137843   0.810   4.721   2.743  1.2645 -0.1142 -0.8025
 5476TIP3    H237844   0.771   4.796   2.617 -2.1725  0.2303  0.3384
 5477TIP3   OH237845   6.736   1.863   4.649 -0.4067 -0.2411 -0.7664
 5477TIP3    H137846   6.732   1.778   4.692  1.7794 -0.0731 -0.0642
 5477TIP3    H237847   6.706   1.925   4.716  1.8674 -0.1032  0.2205
 5478TIP3   OH237848   3.794   5.287  14.670  0.3125  0.4006  0.7730
 5478TIP3    H137849   3.746   5.328  14.598  0.1750  0.9282  1.1637
 5478TIP3    H237850   3.733   5.288  14.743  0.1780 -0.8290  0.6947
 5479TIP3   OH237851   2.853   1.756   0.402 -0.3783  0.2927 -0.3384
 5479TIP3    H137852   2.902   1.838   0.392 -0.0287  0.3090  1.2327
 5479TIP3    H237853   2.910   1.701   0.456 -0.7391 -0.8864 -1.1247
 5480TIP3   OH237854   6.212   6.505   0.078  0.1254 -0.6060 -0.4113
 5480TIP3    H137855   6.244   6.421   0.113 -0.6596 -2.2510 -3.3040
 5480TIP3    H237856   6.286   6.564   0.087  0.6417 -1.4911  1.9330
 5481TIP3   OH237857   2.777   3.788  15.089 -0.0974 -0.0325 -0.3617
 5481TIP3    H137858   2.683   3.773  15.085 -0.1669  0.3998 -0.4519
 5481TIP3    H237859   2.812   3.743  15.013 -0.3409  0.5709 -0.8341
 5482TIP3   OH237860   2.918   3.894   5.340  0.4691  0.2585  0.0489
 5482TIP3    H137861   2.938   3.803   5.319  2.3453  1.0800 -2.2206
 5482TIP3    H237862   2.974   3.914   5.415 -0.0824 -0.4728  0.6704
 5483TIP3   OH237863   6.360   2.964  14.970  0.3921  0.5191  0.2171
 5483TIP3    H137864   6.337   2.874  14.991 -0.4393 -0.2795 -3.3507
 5483TIP3    H237865   6.291   3.017  15.010 -2.5608 -1.0510 -2.3666
 5484TIP3   OH237866   5.482   1.916  16.188  0.3316  0.4965  0.0689
 5484TIP3    H137867   5.451   1.828  16.210  1.2635 -0.0490 -0.6791
 5484TIP3    H237868   5.551   1.933  16.252  0.4056  0.5241 -0.0181
 5485TIP3   OH237869   4.039   3.067  11.695  0.2021  0.0361  0.0305
 5485TIP3    H137870   4.064   3.158  11.711  2.4125 -0.3309 -0.9518
 5485TIP3    H237871   4.010   3.065  11.604  0.8512 -0.3318 -0.1817
 5486TIP3   OH237872   0.280   3.402  12.610 -0.4034  0.0317  0.4433
 5486TIP3    H137873   0.222   3.333  12.641  0.1302  0.3278  2.1860
 5486TIP3    H237874   0.367   3.376  12.640 -0.0522  0.9744  0.2901
 5487TIP3   OH237875   0.352   6.687   0.625  0.6106 -0.5172  0.0116
 5487TIP3    H137876   0.299   6.712   0.702 -3.1932 -4.0380 -1.0602
 5487TIP3    H237877   0.430   6.647   0.663  0.9983  1.7096  1.8311
 5488TIP3   OH237878   0.447   1.569  12.985 -0.0754  0.0966  0.0705
 5488TIP3    H137879   0.517   1.612  12.936  0.3607 -0.4013  0.2471
 5488TIP3    H237880   0.376   1.634  12.987  0.1668  0.3921 -0.5910
 5489TIP3   OH237881   4.779   2.978   2.182  1.5048 -0.1853 -0.1772
 5489TIP3    H137882   4.817   3.013   2.101 -2.2028  1.2648 -1.5521
 5489TIP3    H237883   4.741   2.894   2.157  0.6039  0.1256  0.1028
 5490TIP3   OH237884   6.279   2.033  14.497 -0.1365  0.2051 -0.0070
 5490TIP3    H137885   6.245   2.025  14.408 -1.0996 -0.9522  0.4351
 5490TIP3    H237886   6.327   1.952  14.511 -1.6294 -0.5385  1.1599
 5491TIP3   OH237887   2.079   2.325  15.442 -0.2044  0.1845  0.3953
 5491TIP3    H137888   1.984   2.318  15.445 -0.2566  0.7796  0.2183
 5491TIP3    H237889   2.106   2.261  15.375 -0.4163 -0.5085  0.9637
 5492TIP3   OH237890   0.398   0.798   0.679  0.0479 -0.0087  0.0925
 5492TIP3    H137891   0.466   0.767   0.738  1.4058  0.6489 -1.0591
 5492TIP3    H237892   0.371   0.883   0.716 -0.1998 -0.2947  0.5779
 5493TIP3   OH237893   3.913   6.480   0.113  0.2016  0.3525  0.1979
 5493TIP3    H137894   3.863   6.553   0.150 -0.3879 -0.0179  0.1453
 5493TIP3    H237895   3.946   6.433   0.189 -1.0259 -0.4195  0.2656
 5494TIP3   OH237896   3.758   3.910  14.404 -0.2408 -0.1471  0.2342
 5494TIP3    H137897   3.791   3.989  14.448 -2.7810  1.0649  0.1398
 5494TIP3    H237898   3.740   3.849  14.476  1.8266 -0.7780  0.3024
 5495TIP3   OH237899   2.737   3.696  12.663 -0.1911  0.2877 -0.0702
 5495TIP3    H137900   2.810   3.639  12.687 -0.3707  0.2747  0.4638
 5495TIP3    H237901   2.684   3.702  12.742 -1.3753 -0.6086 -0.7673
 5496TIP3   OH237902   2.504   5.089  16.707 -0.3667  0.5633  0.8808
 5496TIP3    H137903   2.469   5.114  16.621  2.6080  0.5033 -0.4762
 5496TIP3    H237904   2.467   5.003  16.724 -1.1032  0.6278 -0.2967
 5497TIP3   OH237905   5.175   5.994  12.164 -0.6079 -0.2799  0.1131
 5497TIP3    H137906   5.131   5.925  12.214 -1.3096  0.8138  1.0665
 5497TIP3    H237907   5.167   5.968  12.073 -0.3724 -1.7236  0.4927
 5498TIP3   OH237908   3.937   6.576   1.517 -0.1208  0.1990  0.9262
 5498TIP3    H137909   3.939   6.484   1.489 -1.6560  0.3765  0.0720
 5498TIP3    H237910   3.975   6.624   1.444 -2.8792  0.5374 -0.4360
 5499TIP3   OH237911   5.072   5.911  10.410 -0.1919  0.5757  0.4932
 5499TIP3    H137912   4.984   5.935  10.441 -1.0364 -1.1774 -0.4101
 5499TIP3    H237913   5.084   5.822  10.442 -0.1465 -0.4525 -2.1611
 5500TIP3   OH237914   5.688   5.700   3.383 -0.4501  0.1889 -0.5502
 5500TIP3    H137915   5.663   5.613   3.414  0.4557 -0.1726 -0.7856
 5500TIP3    H237916   5.644   5.760   3.442 -0.1917 -0.4593  0.3297
 5501TIP3   OH237917   6.099   5.037  14.545  0.0603 -0.8202 -0.3200
 5501TIP3    H137918   6.077   4.946  14.523 -1.2228 -0.5340 -0.2541
 5501TIP3    H237919   6.030   5.089  14.506 -0.5517 -0.0527  1.6690
 5502TIP3   OH237920   1.945   4.395   2.979 -0.1255  0.0996 -0.0773
 5502TIP3    H137921   1.972   4.450   2.906 -0.9354  1.8592  0.8794
 5502TIP3    H237922   1.984   4.436   3.056  1.2391 -2.0575  0.5003
 5503TIP3   OH237923   5.723   0.368  11.489  0.2412 -0.1603 -0.2382
 5503TIP3    H137924   5.723   0.460  11.463  0.8945  0.2451  1.0757
 5503TIP3    H237925   5.757   0.321  11.413  0.6392  0.7779 -0.6543
 5504TIP3   OH237926   1.038   2.366   2.747 -0.1801 -0.6787 -0.3500
 5504TIP3    H137927   1.019   2.458   2.767 -0.5018 -0.3968 -1.8581
 5504TIP3    H237928   0.952   2.322   2.752  0.3377 -1.6483  3.6352
 5505TIP3   OH237929   4.813   0.323  15.745  0.0164 -0.0986  0.0886
 5505TIP3    H137930   4.788   0.282  15.828 -0.2649 -1.0019 -0.4228
 5505TIP3    H237931   4.905   0.298  15.734 -0.1936 -0.7417 -0.2909
 5506TIP3   OH237932   1.398   0.010  17.136  0.1809  0.2259  0.0219
 5506TIP3    H137933   1.470  -0.019  17.079  0.3952 -1.1343  0.9587
 5506TIP3    H237934   1.428  -0.010  17.224 -0.3608  1.8553  0.6058
 5507TIP3   OH237935   5.250   1.597   5.668 -0.3940 -0.2833  0.3725
 5507TIP3    H137936   5.282   1.639   5.748  0.1818 -1.8711  1.0212
 5507TIP3    H237937   5.326   1.592   5.611  0.2017 -2.5795  1.2698
 5508TIP3   OH237938   2.819   1.122  16.549  0.2443 -0.6806  0.3747
 5508TIP3    H137939   2.843   1.185  16.617 -0.8812 -0.3024  0.4429
 5508TIP3    H237940   2.836   1.167  16.467  1.2863 -1.0144  0.3952
 5509TIP3   OH237941   1.974   0.766  13.001  0.1291  0.4342  0.0771
 5509TIP3    H137942   1.904   0.702  13.015  0.3982 -0.1198 -1.0131
 5509TIP3    H237943   1.996   0.797  13.089  0.0760 -1.0634  0.6463
 5510TIP3   OH237944   0.150   4.143   6.198 -0.2851 -0.4517 -0.6397
 5510TIP3    H137945   0.180   4.141   6.107 -0.3369 -2.9760 -0.6736
 5510TIP3    H237946   0.225   4.177   6.247  0.8283 -1.7854 -1.3342
 5511TIP3   OH237947   3.052   3.761   0.292  0.5020 -0.3675 -0.3167
 5511TIP3    H137948   3.088   3.740   0.378 -0.6723  0.1026  0.3217
 5511TIP3    H237949   2.963   3.727   0.294  0.3493 -0.0635 -1.2393
 5512TIP3   OH237950   0.637   5.981  14.672  0.1011 -0.0831  0.0386
 5512TIP3    H137951   0.613   6.037  14.598  1.0900  0.1209 -0.1473
 5512TIP3    H237952   0.636   5.892  14.637  1.8068  0.1015 -0.6142
 5513TIP3   OH237953   1.453   4.824   0.327  0.5395 -0.3176  0.6370
 5513TIP3    H137954   1.536   4.854   0.291 -0.9172  1.8544 -1.2729
 5513TIP3    H237955   1.442   4.874   0.408  0.4427  0.5545  0.0991
 5514TIP3   OH237956   5.267   2.965   2.547 -0.5734 -0.7229  0.3268
 5514TIP3    H137957   5.361   2.981   2.532 -0.9568  1.5186 -0.0501
 5514TIP3    H237958   5.243   3.029   2.614 -2.0140 -0.7198 -0.1702
 5515TIP3   OH237959   1.540   2.968   0.396  0.0267 -0.5694  0.3803
 5515TIP3    H137960   1.535   3.045   0.338  0.9143  0.2630  1.3488
 5515TIP3    H237961   1.494   2.995   0.476 -2.6133 -2.2798 -0.4557
 5516TIP3   OH237962   6.230   1.154   3.214 -0.6161  0.0429  0.2597
 5516TIP3    H137963   6.284   1.140   3.292 -1.0603  1.1259  0.7915
 5516TIP3    H237964   6.283   1.122   3.142  0.6067  0.7423  0.8131
 5517TIP3   OH237965   2.036   3.426  13.120  0.3600 -0.1574  0.8156
 5517TIP3    H137966   2.040   3.508  13.070 -0.1863 -0.8608 -0.4386
 5517TIP3    H237967   2.126   3.409  13.146  0.4540  0.9354  1.2575
 5518TIP3   OH237968   1.883   0.495  11.711 -0.3360 -0.1121 -0.0741
 5518TIP3    H137969   1.958   0.489  11.653  0.4967 -2.1805  1.1318
 5518TIP3    H237970   1.874   0.589  11.727  0.4715  0.3714 -2.1180
 5519TIP3   OH237971   2.047   2.582   2.763 -0.3058  0.3147 -0.4160
 5519TIP3    H137972   2.088   2.664   2.787  2.4074 -0.8663 -0.6848
 5519TIP3    H237973   2.002   2.600   2.681  0.8253  1.3743 -0.8289
 5520TIP3   OH237974   2.367   5.573  11.091  0.6636 -0.4032  0.5868
 5520TIP3    H137975   2.346   5.615  11.007  1.6581  0.9366  0.9640
 5520TIP3    H237976   2.427   5.502  11.068  0.7892 -0.1549  0.1393
 5521TIP3   OH237977   0.119   5.299   2.714  0.0687 -0.1205  0.2073
 5521TIP3    H137978   0.041   5.256   2.749 -0.9573  0.5414 -1.1609
 5521TIP3    H237979   0.136   5.254   2.632 -1.4719  2.3997 -1.6544
 5522TIP3   OH237980   3.749   6.260  12.719 -0.5306  0.3531  0.4937
 5522TIP3    H137981   3.683   6.262  12.789 -0.2421  0.9209  0.7533
 5522TIP3    H237982   3.760   6.167  12.699 -1.0297  0.2220  0.8098
 5523TIP3   OH237983   3.113   0.699   0.619  0.8980  0.4748 -0.1502
 5523TIP3    H137984   3.103   0.644   0.696 -0.5763  0.2103 -0.5028
 5523TIP3    H237985   3.080   0.785   0.647 -0.1045  0.2533 -0.6004
 5524TIP3   OH237986   1.731   4.345   1.712 -0.1231 -0.1649  0.0297
 5524TIP3    H137987   1.642   4.314   1.728 -0.0661  0.5311  2.0112
 5524TIP3    H237988   1.782   4.265   1.696 -0.8922 -0.6530 -0.0509
 5525TIP3   OH237989   6.494   3.610  13.911  0.2884  0.3361 -0.4152
 5525TIP3    H137990   6.571   3.577  13.863  0.8732  0.6224  0.3019
 5525TIP3    H237991   6.451   3.531  13.943  0.6226  0.1967 -0.3080
 5526TIP3   OH237992   4.160   6.524  11.573  0.0532  0.1958 -0.0695
 5526TIP3    H137993   4.205   6.453  11.527  0.2654 -0.1500  0.6577
 5526TIP3    H237994   4.222   6.597  11.571  0.2172  0.0587  0.0084
 5527TIP3   OH237995   2.951   5.707  16.030 -0.3122  0.3067 -0.1683
 5527TIP3    H137996   2.938   5.617  16.057  0.3906 -0.1963 -1.4251
 5527TIP3    H237997   3.043   5.711  16.003  0.2077  1.8735  1.5578
 5528TIP3   OH237998   3.326   0.685   1.185 -0.8455  0.3120 -0.4050
 5528TIP3    H137999   3.422   0.692   1.187 -0.6229 -1.9973  1.8370
 5528TIP3    H238000   3.296   0.743   1.255 -0.8545 -0.6773  0.4484
 5529TIP3   OH238001   0.016   6.416  16.448 -0.1590 -0.2355 -0.3048
 5529TIP3    H138002  -0.052   6.412  16.381 -0.2289 -1.5207 -0.1801
 5529TIP3    H238003  -0.010   6.489  16.504  0.4750  1.5760 -2.2444
 5530TIP3   OH238004   1.896   6.067  12.737  0.1450 -0.0357  0.4393
 5530TIP3    H138005   1.980   6.105  12.764 -0.0293  0.0360  0.8965
 5530TIP3    H238006   1.874   6.114  12.657  0.9559 -0.6593 -0.1665
 5531TIP3   OH238007   1.124   5.630   2.637 -0.5165  0.0717 -0.4759
 5531TIP3    H138008   1.120   5.618   2.732 -0.8514 -1.9123 -0.6964
 5531TIP3    H238009   1.218   5.630   2.617 -0.4626 -0.7907 -0.2609
 5532TIP3   OH238010   5.247   1.239  13.435 -0.1707  0.1632 -0.3983
 5532TIP3    H138011   5.188   1.305  13.472  1.4427  1.4034  0.0896
 5532TIP3    H238012   5.231   1.160  13.487 -1.7252  0.3084 -0.6065
 5533TIP3   OH238013   5.827   2.737   0.034 -0.4973  0.3361 -0.1257
 5533TIP3    H138014   5.839   2.820   0.080 -0.5251  0.5133 -0.4381
 5533TIP3    H238015   5.800   2.762  -0.055 -2.6506 -0.0180  0.3692
 5534TIP3   OH238016   6.191   3.110  12.360 -0.2548  0.2223  0.1891
 5534TIP3    H138017   6.184   3.017  12.339 -0.5402 -0.1369  1.7106
 5534TIP3    H238018   6.192   3.112  12.456  0.3031  1.7552  0.1705
 5535TIP3   OH238019   3.214   1.475   4.620 -0.2627 -0.1585 -0.2899
 5535TIP3    H138020   3.255   1.389   4.613  0.7083  0.2695 -0.1507
 5535TIP3    H238021   3.139   1.462   4.678  0.4560 -0.7261  0.5406
 5536TIP3   OH238022   2.693   5.135   3.633 -0.3096 -0.0294  0.5981
 5536TIP3    H138023   2.786   5.118   3.648 -0.1664  1.2338  1.3256
 5536TIP3    H238024   2.649   5.098   3.709 -0.5588 -1.7179 -0.3268
 5537TIP3   OH238025   1.963   5.764  14.129 -0.0769 -0.3539 -0.4390
 5537TIP3    H138026   2.011   5.739  14.050 -0.3507 -1.3456 -0.3023
 5537TIP3    H238027   1.888   5.704  14.132 -0.7839  0.5074 -0.1083
 5538TIP3   OH238028   3.749   1.583   1.501  0.0517 -0.2491 -0.8730
 5538TIP3    H138029   3.716   1.673   1.501 -0.2635 -0.3566 -0.1207
 5538TIP3    H238030   3.796   1.575   1.418  0.1606  0.6356 -0.9110
 5539TIP3   OH238031   3.199   0.105  12.572 -0.6173  0.3055 -0.2298
 5539TIP3    H138032   3.114   0.085  12.611 -1.0050  0.0939 -1.1578
 5539TIP3    H238033   3.223   0.189  12.611 -0.4972 -0.3685  1.2358
 5540TIP3   OH238034   6.644   3.957   4.758  0.0693  0.0818 -0.8698
 5540TIP3    H138035   6.580   4.003   4.813  0.4702 -0.3504 -0.0132
 5540TIP3    H238036   6.690   4.027   4.712 -0.3163  0.4578 -0.6931
 5541TIP3   OH238037   2.930   3.890  16.747 -0.4156 -0.2831 -0.8104
 5541TIP3    H138038   2.977   3.964  16.709 -0.4332 -0.3033 -0.8728
 5541TIP3    H238039   2.959   3.815  16.695  0.3216 -0.4707 -0.1378
 5542TIP3   OH238040   2.847   4.828   1.463 -0.3505  0.3206 -0.6049
 5542TIP3    H138041   2.772   4.868   1.420 -1.0699  0.4157  0.6861
 5542TIP3    H238042   2.906   4.805   1.392 -2.4805 -1.6578 -1.8809
 5543TIP3   OH238043   6.152   4.861  13.247  0.3183 -0.2204  0.5075
 5543TIP3    H138044   6.065   4.893  13.268  0.6468 -0.7966  3.0972
 5543TIP3    H238045   6.202   4.939  13.224 -0.4745  0.2988  0.5284
 5544TIP3   OH238046   6.471   6.749  12.131 -0.0351 -0.1043 -0.7429
 5544TIP3    H138047   6.447   6.831  12.174 -0.9507 -0.7978  0.0822
 5544TIP3    H238048   6.545   6.716  12.182 -0.2884 -0.2793 -0.4903
 5545TIP3   OH238049   1.874   0.666   0.239  0.1179  0.0859  0.0756
 5545TIP3    H138050   1.909   0.587   0.280 -0.5471 -0.1236  0.2462
 5545TIP3    H238051   1.845   0.638   0.152 -1.3149 -0.1566  0.6136
 5546TIP3   OH238052   3.258   5.801  16.288 -0.1112  0.0414 -0.5466
 5546TIP3    H138053   3.318   5.870  16.313  0.7958 -0.2842 -1.7295
 5546TIP3    H238054   3.180   5.847  16.256 -0.7485  0.4577  1.4842
 5547TIP3   OH238055   4.704   2.272   5.941  0.2337  0.1592  0.2371
 5547TIP3    H138056   4.739   2.336   5.879  1.6580 -0.5090  0.2943
 5547TIP3    H238057   4.635   2.318   5.988 -0.9588  0.6699 -1.8865
 5548TIP3   OH238058   5.845   6.002  12.749  0.1452  0.3014  0.5803
 5548TIP3    H138059   5.871   6.079  12.698  1.0321  0.2435  0.9250
 5548TIP3    H238060   5.926   5.970  12.788  0.3565 -2.5664 -1.8540
 5549TIP3   OH238061   1.793   0.640  16.990 -0.5538 -0.3729 -0.1463
 5549TIP3    H138062   1.723   0.576  17.003 -0.5974 -0.3569 -0.2923
 5549TIP3    H238063   1.762   0.694  16.917  0.4399 -1.5396 -1.4915
 5550TIP3   OH238064   5.654   5.421   2.885  0.0417  0.1974 -0.1970
 5550TIP3    H138065   5.584   5.456   2.939  0.9686  0.5215  0.8240
 5550TIP3    H238066   5.673   5.490   2.821  0.8225  0.9841  0.8452
 5551TIP3   OH238067   6.380   4.217   0.015 -0.1759  0.6204 -0.8031
 5551TIP3    H138068   6.440   4.145   0.034  0.6552  1.6910  0.8835
 5551TIP3    H238069   6.393   4.279   0.087 -1.8404  1.8426 -1.4774
 5552TIP3   OH238070   1.089   2.900   3.598 -0.0751  0.0290  0.2967
 5552TIP3    H138071   1.119   2.827   3.544 -0.8432  0.4698 -0.7634
 5552TIP3    H238072   1.009   2.930   3.555  0.6809  2.0402  0.2022
 5553TIP3   OH238073   4.668   2.118  13.446 -0.2506  0.1113  0.3499
 5553TIP3    H138074   4.594   2.073  13.488  1.3196 -0.8949  2.2268
 5553TIP3    H238075   4.735   2.049  13.436  1.1040  1.3675  0.4606
 5554TIP3   OH238076   6.213   6.536  13.168 -0.2486 -0.1391 -0.3003
 5554TIP3    H138077   6.137   6.511  13.219 -0.4612 -0.9738 -0.9871
 5554TIP3    H238078   6.219   6.469  13.099  0.1538  0.8128 -1.2266
 5555TIP3   OH238079   5.198   0.538   1.403  0.2183  0.1815 -0.1987
 5555TIP3    H138080   5.205   0.633   1.404 -3.0021  0.5591 -1.6843
 5555TIP3    H238081   5.155   0.518   1.320  2.1693 -2.7569 -0.6533
 5556TIP3   OH238082   2.373   6.039  15.563  0.3056 -0.4101  0.1871
 5556TIP3    H138083   2.384   6.133  15.553 -1.5483 -0.2010 -0.3046
 5556TIP3    H238084   2.370   6.025  15.658 -0.5830  0.2007  0.2571
 5557TIP3   OH238085   2.619   6.159   1.017 -0.9687  0.3254 -0.1205
 5557TIP3    H138086   2.539   6.118   0.981  0.3740 -0.7892 -2.0444
 5557TIP3    H238087   2.607   6.252   0.999 -1.8903  0.1926 -0.2942
 5558TIP3   OH238088   1.477   0.698  12.227 -0.2182 -0.2694  0.0732
 5558TIP3    H138089   1.534   0.626  12.200 -1.4885 -2.2792  2.4655
 5558TIP3    H238090   1.409   0.701  12.160  1.2410  0.5487 -1.4685
 5559TIP3   OH238091   1.567   4.964  14.886  0.5503  0.0232  0.7714
 5559TIP3    H138092   1.580   5.059  14.886  0.1349  0.0893  1.4869
 5559TIP3    H238093   1.655   4.928  14.869  0.7381  0.5276  0.6431
 5560TIP3   OH238094   0.290   5.729  11.176  0.7530 -0.5459  0.1825
 5560TIP3    H138095   0.271   5.661  11.241 -2.3334 -3.5106 -3.3052
 5560TIP3    H238096   0.215   5.788  11.179 -0.7118 -2.1126 -2.0175
 5561TIP3   OH238097   5.275   3.554   2.066  0.7911 -0.4605 -0.0189
 5561TIP3    H138098   5.322   3.608   2.003  1.8611 -2.3212 -0.9278
 5561TIP3    H238099   5.260   3.471   2.020 -2.6456 -0.2908  0.5667
 5562TIP3   OH238100   3.063   5.953  16.168  0.2182  0.0974  0.0692
 5562TIP3    H138101   3.063   6.043  16.137  1.2860 -0.2285 -0.9527
 5562TIP3    H238102   3.053   5.900  16.089  2.5814 -0.7390  0.2532
 5563TIP3   OH238103   6.535   6.664   3.241  0.2013  0.4034 -0.2555
 5563TIP3    H138104   6.611   6.693   3.291  1.1408 -0.4703 -1.1254
 5563TIP3    H238105   6.513   6.578   3.277  0.6449 -0.0623 -1.0543
 5564TIP3   OH238106   6.476   0.168   0.063 -0.1804 -0.0529 -0.1257
 5564TIP3    H138107   6.516   0.145  -0.021  1.4832  1.1000  0.3111
 5564TIP3    H238108   6.478   0.263   0.065 -0.1537 -0.0719  1.2362
 5565TIP3   OH238109   0.925   3.600  12.645  0.2796  0.2444 -0.2559
 5565TIP3    H138110   0.988   3.616  12.715 -0.5713  0.6398  0.4306
 5565TIP3    H238111   0.898   3.509  12.657  0.2441  0.2672 -0.1674
 5566TIP3   OH238112   3.853   1.424   6.805 -0.4413 -0.6346 -0.4948
 5566TIP3    H138113   3.789   1.356   6.827 -2.2175  1.4901  1.4622
 5566TIP3    H238114   3.915   1.423   6.878  0.5825 -1.2936 -1.3521
 5567TIP3   OH238115   1.351   3.673   3.005 -0.0967  0.0171 -0.3657
 5567TIP3    H138116   1.325   3.765   3.006  2.3878  0.7757  0.7375
 5567TIP3    H238117   1.318   3.638   3.087 -1.6571 -0.3326 -1.0933
 5568TIP3   OH238118   6.628   5.362   3.043  0.2049 -0.1696  0.1210
 5568TIP3    H138119   6.717   5.336   3.017 -0.0091 -1.7763  0.8664
 5568TIP3    H238120   6.640   5.413   3.123  0.5464  0.8937 -0.5967
 5569TIP3   OH238121   6.313   6.025   1.225 -0.3367  0.1622  0.2554
 5569TIP3    H138122   6.302   5.958   1.157 -2.4811 -0.4842  1.1652
 5569TIP3    H238123   6.271   6.103   1.189 -1.8062 -0.2854  0.9288
 5570TIP3   OH238124   5.750   5.054   5.519 -0.4369  0.0019 -0.0031
 5570TIP3    H138125   5.724   5.058   5.427 -3.5506  3.2926  0.7944
 5570TIP3    H238126   5.833   5.101   5.523 -0.2970 -0.1345 -1.0811
 5571TIP3   OH238127   1.060   6.367   3.306  0.1643  0.0208 -0.2381
 5571TIP3    H138128   1.148   6.376   3.342 -0.0731 -0.3505  0.4446
 5571TIP3    H238129   1.073   6.373   3.211  0.7312  1.5773 -0.0936
 5572TIP3   OH238130   2.189   0.875  15.035  0.4628  0.2935  0.4152
 5572TIP3    H138131   2.128   0.848  14.967 -2.1172  3.6422  1.1443
 5572TIP3    H238132   2.158   0.831  15.114  0.6851 -0.0776  0.3007
 5573TIP3   OH238133   2.089   3.330  12.035  0.5750 -0.2535  0.2104
 5573TIP3    H138134   2.050   3.264  11.978  0.4268 -0.3249  0.3954
 5573TIP3    H238135   2.183   3.320  12.022  0.5777  2.2971 -3.0438
 5574TIP3   OH238136   5.950   2.841  16.463  0.3501  0.0382  0.5130
 5574TIP3    H138137   5.961   2.804  16.376  0.3213  0.2419  0.4213
 5574TIP3    H238138   5.882   2.907  16.452  1.5762  1.3241  0.3019
 5575TIP3   OH238139   1.477   1.667   5.255  0.9626  0.8204  0.2842
 5575TIP3    H138140   1.482   1.748   5.205  0.9635  0.3245 -0.5319
 5575TIP3    H238141   1.537   1.607   5.210  1.2366  0.4731  1.0924
 5576TIP3   OH238142   6.452   6.266   5.159  0.1314  0.1150  0.2774
 5576TIP3    H138143   6.385   6.285   5.224  0.2059  3.2805 -0.4345
 5576TIP3    H238144   6.512   6.206   5.204  0.5733  2.6658  3.5002
 5577TIP3   OH238145   2.729   2.798  11.914  0.2961 -0.8106  1.1539
 5577TIP3    H138146   2.680   2.733  11.863 -0.6320  1.0996 -0.5263
 5577TIP3    H238147   2.662   2.859  11.945  1.3603  0.6521  0.6678
 5578TIP3   OH238148   0.918   4.604  15.047  0.3496  0.4065 -0.3094
 5578TIP3    H138149   0.889   4.660  14.976  2.7426  0.8424 -1.0481
 5578TIP3    H238150   1.007   4.577  15.021  0.2531 -1.6375  1.2388
 5579TIP3   OH238151   4.875   3.607   1.911  0.0998 -0.1620  0.1195
 5579TIP3    H138152   4.824   3.620   1.831 -0.4220 -0.8013  0.3410
 5579TIP3    H238153   4.966   3.616   1.883 -0.0323 -1.2225 -0.7267
 5580TIP3   OH238154   2.440   1.658  15.161  0.5486  0.1908 -0.4300
 5580TIP3    H138155   2.450   1.743  15.118 -2.0716  1.4250  1.1041
 5580TIP3    H238156   2.424   1.679  15.253 -2.3652 -1.7147 -0.3486
 5581TIP3   OH238157   4.833   2.974  12.578 -0.2884 -0.4305  0.1996
 5581TIP3    H138158   4.836   3.055  12.528 -3.3248  0.0663  0.6835
 5581TIP3    H238159   4.826   2.905  12.511  1.5034 -0.2935 -0.1786
 5582TIP3   OH238160   1.008   1.592  14.007 -0.7765 -0.3536 -0.1157
 5582TIP3    H138161   1.042   1.503  14.015 -1.6324 -0.9174 -2.1328
 5582TIP3    H238162   0.913   1.582  14.001 -0.7776  0.4640 -2.3611
 5583TIP3   OH238163   5.586   0.395  12.077 -0.0049 -0.1983 -0.5277
 5583TIP3    H138164   5.640   0.457  12.028  1.0639  0.2375  1.1249
 5583TIP3    H238165   5.499   0.402  12.037  0.7551  0.2549 -2.2128
 5584TIP3   OH238166   0.509   0.017  11.284  0.1203 -0.1405  0.2747
 5584TIP3    H138167   0.505  -0.004  11.377  0.6763  0.0600  0.3462
 5584TIP3    H238168   0.596  -0.012  11.257 -1.2012 -3.4695 -0.9783
 5585TIP3   OH238169   3.622   1.923  13.880  0.1468 -0.0705  0.9724
 5585TIP3    H138170   3.624   1.854  13.945  0.2344 -0.0806  0.9595
 5585TIP3    H238171   3.553   1.982  13.909  0.4045  0.0978  1.2529
 5586TIP3   OH238172   5.396   5.732   2.220 -0.5979  0.8579 -0.0214
 5586TIP3    H138173   5.455   5.759   2.150  0.8849  1.3131  1.3162
 5586TIP3    H238174   5.370   5.643   2.198 -0.3316  1.0602 -1.2252
 5587TIP3   OH238175   2.394   3.256   2.377  0.7822 -0.3108 -0.0738
 5587TIP3    H138176   2.299   3.250   2.371  0.7184 -0.3220  0.8430
 5587TIP3    H238177   2.410   3.319   2.447  1.4542 -0.5684  0.0136
 5588TIP3   OH238178   0.934   0.332   2.300 -0.2128  0.4490 -0.4700
 5588TIP3    H138179   0.856   0.277   2.294  0.5217 -0.6192 -0.4017
 5588TIP3    H238180   0.914   0.394   2.370 -0.8459 -0.0693 -0.1791
 5589TIP3   OH238181   1.754   0.294   1.358 -0.3920  0.1024 -0.2436
 5589TIP3    H138182   1.771   0.386   1.377  0.8620 -0.0482 -0.5434
 5589TIP3    H238183   1.732   0.292   1.265 -1.4690  0.2091 -0.0088
 5590TIP3   OH238184   1.056   5.741   0.375  0.4872  0.1930  0.0802
 5590TIP3    H138185   1.045   5.653   0.339 -0.5749  0.3224  0.0709
 5590TIP3    H238186   0.996   5.795   0.324  1.5817  1.0578 -0.3368
 5591TIP3   OH238187   0.274   3.391  12.350  0.0937  0.1357 -0.0576
 5591TIP3    H138188   0.359   3.422  12.319  1.1191 -1.5930  0.8491
 5591TIP3    H238189   0.283   3.390  12.445 -1.1234  0.3931  0.0679
 5592TIP3   OH238190   3.235   3.833  13.275  0.6492  0.4736  0.0937
 5592TIP3    H138191   3.150   3.851  13.316  0.1031 -0.0270 -0.7897
 5592TIP3    H238192   3.255   3.912  13.225  0.4221  0.3713 -0.1611
 5593TIP3   OH238193   0.088   1.112  15.461  0.2746  0.5186 -0.0304
 5593TIP3    H138194   0.002   1.143  15.434 -0.0476 -0.6851 -0.4097
 5593TIP3    H238195   0.093   1.134  15.554  0.3491  2.3175 -0.4111
 5594TIP3   OH238196   4.274   1.826   3.029 -0.0951  0.7041 -0.4498
 5594TIP3    H138197   4.279   1.831   2.934 -1.5985  1.7694 -0.5119
 5594TIP3    H238198   4.342   1.886   3.060  1.3629 -0.7163 -0.7940
 5595TIP3   OH238199   2.882   3.108   1.149 -0.0003 -0.5561  0.0115
 5595TIP3    H138200   2.925   3.194   1.140  0.0381 -0.6638 -0.9056
 5595TIP3    H238201   2.857   3.103   1.241  1.2506 -0.1446  0.3904
 5596TIP3   OH238202   1.177   3.480   5.892  0.5119 -0.2066 -1.2801
 5596TIP3    H138203   1.142   3.422   5.824  0.0659 -0.3187 -0.9605
 5596TIP3    H238204   1.130   3.563   5.879 -0.4383 -0.5858 -0.3805
 5597TIP3   OH238205   4.408   1.793   4.755 -0.3074 -0.1221 -0.0906
 5597TIP3    H138206   4.456   1.750   4.685  1.3711  0.2058  0.8074
 5597TIP3    H238207   4.356   1.723   4.795  0.6262 -0.8366 -0.0933
 5598TIP3   OH238208   1.481   1.888  11.919 -0.7869 -0.2510  0.3006
 5598TIP3    H138209   1.565   1.843  11.927 -1.0822 -1.1165 -1.0825
 5598TIP3    H238210   1.417   1.823  11.948 -1.2646 -1.0049 -2.2164
 5599TIP3   OH238211   3.109   4.049  16.614  0.0622  0.6693  0.0697
 5599TIP3    H138212   3.189   4.018  16.569 -0.4811 -0.0515 -0.4249
 5599TIP3    H238213   3.139   4.123  16.666  1.6586 -1.3036  2.1590
 5600TIP3   OH238214   4.781   2.219   3.117 -0.5434  0.6303 -0.4633
 5600TIP3    H138215   4.758   2.189   3.029  2.5703  0.6703 -1.4292
 5600TIP3    H238216   4.710   2.278   3.141 -3.0884 -1.7141 -1.5775
 5601TIP3   OH238217   0.252   1.970  17.258 -0.6262 -0.2367  1.3250
 5601TIP3    H138218   0.326   2.027  17.237 -3.5776  3.0587 -1.6045
 5601TIP3    H238219   0.201   2.019  17.323 -0.7324 -2.0434  2.6742
 5602TIP3   OH238220   2.882   3.690  13.850 -0.2474  0.3916 -0.0107
 5602TIP3    H138221   2.916   3.745  13.921 -0.9921  0.0772  0.6044
 5602TIP3    H238222   2.940   3.614  13.849 -0.4178  0.2512  0.4711
 5603TIP3   OH238223   0.331   4.940  11.952  0.0368 -0.4140  0.0317
 5603TIP3    H138224   0.260   4.931  12.016 -0.3418 -0.0437 -0.3272
 5603TIP3    H238225   0.295   4.903  11.871  1.0871 -2.3888  0.4220
 5604TIP3   OH238226   5.650   5.407   0.070  0.2127  0.2399 -0.5153
 5604TIP3    H138227   5.681   5.473   0.009  1.7839 -0.8472 -0.9555
 5604TIP3    H238228   5.598   5.347   0.016  0.1219  0.2474 -0.4368
 5605TIP3   OH238229   4.018   4.888   3.378  0.8655 -0.7947  0.1312
 5605TIP3    H138230   4.110   4.890   3.354  1.1238  0.8474  1.0598
 5605TIP3    H238231   3.986   4.976   3.357 -0.8766 -1.7243 -1.4610
 5606TIP3   OH238232   1.316   0.702   0.909  0.0935  0.0986  0.3553
 5606TIP3    H138233   1.399   0.654   0.900  0.7786  1.4392 -0.8590
 5606TIP3    H238234   1.285   0.714   0.820 -0.8487  0.5765  0.7374
 5607TIP3   OH238235   1.903   3.332  13.737 -0.7247  0.3764 -0.1134
 5607TIP3    H138236   1.839   3.401  13.757 -0.3467  1.2447 -1.7621
 5607TIP3    H238237   1.968   3.340  13.807 -1.0047  1.2824  0.0607
 5608TIP3   OH238238   2.164   1.579  15.774 -0.0668 -0.0323  0.0346
 5608TIP3    H138239   2.228   1.649  15.773  0.2804 -0.3468  0.0486
 5608TIP3    H238240   2.183   1.529  15.853 -0.5743  0.0927  0.2440
 5609TIP3   OH238241   6.577   0.581   6.607  0.4275  0.0351 -0.5244
 5609TIP3    H138242   6.617   0.591   6.694 -2.2044  3.3807  0.5078
 5609TIP3    H238243   6.643   0.615   6.547  0.4415  2.5569  0.7891
 5610TIP3   OH238244   3.621   2.210  15.642 -0.6400  0.3209 -0.1587
 5610TIP3    H138245   3.531   2.186  15.662 -1.0660 -1.5113 -3.4473
 5610TIP3    H238246   3.618   2.244  15.553  1.9503 -0.2964 -0.5863
 5611TIP3   OH238247   5.592   4.254  17.003  0.4649 -0.1565 -0.1869
 5611TIP3    H138248   5.549   4.288  17.081  0.0041  1.7774 -1.2144
 5611TIP3    H238249   5.520   4.224  16.947  0.7512 -0.9251 -0.1597
 5612TIP3   OH238250   6.456   4.521   4.332 -0.3716 -0.3323 -0.3381
 5612TIP3    H138251   6.476   4.458   4.401 -3.0381  0.2797  1.1026
 5612TIP3    H238252   6.442   4.467   4.254  0.7160 -1.1860  0.0201
 5613TIP3   OH238253   1.452   6.133  12.905 -0.0802 -0.0227 -0.0428
 5613TIP3    H138254   1.411   6.204  12.954 -0.9442 -1.5138  1.5295
 5613TIP3    H238255   1.545   6.155  12.903 -0.5132  2.0257 -1.2306
 5614TIP3   OH238256   3.616   5.989  17.335 -0.1116  0.3970 -0.0813
 5614TIP3    H138257   3.695   5.956  17.377 -1.3949 -0.1654  2.0318
 5614TIP3    H238258   3.594   6.069  17.384 -1.2002  0.1776 -0.1779
 5615TIP3   OH238259   4.494   3.673  14.886  0.1417 -0.2170  0.0248
 5615TIP3    H138260   4.508   3.751  14.939 -1.0673 -0.6673  1.0618
 5615TIP3    H238261   4.583   3.643  14.865  0.6284  1.3928 -0.3829
 5616TIP3   OH238262   3.185   4.228   5.148 -0.6067 -0.5287  0.3443
 5616TIP3    H138263   3.251   4.167   5.180  0.4436  1.1492  1.5486
 5616TIP3    H238264   3.234   4.296   5.101 -1.3404  1.0150  1.6869
 5617TIP3   OH238265   2.308   4.835   4.826 -0.1658 -0.3894 -0.1542
 5617TIP3    H138266   2.284   4.887   4.749  0.9815  0.8762  0.3191
 5617TIP3    H238267   2.255   4.755   4.817 -0.4110 -0.0784 -2.0019
 5618TIP3   OH238268   0.098   1.494  12.927  0.4579  0.0743 -0.3622
 5618TIP3    H138269   0.187   1.475  12.897 -0.4622 -0.5025 -2.9440
 5618TIP3    H238270   0.064   1.557  12.864 -0.7577  0.8332  0.9913
 5619TIP3   OH238271   3.041   1.252   4.364 -0.8192  0.3278 -0.3653
 5619TIP3    H138272   2.992   1.229   4.285 -1.2404  0.2147 -0.0708
 5619TIP3    H238273   2.989   1.321   4.405 -0.6471  0.3201 -0.1351
 5620TIP3   OH238274   1.055   4.103  11.375  1.2443  0.3107 -0.1386
 5620TIP3    H138275   0.997   4.047  11.427  1.0106 -0.7747 -1.5216
 5620TIP3    H238276   1.013   4.189  11.378 -0.0526 -0.2866 -0.5073
 5621TIP3   OH238277   2.660   5.366  13.698 -0.3505  1.3491  0.1822
 5621TIP3    H138278   2.585   5.363  13.639  0.8584  0.0181 -1.3995
 5621TIP3    H238279   2.726   5.417  13.650  1.6637 -2.0922 -1.0386
 5622TIP3   OH238280   0.217   2.322  10.874 -0.0983 -1.0222 -0.7795
 5622TIP3    H138281   0.188   2.230  10.868  0.8818 -1.2707 -2.1298
 5622TIP3    H238282   0.232   2.348  10.784  1.6820 -0.1973 -0.2855
 5623TIP3   OH238283   4.192   2.271   1.134 -0.1364  0.2721  0.2597
 5623TIP3    H138284   4.223   2.183   1.112  0.0381  0.4259 -0.1070
 5623TIP3    H238285   4.100   2.270   1.109 -0.8183 -0.6036  2.5257
 5624TIP3   OH238286   0.156   5.236   3.756 -0.0928  0.5324  0.7399
 5624TIP3    H138287   0.186   5.273   3.839  1.1393 -0.7967  0.9319
 5624TIP3    H238288   0.193   5.147   3.755  2.9261  1.5646 -2.7457
 5625TIP3   OH238289   4.797   3.025   0.760  0.6896 -0.6038 -0.6696
 5625TIP3    H138290   4.708   3.057   0.745  0.8362  0.9940  1.3718
 5625TIP3    H238291   4.809   2.957   0.694 -1.6053 -0.0647 -1.7718
 5626TIP3   OH238292   0.413   5.041   3.270 -0.5841 -0.5314 -0.1616
 5626TIP3    H138293   0.467   5.065   3.345 -0.2207  0.0880 -0.6054
 5626TIP3    H238294   0.326   5.028   3.306 -1.0212  2.3351  0.0248
 5627TIP3   OH238295   3.258   1.828  17.135  0.2410 -0.5116  0.2079
 5627TIP3    H138296   3.221   1.797  17.052 -1.0107  2.1545 -0.3246
 5627TIP3    H238297   3.319   1.897  17.111 -0.3699  0.5292  1.4852
 5628TIP3   OH238298   3.587   2.620  14.679 -0.0613 -0.7492 -0.0053
 5628TIP3    H138299   3.620   2.687  14.620 -1.8813  0.9934  0.8385
 5628TIP3    H238300   3.665   2.573  14.708  1.5899  2.2826  0.9012
 5629TIP3   OH238301   2.619   1.686   0.247  0.0409 -0.1670 -0.2645
 5629TIP3    H138302   2.533   1.698   0.288 -0.0409  0.1090 -0.5106
 5629TIP3    H238303   2.681   1.725   0.308  0.0636 -0.9393  0.2176
 5630TIP3   OH238304   1.305   3.564   3.251  0.4442 -0.3391 -0.4228
 5630TIP3    H138305   1.257   3.596   3.328  0.6552  0.0845 -0.4622
 5630TIP3    H238306   1.392   3.541   3.285  0.6046  0.0379 -0.5621
 5631TIP3   OH238307   2.883   2.112  16.815  0.0197 -1.0540 -0.0570
 5631TIP3    H138308   2.873   2.144  16.905 -3.1055  1.6652 -1.1716
 5631TIP3    H238309   2.977   2.122  16.797  0.6947 -1.4303  2.7544
 5632TIP3   OH238310   4.804   4.330   3.944 -0.4631  0.4158 -0.1415
 5632TIP3    H138311   4.712   4.306   3.938 -0.1370 -1.7288  1.8571
 5632TIP3    H238312   4.848   4.249   3.973  1.9993  1.4508 -0.7252
 5633TIP3   OH238313   6.655   6.567  13.544 -0.3650  0.4030  0.2279
 5633TIP3    H138314   6.715   6.493  13.551 -0.9705  0.0089  1.7313
 5633TIP3    H238315   6.708   6.644  13.565  0.1900  0.3889 -1.0194
 5634TIP3   OH238316   3.986   2.140  12.810  0.0636  0.0323  0.0630
 5634TIP3    H138317   4.002   2.233  12.828 -1.9738  0.6184 -0.8768
 5634TIP3    H238318   3.984   2.099  12.897  0.9510  0.8559  0.4932
 5635TIP3   OH238319   4.637   2.547   6.304 -0.1865 -0.0297 -0.2260
 5635TIP3    H138320   4.667   2.600   6.229  0.5398  1.1987  0.8834
 5635TIP3    H238321   4.552   2.584   6.326 -0.9360 -1.1570 -1.1370
 5636TIP3   OH238322   4.811   5.374  12.179 -0.5319 -0.4311 -0.2078
 5636TIP3    H138323   4.732   5.428  12.168 -1.7379 -2.2672 -0.9285
 5636TIP3    H238324   4.783   5.303  12.237  1.8936  1.3492  3.5506
 5637TIP3   OH238325   6.201   1.974   4.323 -0.3152  0.7444  0.2864
 5637TIP3    H138326   6.188   2.018   4.240 -0.4340  0.9545  0.4156
 5637TIP3    H238327   6.272   2.023   4.365  0.6495 -0.1624 -0.2534
 5638TIP3   OH238328   0.265   1.335  15.470  0.1137  0.0527 -0.2918
 5638TIP3    H138329   0.190   1.280  15.447  0.6296 -0.2497 -1.2994
 5638TIP3    H238330   0.287   1.381  15.390  0.5346  0.7216  0.1991
 5639TIP3   OH238331   2.371   1.742  10.525 -0.3166 -0.9885  1.3317
 5639TIP3    H138332   2.339   1.832  10.511  1.7283 -0.4048 -0.1609
 5639TIP3    H238333   2.434   1.750  10.596  1.4352 -0.7421 -0.1566
 5640TIP3   OH238334   1.643   5.744   1.413 -0.0300  0.5731 -0.1905
 5640TIP3    H138335   1.568   5.783   1.460  0.3350  0.7036  0.2876
 5640TIP3    H238336   1.710   5.732   1.481  0.7863  1.4731 -0.8051
 5641TIP3   OH238337   2.494   6.411  14.602 -0.4104 -0.7781 -0.4935
 5641TIP3    H138338   2.450   6.445  14.523 -1.0380 -2.9777 -1.1663
 5641TIP3    H238339   2.567   6.359  14.568  1.2144  0.7068  0.5428
 5642TIP3   OH238340   0.444   5.722  15.658  0.3656  0.3883  0.6715
 5642TIP3    H138341   0.420   5.740  15.568 -0.0904 -0.2009  0.6662
 5642TIP3    H238342   0.499   5.644  15.653 -1.2501 -0.8304  1.0479
 5643TIP3   OH238343   5.362   5.259   1.457 -0.3238  0.1112 -0.0787
 5643TIP3    H138344   5.283   5.272   1.509  0.8258 -0.3320  1.8672
 5643TIP3    H238345   5.395   5.173   1.483 -0.6949 -1.0599 -3.0137
 5644TIP3   OH238346   5.358   1.907   2.419  0.3086  0.2668 -0.0889
 5644TIP3    H138347   5.299   1.956   2.362 -0.6673 -0.4952  0.2283
 5644TIP3    H238348   5.341   1.815   2.398 -1.3545 -0.1356  2.5475
 5645TIP3   OH238349   1.299   6.426  12.435 -0.8117  1.3852 -0.4292
 5645TIP3    H138350   1.391   6.453  12.426 -1.1426  1.9421 -2.9075
 5645TIP3    H238351   1.250   6.507  12.428 -1.5395  1.1642  1.4747
 5646TIP3   OH238352   5.709   0.349   2.303 -0.3030 -0.4680  0.1766
 5646TIP3    H138353   5.618   0.329   2.278 -0.3757 -0.3449  0.3381
 5646TIP3    H238354   5.701   0.397   2.385 -0.0314 -1.5479  0.8663
 5647TIP3   OH238355   2.850   5.541  15.273 -0.3107  0.4859  0.3593
 5647TIP3    H138356   2.883   5.615  15.325 -4.0809  2.5079  0.2314
 5647TIP3    H238357   2.820   5.580  15.191 -1.4707 -1.3351 -0.1506
 5648TIP3   OH238358   1.350   2.522  11.974  0.0799  0.0050 -0.5347
 5648TIP3    H138359   1.346   2.606  11.928 -0.6072  0.7121  0.7405
 5648TIP3    H238360   1.444   2.506  11.984  0.2288  0.2179 -1.4866
 5649TIP3   OH238361   2.933   5.780   4.985  0.3997  0.1491  0.0185
 5649TIP3    H138362   2.890   5.712   5.037  0.8502 -1.4481 -1.5767
 5649TIP3    H238363   3.024   5.750   4.980  1.4855  2.6821  2.0884
 5650TIP3   OH238364   5.380   2.047   3.557 -0.4098 -0.2912 -0.0860
 5650TIP3    H138365   5.375   2.033   3.651  0.6148  0.5318  0.1079
 5650TIP3    H238366   5.344   2.134   3.544 -3.5112 -1.5540 -0.8684
 5651TIP3   OH238367   4.282   1.796  16.389 -0.1402  0.3194 -0.0160
 5651TIP3    H138368   4.312   1.797  16.480 -0.4182  1.4884  0.0685
 5651TIP3    H238369   4.234   1.878  16.378 -0.3107  0.0829 -1.1566
 5652TIP3   OH238370   6.243   1.163  11.929  0.2409 -0.0865  0.4451
 5652TIP3    H138371   6.168   1.217  11.905 -0.6144 -1.4422 -0.0302
 5652TIP3    H238372   6.221   1.130  12.016  1.4484  1.4797  1.4051
 5653TIP3   OH238373   4.267   3.382   3.869  0.3379 -0.5998  0.5616
 5653TIP3    H138374   4.288   3.301   3.916  0.9223 -0.0610  1.2613
 5653TIP3    H238375   4.311   3.451   3.919  0.4784  0.0681 -0.4484
 5654TIP3   OH238376   5.456   5.594  16.326 -0.6816  0.3283  0.3494
 5654TIP3    H138377   5.393   5.640  16.271  1.5558  2.5666 -0.5204
 5654TIP3    H238378   5.501   5.534  16.266 -1.9500 -1.3626  0.9939
 5655TIP3   OH238379   2.967   4.078  10.762 -0.1772 -0.1341 -0.2717
 5655TIP3    H138380   3.027   4.021  10.810 -1.0140 -0.4304  0.4712
 5655TIP3    H238381   2.907   4.018  10.717 -1.7750  0.0713  1.4250
 5656TIP3   OH238382   4.756   1.400  15.685 -0.4629  0.1107 -0.1412
 5656TIP3    H138383   4.672   1.446  15.684 -1.5478 -1.7326 -2.2968
 5656TIP3    H238384   4.768   1.371  15.594  2.3903  0.0707  0.1714
 5657TIP3   OH238385   3.026   6.484   3.074  0.0594 -0.0492 -0.2185
 5657TIP3    H138386   3.038   6.436   2.992 -0.7592 -0.2177 -0.2445
 5657TIP3    H238387   2.945   6.450   3.111 -0.0742  0.6928  0.2027
 5658TIP3   OH238388   6.425   3.574  16.080 -0.6996  0.8066 -1.1613
 5658TIP3    H138389   6.444   3.597  16.171  0.2426  0.4024 -1.2341
 5658TIP3    H238390   6.358   3.636  16.053 -1.5374  0.4526  0.0355
 5659TIP3   OH238391   6.400   6.726  13.406  0.2772 -0.1572  0.4906
 5659TIP3    H138392   6.485   6.682  13.398  0.8633  0.8813  0.7612
 5659TIP3    H238393   6.365   6.695  13.489 -0.2266 -1.5947 -0.2251
 5660TIP3   OH238394   0.827   2.624  15.125 -0.0262  0.4217 -0.1690
 5660TIP3    H138395   0.889   2.679  15.076  1.4659 -1.5284 -0.6164
 5660TIP3    H238396   0.832   2.656  15.215  1.7816  0.2578 -0.1663
 5661TIP3   OH238397   3.105   6.142  17.312  0.1862  0.2654  0.3710
 5661TIP3    H138398   3.168   6.179  17.250 -0.7468  1.4128  0.0917
 5661TIP3    H238399   3.023   6.187  17.294 -0.4328 -0.3307  1.5650
 5662TIP3   OH238400   0.219   4.218  17.071  0.6031  0.1369 -0.1849
 5662TIP3    H138401   0.192   4.285  17.008  2.3543 -1.5382 -2.9221
 5662TIP3    H238402   0.296   4.256  17.114 -0.3137  1.0957  0.6851
 5663TIP3   OH238403   0.982   3.718  16.915 -0.4479 -0.0406 -0.3181
 5663TIP3    H138404   1.003   3.648  16.976  3.3368  1.8649  0.9199
 5663TIP3    H238405   1.030   3.696  16.835  1.4476  1.3297  0.3478
 5664TIP3   OH238406   5.428   3.467  14.175 -0.2956 -0.0190 -0.3618
 5664TIP3    H138407   5.383   3.395  14.131  1.9772 -0.9190 -1.3817
 5664TIP3    H238408   5.511   3.475  14.128 -0.1472  2.8028  0.1914
 5665TIP3   OH238409   4.572   2.112   5.653  0.4207  0.0722  0.2530
 5665TIP3    H138410   4.558   2.207   5.660  0.9415  0.0728  1.3260
 5665TIP3    H238411   4.509   2.074   5.714 -0.0909 -0.3069 -0.4982
 5666TIP3   OH238412   6.342   1.980  16.307  0.1463 -0.6493  0.3098
 5666TIP3    H138413   6.271   2.038  16.283  0.6792 -0.2019 -0.2264
 5666TIP3    H238414   6.334   1.969  16.402  1.1935  1.9012  0.7659
 5667TIP3   OH238415   3.038   6.644  11.267 -0.1459  0.0059  0.6378
 5667TIP3    H138416   2.954   6.666  11.226  0.4272  0.2283 -0.4733
 5667TIP3    H238417   3.103   6.660  11.198  0.6688 -1.6142  0.9783
 5668TIP3   OH238418   2.725   1.223   0.422 -0.0715  0.0063 -0.2690
 5668TIP3    H138419   2.757   1.313   0.414 -0.5113  0.2983  1.0263
 5668TIP3    H238420   2.719   1.191   0.332  0.2398  1.2198 -0.7309
 5669TIP3   OH238421   6.217   1.523  12.208 -0.0546 -0.5197  0.5566
 5669TIP3    H138422   6.174   1.607  12.221  0.5682  0.2284 -1.7573
 5669TIP3    H238423   6.273   1.536  12.132  1.8341 -2.3885  1.5334
 5670TIP3   OH238424   6.259   6.145  14.786  0.8834  0.3417 -0.0401
 5670TIP3    H138425   6.312   6.078  14.828 -1.7626 -3.4718 -2.1353
 5670TIP3    H238426   6.180   6.151  14.840  0.2930  0.3036 -0.8726
 5671TIP3   OH238427   1.120   6.165  11.431  0.1123  0.0647  0.3296
 5671TIP3    H138428   1.155   6.100  11.492  0.2231 -1.6953 -1.4944
 5671TIP3    H238429   1.196   6.194  11.380 -0.4169 -0.8469 -1.0325
 5672TIP3   OH238430   1.864   5.491   6.417 -0.3945  0.1066  0.3173
 5672TIP3    H138431   1.931   5.525   6.359  0.2093  0.7799  1.3662
 5672TIP3    H238432   1.781   5.507   6.371  0.0478  0.8917 -0.2200
 5673TIP3   OH238433   3.305   0.140  14.549  0.0625 -0.1324 -0.1687
 5673TIP3    H138434   3.218   0.162  14.582 -0.3912 -0.8378 -0.8766
 5673TIP3    H238435   3.365   0.185  14.609 -0.7743  0.0414  0.5574
 5674TIP3   OH238436   1.965   4.562  14.708  0.0893  0.4847 -0.1407
 5674TIP3    H138437   1.954   4.496  14.641 -0.2136  0.1276  0.2557
 5674TIP3    H238438   1.981   4.643  14.660 -0.4370  0.2903 -0.6438
 5675TIP3   OH238439   4.726   4.982   2.366  0.3348 -0.5305 -0.6449
 5675TIP3    H138440   4.673   5.058   2.390 -0.9955 -1.1583 -1.5096
 5675TIP3    H238441   4.764   5.005   2.282  0.3956 -0.5998 -0.6361
 5676TIP3   OH238442   4.984   4.364   2.791  0.0348 -0.4791  0.2619
 5676TIP3    H138443   4.906   4.309   2.795  0.0194 -0.5395 -0.6505
 5676TIP3    H238444   5.033   4.331   2.716  0.2728  0.4198 -0.0008
 5677TIP3   OH238445   3.052   4.086  15.493  0.6246  0.3143  0.4505
 5677TIP3    H138446   3.023   4.057  15.580  0.8053 -0.3728  0.2941
 5677TIP3    H238447   3.147   4.092  15.500  0.5211  1.9659  0.7899
 5678TIP3   OH238448   1.124   1.657   3.145  0.1129 -0.0042 -0.1471
 5678TIP3    H138449   1.159   1.741   3.117  0.0552 -0.6747 -2.4015
 5678TIP3    H238450   1.201   1.606   3.170  0.3370  0.0308 -0.7605
 5679TIP3   OH238451   1.071   6.159  14.928 -0.6173  0.0131  0.1826
 5679TIP3    H138452   1.064   6.132  15.019 -0.5552  1.1412  0.5373
 5679TIP3    H238453   1.066   6.078  14.878  0.7582 -0.7626  1.2487
 5680TIP3   OH238454   4.870   4.154  10.557 -0.1997 -0.2052  0.1954
 5680TIP3    H138455   4.884   4.103  10.477  0.9725  2.0916 -1.1509
 5680TIP3    H238456   4.775   4.165  10.562 -0.2767 -0.2624 -0.9636
 5681TIP3   OH238457   2.150   3.374  14.432 -0.1176 -0.5922  0.0536
 5681TIP3    H138458   2.230   3.418  14.462 -1.5079  1.4811  0.9010
 5681TIP3    H238459   2.125   3.317  14.505  0.5005 -1.1823 -0.1806
 5682TIP3   OH238460   0.182   4.534  13.429 -0.3321 -0.4378 -0.6665
 5682TIP3    H138461   0.092   4.566  13.429 -0.2316 -0.0327  0.9952
 5682TIP3    H238462   0.221   4.568  13.349 -0.7776  2.0685  0.0979
 5683TIP3   OH238463   6.427   2.658   2.705  0.1764  0.1803 -0.3861
 5683TIP3    H138464   6.369   2.662   2.629 -1.1110 -1.4394  0.4672
 5683TIP3    H238465   6.370   2.669   2.781  1.5761  3.0137  0.4362
 5684TIP3   OH238466   3.359   2.541  13.402  0.3216 -0.1420 -0.2481
 5684TIP3    H138467   3.326   2.461  13.443  1.2301 -1.1584 -1.3908
 5684TIP3    H238468   3.445   2.554  13.441 -0.9498  1.9957  2.0771
 5685TIP3   OH238469   2.708   0.391   5.686  0.0355  0.2487  0.1929
 5685TIP3    H138470   2.792   0.353   5.659 -1.0350 -2.1938  0.0157
 5685TIP3    H238471   2.670   0.423   5.604  0.4896  0.7059  0.1592
 5686TIP3   OH238472   4.616   1.155   0.426 -0.9326  0.3146  0.6248
 5686TIP3    H138473   4.657   1.102   0.494 -0.0723 -0.6846 -0.6384
 5686TIP3    H238474   4.551   1.207   0.473  1.5378  1.7667  2.6712
 5687TIP3   OH238475   2.778   6.281   1.825  0.0208  0.3451  0.0053
 5687TIP3    H138476   2.838   6.225   1.777 -0.4041 -2.3368  2.3095
 5687TIP3    H238477   2.834   6.336   1.880  0.4277 -0.0958  0.0365
 5688TIP3   OH238478   5.853   1.915   0.228 -0.3004  0.1941  0.0436
 5688TIP3    H138479   5.777   1.874   0.188  0.1516 -0.4702 -0.1549
 5688TIP3    H238480   5.858   2.002   0.188 -1.5466  0.6479  0.8207
 5689TIP3   OH238481   6.096   3.354  12.929  0.1220  0.2588  0.3582
 5689TIP3    H138482   6.019   3.406  12.951 -1.0470 -1.5304  0.7543
 5689TIP3    H238483   6.086   3.334  12.836 -0.5024 -0.8667  0.6466
 5690TIP3   OH238484   5.003   1.141   3.711  0.0341 -0.5771  0.8344
 5690TIP3    H138485   4.985   1.077   3.780 -0.7082 -0.4175  0.8010
 5690TIP3    H238486   4.919   1.153   3.667  0.1551  0.4448  0.8571
 5691TIP3   OH238487   6.563   2.472  11.510 -0.4830 -0.2222  0.0532
 5691TIP3    H138488   6.517   2.472  11.594 -0.1333  0.5385  0.2508
 5691TIP3    H238489   6.574   2.379  11.489  0.2283 -0.4545  1.2996
 5692TIP3   OH238490   2.430   6.500   2.093 -0.3493  0.2681  0.2863
 5692TIP3    H138491   2.399   6.410   2.102 -2.1437  0.9052  0.9030
 5692TIP3    H238492   2.469   6.503   2.006  0.5806 -1.3192  0.6095
 5693TIP3   OH238493   0.702   0.605   6.745  0.1853  0.0735  0.3825
 5693TIP3    H138494   0.686   0.525   6.694 -1.7853  0.8061 -0.2234
 5693TIP3    H238495   0.797   0.606   6.759  0.1570 -3.2337  1.8315
 5694TIP3   OH238496   0.798   3.936  16.894 -0.2941 -0.3121  0.3879
 5694TIP3    H138497   0.800   3.942  16.799  2.4876 -1.8902  0.2366
 5694TIP3    H238498   0.874   3.882  16.916 -0.4410  0.5743  3.5536
 5695TIP3   OH238499   4.433   3.153   1.432  0.1343  0.0044 -0.4401
 5695TIP3    H138500   4.425   3.057   1.439 -0.7252  0.0994  0.0664
 5695TIP3    H238501   4.437   3.170   1.338  2.1754 -0.6549 -0.5160
 5696TIP3   OH238502   5.746   1.724  11.835 -0.1408  0.2754  0.3908
 5696TIP3    H138503   5.794   1.645  11.812  0.0144  0.6182 -0.4773
 5696TIP3    H238504   5.657   1.694  11.851 -0.3136  0.0451 -0.9063
 5697TIP3   OH238505   5.175   3.880   0.016  0.4227  0.1463 -1.1907
 5697TIP3    H138506   5.085   3.897  -0.011 -0.1648 -0.4050  0.2724
 5697TIP3    H238507   5.166   3.833   0.099  2.0746  0.9893 -0.4845
 5698TIP3   OH238508   6.326   3.573  11.575  0.1414 -0.2463  0.7236
 5698TIP3    H138509   6.362   3.597  11.660  0.4602 -1.7246  1.0218
 5698TIP3    H238510   6.362   3.486  11.556 -3.0711 -1.7812  0.9480
 5699TIP3   OH238511   3.280   5.872  12.537  0.0184 -0.3811  0.5286
 5699TIP3    H138512   3.213   5.812  12.569 -1.0341 -1.6333 -3.3882
 5699TIP3    H238513   3.319   5.827  12.462  2.9520  1.7376  0.5780
 5700TIP3   OH238514   2.684   1.113   2.755 -0.0112 -0.4221  0.2921
 5700TIP3    H138515   2.736   1.166   2.695 -0.9075  0.6953  0.4763
 5700TIP3    H238516   2.720   1.131   2.842  0.6594 -1.3001  0.2134
 5701TIP3   OH238517   5.885   2.277   6.127 -0.2208 -0.0016  0.3919
 5701TIP3    H138518   5.925   2.364   6.125  2.5056 -1.1507 -0.2992
 5701TIP3    H238519   5.885   2.248   6.036 -1.2716 -0.6793  0.5865
 5702TIP3   OH238520   3.033   1.842   0.091  0.3885  0.0416 -0.5751
 5702TIP3    H138521   3.037   1.891   0.173 -1.1323  0.6198 -0.8055
 5702TIP3    H238522   3.056   1.905   0.023 -1.0641  0.3361 -0.8251
 5703TIP3   OH238523   1.284   4.353   6.577  0.3539  0.3601 -0.1286
 5703TIP3    H138524   1.222   4.395   6.518  2.8725  0.8916 -2.5663
 5703TIP3    H238525   1.300   4.267   6.538 -0.5633 -0.7816  1.8067
 5704TIP3   OH238526   2.947   0.325   4.519 -0.5653 -0.1373 -0.4120
 5704TIP3    H138527   3.032   0.291   4.491 -0.5372  0.1883 -0.7158
 5704TIP3    H238528   2.885   0.289   4.455 -0.5853  0.0788 -0.5129
 5705TIP3   OH238529   5.235   0.814  16.563 -0.6692 -0.7884  0.5751
 5705TIP3    H138530   5.315   0.763  16.574 -0.5328 -0.6635  0.1571
 5705TIP3    H238531   5.233   0.871  16.640  0.5615  0.4485 -0.2661
 5706TIP3   OH238532   0.099   3.154   5.777  0.4720  0.1326  0.0879
 5706TIP3    H138533   0.177   3.112   5.814  0.0496 -0.8880 -0.1820
 5706TIP3    H238534   0.124   3.247   5.771  1.0388  0.1083  1.6429
 5707TIP3   OH238535   5.582   2.294   4.006 -0.0363 -0.2533  0.0202
 5707TIP3    H138536   5.597   2.357   3.936 -1.1543  0.3562  0.3101
 5707TIP3    H238537   5.669   2.266   4.033  0.4246 -0.6225 -1.7143
 5708TIP3   OH238538   4.445   2.743   0.244 -0.2155 -0.4834 -0.2145
 5708TIP3    H138539   4.432   2.677   0.176  0.4113 -0.4098 -0.4134
 5708TIP3    H238540   4.486   2.817   0.199 -0.5564 -0.1053  0.0823
 5709TIP3   OH238541   4.888   0.263  13.983 -0.0473 -0.0643  0.0021
 5709TIP3    H138542   4.958   0.302  13.930  1.7840  0.4006  2.5709
 5709TIP3    H238543   4.807   0.290  13.940  1.2730 -0.3613 -2.9362
 5710TIP3   OH238544   5.390   2.516   2.750  0.0636  0.1520  0.0956
 5710TIP3    H138545   5.378   2.605   2.785  1.1621 -0.2967  1.7054
 5710TIP3    H238546   5.328   2.511   2.677  1.0404  2.7665 -1.0494
 5711TIP3   OH238547   1.681   4.445  13.381  0.1662  0.0173 -0.0948
 5711TIP3    H138548   1.639   4.502  13.317  1.9360  1.6202  0.0785
 5711TIP3    H238549   1.608   4.406  13.430 -1.1474  0.6167 -1.4797
 5712TIP3   OH238550   2.169   0.038   2.773 -0.2493  0.3347  0.2701
 5712TIP3    H138551   2.208   0.119   2.741 -0.8520  0.8205  0.7393
 5712TIP3    H238552   2.099   0.019   2.710 -1.4100  1.2697  1.2191
 5713TIP3   OH238553   6.677   0.521  15.910 -0.3665 -0.3057  0.2956
 5713TIP3    H138554   6.679   0.487  15.999  2.1055  1.9228  1.2177
 5713TIP3    H238555   6.589   0.559  15.900 -1.4128 -2.3923  0.9443
 5714TIP3   OH238556   3.177   1.292  16.431  0.5000 -0.3030 -0.3425
 5714TIP3    H138557   3.256   1.339  16.404 -0.6020  1.2240 -1.0261
 5714TIP3    H238558   3.120   1.359  16.469 -0.7253 -1.2511 -0.4375
 5715TIP3   OH238559   1.297   1.264   0.249 -0.1831 -0.6052 -0.1303
 5715TIP3    H138560   1.241   1.338   0.226 -0.0197  0.0049  1.3093
 5715TIP3    H238561   1.259   1.189   0.202 -0.6084  0.2974 -1.2562
 5716TIP3   OH238562   3.164   3.067  15.130 -0.5753  0.0263 -0.3894
 5716TIP3    H138563   3.170   3.022  15.046 -1.5770 -1.1272  0.1190
 5716TIP3    H238564   3.209   3.150  15.116  2.4187 -1.5711 -1.0124
 5717TIP3   OH238565   3.986   1.370   1.523 -0.6440  0.5105 -0.1589
 5717TIP3    H138566   4.070   1.414   1.514 -0.0889 -0.5598 -0.4807
 5717TIP3    H238567   3.925   1.422   1.470 -0.4849  1.9609  1.0091
 5718TIP3   OH238568   2.705   2.809  13.360  0.1997  0.1478  0.3519
 5718TIP3    H138569   2.680   2.755  13.435  1.3558 -3.1971 -1.4762
 5718TIP3    H238570   2.786   2.852  13.388  0.8798 -1.4252  0.9166
 5719TIP3   OH238571   1.364   0.631  11.471 -0.3684  0.7930  0.0833
 5719TIP3    H138572   1.334   0.547  11.437  1.0592  0.7763 -1.2662
 5719TIP3    H238573   1.284   0.680  11.487 -1.2207 -0.6870  0.5612
 5720TIP3   OH238574   5.165   4.026  14.184  0.6578  0.4482 -0.0941
 5720TIP3    H138575   5.187   4.090  14.117  2.2183  1.3778  1.2313
 5720TIP3    H238576   5.141   4.079  14.260 -1.3182 -0.5759  0.0512
 5721TIP3   OH238577   1.745   2.657  13.934 -0.1484  0.4171  0.5056
 5721TIP3    H138578   1.678   2.602  13.974 -0.5642 -0.8486 -1.7530
 5721TIP3    H238579   1.810   2.596  13.900 -0.2167  1.2995 -1.3791
 5722TIP3   OH238580   0.375   0.444   2.343  0.4157  0.8703  0.2316
 5722TIP3    H138581   0.445   0.428   2.279 -1.3649 -0.8830 -1.4266
 5722TIP3    H238582   0.413   0.504   2.407  3.2721  0.3152 -0.8250
 5723TIP3   OH238583   4.042   0.365  16.768 -0.7784  0.4719 -0.5229
 5723TIP3    H138584   3.996   0.363  16.684 -2.0861 -1.1636  0.1689
 5723TIP3    H238585   3.993   0.429  16.820 -2.0278 -0.8669  0.0271
 5724TIP3   OH238586   4.713   1.097  13.209 -0.1787 -0.3399  0.6365
 5724TIP3    H138587   4.767   1.175  13.223 -0.5751 -0.2584  1.9057
 5724TIP3    H238588   4.764   1.025  13.244  0.6559 -0.8650 -1.5278
 5725TIP3   OH238589   6.105   1.582  16.650  0.3641  0.1942  0.5517
 5725TIP3    H138590   6.063   1.668  16.648  0.1436  0.0677 -0.5884
 5725TIP3    H238591   6.191   1.596  16.610  0.1420 -0.2065 -0.0774
 5726TIP3   OH238592   3.782   2.914   4.280  0.4806 -0.0530  0.3329
 5726TIP3    H138593   3.813   2.859   4.351 -2.0777 -0.4908  1.2170
 5726TIP3    H238594   3.826   2.998   4.293  1.6905 -0.7797  1.1063
 5727TIP3   OH238595   4.171   1.127   6.082 -0.2272  0.0395 -0.3164
 5727TIP3    H138596   4.261   1.160   6.075 -0.1980 -0.2498 -1.3966
 5727TIP3    H238597   4.136   1.172   6.159  0.3653  1.2988 -0.7545
 5728TIP3   OH238598   0.449   0.655   3.532  0.2492  0.6523  0.2184
 5728TIP3    H138599   0.512   0.724   3.510 -0.8154  1.4253 -0.4912
 5728TIP3    H238600   0.364   0.694   3.514 -0.3401 -1.4231 -1.9281
 5729TIP3   OH238601   3.641   4.589  14.537  0.1706  0.1931 -0.4753
 5729TIP3    H138602   3.713   4.644  14.505  0.6509 -0.6125 -0.7922
 5729TIP3    H238603   3.581   4.651  14.579  0.1053  1.1351 -1.8838
 5730TIP3   OH238604   4.946   2.639  15.845 -0.2767 -0.5174  0.2410
 5730TIP3    H138605   4.903   2.722  15.827 -1.2525 -1.0437  0.1015
 5730TIP3    H238606   4.960   2.640  15.940  0.7542  0.2865  0.0958
 5731TIP3   OH238607   4.715   2.596   1.856 -0.6076 -0.4576 -0.5452
 5731TIP3    H138608   4.642   2.562   1.804 -0.0545  0.2520 -1.8410
 5731TIP3    H238609   4.781   2.620   1.791  0.8754 -1.2648  0.5991
 5732TIP3   OH238610   3.734   6.729   0.136  0.7208  0.2151  0.0427
 5732TIP3    H138611   3.644   6.758   0.149  0.7411  0.1976  0.2213
 5732TIP3    H238612   3.772   6.793   0.076 -0.0769 -1.0208 -1.8759
 5733TIP3   OH238613   4.126   5.101  15.710  0.1311  0.0030  0.0195
 5733TIP3    H138614   4.064   5.148  15.765  0.5153  0.1111  0.3707
 5733TIP3    H238615   4.184   5.056  15.773  0.2963 -0.2364 -0.3014
 5734TIP3   OH238616   1.153   3.588  13.558  0.3780 -0.2629 -0.3956
 5734TIP3    H138617   1.077   3.530  13.559  0.8773 -0.9354  0.2665
 5734TIP3    H238618   1.220   3.541  13.608  0.2074  1.6615  1.8488
 5735TIP3   OH238619   2.148   2.340   5.533 -0.5230 -0.3312 -0.0542
 5735TIP3    H138620   2.231   2.387   5.537 -1.0054  0.7816 -2.1447
 5735TIP3    H238621   2.124   2.328   5.625  1.2257  0.5921  0.5812
 5736TIP3   OH238622   5.887   5.258   5.767 -0.3462  0.0727  0.1480
 5736TIP3    H138623   5.945   5.212   5.827 -0.4529 -1.2167 -0.7006
 5736TIP3    H238624   5.799   5.230   5.792 -0.3875 -0.5506 -0.6396
 5737TIP3   OH238625   0.578   2.354   3.769 -0.3421  0.7959  0.3484
 5737TIP3    H138626   0.508   2.415   3.790  0.1345  2.0008 -1.3831
 5737TIP3    H238627   0.648   2.409   3.734  0.1194 -0.7118 -1.2310
 5738TIP3   OH238628   4.134   3.921  12.265  0.2378  0.0878 -0.4045
 5738TIP3    H138629   4.115   4.003  12.310  0.0553 -0.3593  0.3559
 5738TIP3    H238630   4.228   3.924  12.247  0.1706  0.5998 -0.6591
 5739TIP3   OH238631   2.649   4.851   6.693  0.5568 -0.5867  0.2603
 5739TIP3    H138632   2.592   4.899   6.633  1.2137 -0.6097 -0.3983
 5739TIP3    H238633   2.729   4.903   6.697  0.8692 -1.0724  0.3871
 5740TIP3   OH238634   2.130   6.380  14.414  0.3946 -0.5622  0.3858
 5740TIP3    H138635   2.080   6.457  14.441  0.8899 -0.8204  2.1657
 5740TIP3    H238636   2.164   6.344  14.496  0.8893 -2.1841 -0.5001
 5741TIP3   OH238637   3.531   3.388  12.225 -0.3104 -0.5836  0.1811
 5741TIP3    H138638   3.539   3.482  12.213 -0.7418 -0.6542 -0.7476
 5741TIP3    H238639   3.582   3.369  12.303  1.8984  0.0679 -1.0266
 5742TIP3   OH238640   4.987   4.471  14.305 -0.1670  0.2034 -0.0601
 5742TIP3    H138641   4.924   4.539  14.328  0.7981  1.6008 -1.3726
 5742TIP3    H238642   5.031   4.449  14.388  1.0156  2.7801  0.0793
 5743TIP3   OH238643   0.039   0.416   5.997  0.3386  0.3630 -0.2485
 5743TIP3    H138644   0.035   0.467   6.078  0.5271 -0.8625  0.5641
 5743TIP3    H238645   0.125   0.373   6.000 -0.0199 -0.3968 -0.6472
 5744TIP3   OH238646   3.718   2.449   4.613 -0.0860  0.9548 -0.1832
 5744TIP3    H138647   3.758   2.388   4.675  2.6747  2.8617  0.0756
 5744TIP3    H238648   3.662   2.505   4.667 -1.1348 -0.0682 -0.1519
 5745TIP3   OH238649   5.169   2.244   3.276 -0.4027  0.6866 -0.0920
 5745TIP3    H138650   5.094   2.258   3.335 -0.5525  1.1194 -0.3822
 5745TIP3    H238651   5.189   2.151   3.285 -1.4078  0.4119 -0.5136
 5746TIP3   OH238652   0.783   3.859   1.386  0.0301 -0.6947  0.0721
 5746TIP3    H138653   0.852   3.919   1.360 -0.1747  0.3201  1.7398
 5746TIP3    H238654   0.750   3.823   1.303  1.6680 -0.2316 -0.8209
 5747TIP3   OH238655   1.250   5.584  16.930 -0.2492  0.1039  0.2235
 5747TIP3    H138656   1.227   5.627  16.847  0.7172 -0.7402 -0.5117
 5747TIP3    H238657   1.344   5.599  16.939 -0.2470 -0.3015  0.8882
 5748TIP3   OH238658   6.481   5.552  14.526  0.0864 -0.0057  0.5211
 5748TIP3    H138659   6.503   5.605  14.603 -1.2412 -1.8028  2.2139
 5748TIP3    H238660   6.443   5.615  14.464 -0.1243  1.2488  1.8680
 5749TIP3   OH238661   4.187   0.643   5.988 -0.3574 -0.2830  0.6696
 5749TIP3    H138662   4.119   0.701   6.023 -0.6173 -0.7120  0.8815
 5749TIP3    H238663   4.209   0.680   5.903 -1.8169 -0.8976 -0.0025
 5750TIP3   OH238664   2.150   5.550   5.345 -0.0256 -0.5809 -0.0341
 5750TIP3    H138665   2.063   5.580   5.371  0.1600 -1.5344  1.8434
 5750TIP3    H238666   2.210   5.589   5.409  0.9809  0.1856 -1.3894
 5751TIP3   OH238667   3.736   2.114  16.571 -0.1020 -0.0539 -0.3441
 5751TIP3    H138668   3.650   2.080  16.597  0.2990 -0.3081  0.6841
 5751TIP3    H238669   3.716   2.191  16.517 -0.9708 -0.2182 -0.2755
 5752TIP3   OH238670   2.491   6.655   3.201  0.4466 -0.1334  0.3206
 5752TIP3    H138671   2.421   6.719   3.212  1.1679  0.6151  0.7093
 5752TIP3    H238672   2.448   6.578   3.166  0.0860  1.7820 -4.0950
 5753TIP3   OH238673   1.886   0.061   4.271  0.0795  1.1943  0.2832
 5753TIP3    H138674   1.941   0.096   4.201  1.3536 -1.6116 -0.2129
 5753TIP3    H238675   1.842  -0.014   4.232  0.3812 -0.1011  2.3279
 5754TIP3   OH238676   4.843   1.705  14.893 -0.0533  0.4375 -0.0936
 5754TIP3    H138677   4.825   1.634  14.954 -0.6757  0.3574 -0.3648
 5754TIP3    H238678   4.929   1.685  14.857 -0.2568 -0.2258 -0.2243
 5755TIP3   OH238679   0.735   6.004   6.209 -0.3025 -0.0281  0.0023
 5755TIP3    H138680   0.752   5.917   6.173  2.0686 -0.0405  0.9914
 5755TIP3    H238681   0.798   6.013   6.280 -1.2572  2.0870  0.6556
 5756TIP3   OH238682   3.384   4.222   1.176 -0.4196  0.3626  0.0118
 5756TIP3    H138683   3.424   4.303   1.144 -1.4082  1.3599  1.2143
 5756TIP3    H238684   3.375   4.168   1.098  2.0769  0.5758 -0.5075
 5757TIP3   OH238685   0.818   6.303  13.886  0.2858 -0.8624 -0.1746
 5757TIP3    H138686   0.806   6.377  13.827 -0.5630 -0.6357  0.2611
 5757TIP3    H238687   0.908   6.311  13.917 -0.5132  1.6090  1.9312
 5758TIP3   OH238688   3.311   1.536  14.839 -0.5039  0.1834 -0.0328
 5758TIP3    H138689   3.226   1.566  14.873 -0.1877  1.3778 -0.2388
 5758TIP3    H238690   3.345   1.478  14.907 -2.0679 -1.4243 -0.5347
 5759TIP3   OH238691   6.288   0.362   5.471  0.1385  0.2989 -0.2214
 5759TIP3    H138692   6.253   0.285   5.515 -1.5049  0.4348 -1.1980
 5759TIP3    H238693   6.332   0.411   5.540 -1.0710 -0.2276  0.9729
 5760TIP3   OH238694   1.492   2.304   4.745 -0.0900  0.1768  0.0349
 5760TIP3    H138695   1.409   2.335   4.710 -1.2774 -1.6706  1.0538
 5760TIP3    H238696   1.544   2.383   4.758 -1.6777  1.3731 -0.6271
 5761TIP3   OH238697   0.254   5.787  13.334  0.6518  0.1757 -0.0390
 5761TIP3    H138698   0.339   5.790  13.289  1.2239  1.0651  1.0590
 5761TIP3    H238699   0.276   5.784  13.427 -0.5210 -0.9899  0.2357
 5762TIP3   OH238700   5.610   1.603   0.890 -0.4666 -0.5929  0.5434
 5762TIP3    H138701   5.606   1.698   0.876  0.8742 -0.4411  1.0397
 5762TIP3    H238702   5.622   1.567   0.803  0.5352 -0.1848  0.5011
 5763TIP3   OH238703   4.991   1.017  13.451 -0.3901  0.2895  0.4327
 5763TIP3    H138704   5.067   0.964  13.474  0.0718  0.6586 -0.2268
 5763TIP3    H238705   4.930   1.004  13.524 -0.6232 -1.7604 -0.0608
 5764TIP3   OH238706   4.288   1.732  12.331 -0.5442  0.2352 -0.1273
 5764TIP3    H138707   4.299   1.781  12.249  0.8875 -0.7198 -0.5315
 5764TIP3    H238708   4.367   1.679  12.339  0.0132  1.3065  2.5818
 5765TIP3   OH238709   6.765   1.512   5.491  0.5270  0.3868 -0.0367
 5765TIP3    H138710   6.758   1.607   5.503  0.4159  0.7519 -2.4485
 5765TIP3    H238711   6.675   1.483   5.478  0.6292  0.0662 -0.0194
 5766TIP3   OH238712   2.428   0.304   0.654  0.0700  0.1399  0.0709
 5766TIP3    H138713   2.450   0.212   0.644 -1.1359 -0.0267 -1.2862
 5766TIP3    H238714   2.505   0.351   0.620 -0.0651 -0.3858 -0.9890
 5767TIP3   OH238715   5.322   0.077  16.281  0.6257 -0.2046 -0.7688
 5767TIP3    H138716   5.365   0.155  16.316 -0.8987  0.3278  0.0257
 5767TIP3    H238717   5.260   0.051  16.350  1.5262 -2.5134 -0.7325
 5768TIP3   OH238718   1.682   5.605   1.678 -0.1552 -0.9578 -0.4060
 5768TIP3    H138719   1.631   5.524   1.677 -1.4528 -0.1835  0.1793
 5768TIP3    H238720   1.679   5.634   1.770 -1.4069  0.7659 -0.9466
 5769TIP3   OH238721   1.460   1.123   4.343 -0.1915 -0.0744 -0.4893
 5769TIP3    H138722   1.478   1.207   4.299  0.1960  0.1608  0.1049
 5769TIP3    H238723   1.448   1.147   4.435  0.4545 -0.7364 -0.2284
 5770TIP3   OH238724   1.447   2.134   4.968  0.4054 -0.5321  0.2232
 5770TIP3    H138725   1.364   2.181   4.973  1.1101  0.6791  1.2118
 5770TIP3    H238726   1.502   2.188   4.912  1.3412  0.0740  1.6525
 5771TIP3   OH238727   0.691   5.304  14.665 -0.2718  0.0301 -0.0903
 5771TIP3    H138728   0.772   5.312  14.614 -0.1429 -0.2806  0.0623
 5771TIP3    H238729   0.720   5.274  14.751 -0.2012  3.0139  1.0202
 5772TIP3   OH238730   1.462   3.733   0.042 -0.3163 -0.3938 -0.6204
 5772TIP3    H138731   1.372   3.767   0.034 -0.8512 -2.1822 -3.9474
 5772TIP3    H238732   1.458   3.674   0.117 -2.3402 -1.3379 -1.3753
 5773TIP3   OH238733   0.927   5.091  11.749  0.1652  0.2134  0.6406
 5773TIP3    H138734   0.858   5.141  11.792 -0.6356  0.2225 -0.5971
 5773TIP3    H238735   0.959   5.148  11.680  0.4713 -0.3080  0.3442
 5774TIP3   OH238736   0.140   5.445   0.343 -0.1546 -0.2065  0.0699
 5774TIP3    H138737   0.080   5.436   0.417 -2.0055 -1.2117 -1.4626
 5774TIP3    H238738   0.087   5.480   0.272  1.0210 -1.2333 -1.3987
 5775TIP3   OH238739   1.798   5.856   5.743 -0.1323  0.0253  0.2691
 5775TIP3    H138740   1.760   5.931   5.697 -0.3854 -1.1628 -1.5409
 5775TIP3    H238741   1.892   5.864   5.727  0.2520  1.6770  2.8015
 5776TIP3   OH238742   4.508   0.349  14.240 -0.6440  0.4723  0.3428
 5776TIP3    H138743   4.449   0.342  14.165  1.0276 -0.4174 -0.9803
 5776TIP3    H238744   4.584   0.296  14.215 -0.1657 -0.1404  2.8268
 5777TIP3   OH238745   3.120   4.876   2.365 -0.0949 -0.1346  0.0449
 5777TIP3    H138746   3.076   4.858   2.282 -0.1894  0.7831 -0.1176
 5777TIP3    H238747   3.179   4.949   2.346  0.0611 -0.0729  0.7305
 5778TIP3   OH238748   5.528   5.736   4.477 -0.5799 -0.2182  0.1978
 5778TIP3    H138749   5.448   5.712   4.522  0.5350 -0.9083  1.9149
 5778TIP3    H238750   5.566   5.653   4.448  0.4763 -0.0924  1.1581
 5779TIP3   OH238751   3.463   2.017  17.124  0.6712  0.0700 -0.2014
 5779TIP3    H138752   3.530   2.031  17.191  1.6400  0.5853 -1.2529
 5779TIP3    H238753   3.462   2.098  17.074 -0.3949 -0.1237 -0.5241
 5780TIP3   OH238754   1.540   2.134  11.653  0.2844  0.1135 -0.0683
 5780TIP3    H138755   1.572   2.088  11.730 -1.1900  2.1011  1.8534
 5780TIP3    H238756   1.579   2.222  11.660 -1.7849  1.0935 -0.1814
 5781TIP3   OH238757   1.282   3.647   1.527  0.1771 -0.3878 -0.1433
 5781TIP3    H138758   1.262   3.553   1.521 -1.0389 -0.2737  1.4252
 5781TIP3    H238759   1.210   3.683   1.577  1.8496  0.9804  1.4054
 5782TIP3   OH238760   0.145   6.108   2.303  0.0525  0.1510  0.0904
 5782TIP3    H138761   0.156   6.194   2.261  2.1310 -0.2638 -0.3543
 5782TIP3    H238762   0.057   6.080   2.278 -0.5177  1.9703 -0.0888
 5783TIP3   OH238763   2.284   3.925   2.483  0.2398 -0.8356  0.2941
 5783TIP3    H138764   2.203   3.876   2.496  0.6145 -1.5891 -0.1542
 5783TIP3    H238765   2.299   3.922   2.389 -0.9740  2.1906 -0.1220
 5784TIP3   OH238766   3.523   3.156   1.779 -0.2279  0.0336  0.2231
 5784TIP3    H138767   3.509   3.231   1.837  1.1047 -0.0558  0.6994
 5784TIP3    H238768   3.615   3.131   1.794  0.4682  0.5757 -2.5677
 5785TIP3   OH238769   2.786   3.164  11.772 -0.3137 -0.1688  0.7874
 5785TIP3    H138770   2.708   3.108  11.782 -0.2222 -0.8409 -1.7061
 5785TIP3    H238771   2.821   3.142  11.686  0.7730  2.5010  0.4525
 5786TIP3   OH238772   5.686   2.061   2.479 -0.1573 -0.0638 -0.1527
 5786TIP3    H138773   5.605   2.018   2.507  0.2839 -0.6577  0.2219
 5786TIP3    H238774   5.692   2.139   2.534  0.0950 -0.6031  0.5965
 5787TIP3   OH238775   6.527   3.495   5.181  0.5596  0.2269 -0.6428
 5787TIP3    H138776   6.565   3.560   5.123 -1.1693  0.6870 -1.3085
 5787TIP3    H238777   6.602   3.452   5.222  1.7534  2.1586 -0.7010
 5788TIP3   OH238778   1.939   0.176  12.074 -0.0375  0.0909 -0.0151
 5788TIP3    H138779   1.846   0.154  12.073 -0.2287  0.7833  1.1715
 5788TIP3    H238780   1.953   0.217  12.159  1.4354 -0.3238 -0.0368
 5789TIP3   OH238781   0.483   6.741  12.394  0.4702  0.0438 -0.3377
 5789TIP3    H138782   0.446   6.810  12.449  0.3882  0.6140 -1.0962
 5789TIP3    H238783   0.536   6.788  12.330  1.2911 -0.6700 -0.1988
 5790TIP3   OH238784   6.034   0.207   3.248  0.3998  0.1539 -0.0358
 5790TIP3    H138785   6.116   0.181   3.291  0.7701  0.5470 -0.4892
 5790TIP3    H238786   6.055   0.207   3.155  0.1178  1.0554 -0.1089
 5791TIP3   OH238787   1.545   2.132   3.552 -0.7416 -0.1317 -0.3720
 5791TIP3    H138788   1.495   2.103   3.476  0.7211 -0.4550 -1.2529
 5791TIP3    H238789   1.635   2.138   3.520 -0.4747  2.2116  0.6605
 5792TIP3   OH238790   4.695   5.152   0.495  0.9772  0.3748 -0.6549
 5792TIP3    H138791   4.671   5.159   0.588  0.4286  1.8115 -0.8769
 5792TIP3    H238792   4.772   5.096   0.495 -0.2754 -1.4511  0.4448
 5793TIP3   OH238793   2.216   1.046   6.000  0.2433  0.4324 -0.2599
 5793TIP3    H138794   2.257   1.112   5.944  1.4533 -0.0609  0.0380
 5793TIP3    H238795   2.240   0.962   5.961 -2.1074  0.1121 -1.2263
 5794TIP3   OH238796   6.087   1.122  12.439  0.4226 -0.0073  0.1877
 5794TIP3    H138797   6.109   1.028  12.444  0.9406 -0.0515 -1.9990
 5794TIP3    H238798   6.155   1.165  12.491  0.4381 -0.7973  0.8465
 5795TIP3   OH238799   5.640   4.032  17.220  0.0624 -0.1898  0.9007
 5795TIP3    H138800   5.545   4.024  17.207  0.2980 -0.6421 -0.8144
 5795TIP3    H238801   5.649   4.090  17.295 -1.5811 -0.9854  1.7675
 5796TIP3   OH238802   3.435   6.167   5.477  0.2353 -0.6260 -0.6444
 5796TIP3    H138803   3.421   6.094   5.417 -0.5490 -1.2928  0.2998
 5796TIP3    H238804   3.450   6.243   5.421  0.0601 -1.3258 -1.6601
 5797TIP3   OH238805   4.474   5.243   1.898  0.2314 -0.3020  0.1865
 5797TIP3    H138806   4.399   5.279   1.850  0.8527  0.3508 -0.3099
 5797TIP3    H238807   4.545   5.239   1.834  0.8637 -0.1263  0.8583
 5798TIP3   OH238808   4.192   3.789   4.229  0.1149  0.6200 -0.2005
 5798TIP3    H138809   4.180   3.801   4.135 -0.3923  0.9903 -0.0882
 5798TIP3    H238810   4.159   3.701   4.247 -0.2460  0.7403 -0.2823
 5799TIP3   OH238811   5.622   3.118   2.993 -0.5058  0.0702  0.0405
 5799TIP3    H138812   5.703   3.102   2.944 -0.2676  1.0416  0.0947
 5799TIP3    H238813   5.601   3.034   3.033  0.0179 -0.4052 -0.6565
 5800TIP3   OH238814   6.358   2.779   1.450  1.2262 -0.5653 -0.3959
 5800TIP3    H138815   6.361   2.717   1.377  0.4246  0.3162 -1.2030
 5800TIP3    H238816   6.384   2.727   1.526 -0.0741 -2.0864 -0.9234
 5801TIP3   OH238817   4.688   5.792   1.767 -0.3945  0.1877 -0.0428
 5801TIP3    H138818   4.686   5.881   1.802 -0.3921 -0.0080  0.4620
 5801TIP3    H238819   4.622   5.792   1.698  0.5367  0.9634 -0.9882
 5802TIP3   OH238820   3.214   4.958   5.865 -0.3554 -0.5390  0.4138
 5802TIP3    H138821   3.279   4.992   5.926  0.4635 -2.1219  0.4815
 5802TIP3    H238822   3.265   4.920   5.793 -1.2828  0.5106 -0.8611
 5803TIP3   OH238823   1.112   4.186  14.088 -0.0635 -0.0203  0.1404
 5803TIP3    H138824   1.054   4.251  14.128 -1.1336 -0.4770 -0.5925
 5803TIP3    H238825   1.089   4.104  14.132  1.3548  0.0858  1.1394
 5804TIP3   OH238826   3.321   2.550   3.295 -0.3254 -0.5182  0.4007
 5804TIP3    H138827   3.316   2.484   3.364 -0.4478 -0.2090  0.6896
 5804TIP3    H238828   3.392   2.521   3.239 -0.3890 -0.9037  0.5190
 5805TIP3   OH238829   6.427   2.161   4.402  0.6033 -0.0183  0.1405
 5805TIP3    H138830   6.519   2.144   4.421  0.4371 -1.0436  0.0477
 5805TIP3    H238831   6.423   2.172   4.307  0.7476  0.8503  0.2219
 5806TIP3   OH238832   0.325   1.552  11.000 -0.0552 -0.1449 -0.8114
 5806TIP3    H138833   0.347   1.642  11.022 -3.4303  0.5845  0.1646
 5806TIP3    H238834   0.337   1.547  10.905 -0.0300  1.4204 -0.9195
 5807TIP3   OH238835   1.001   5.662   5.892 -0.4413 -0.4983  0.0494
 5807TIP3    H138836   0.985   5.752   5.922  0.6201  0.2380 -1.4651
 5807TIP3    H238837   1.061   5.672   5.818  0.3157 -2.5223  0.3325
 5808TIP3   OH238838   1.499   1.076  15.692 -0.2283  0.3327 -0.2545
 5808TIP3    H138839   1.537   1.030  15.767  0.1272 -2.5202 -2.0574
 5808TIP3    H238840   1.413   1.105  15.724  0.3469  0.1908  1.5628
 5809TIP3   OH238841   5.773   4.101   3.233 -0.5983 -0.1499 -0.3296
 5809TIP3    H138842   5.869   4.095   3.243 -0.5345  2.1730  1.3309
 5809TIP3    H238843   5.742   4.014   3.259  1.0625 -1.1886 -1.5735
 5810TIP3   OH238844   0.523   0.908  13.031  0.2775  0.1565 -0.3281
 5810TIP3    H138845   0.465   0.956  13.089  0.3584 -1.0012  0.7413
 5810TIP3    H238846   0.604   0.959  13.030 -0.7300  1.8409 -1.9173
 5811TIP3   OH238847   2.136   0.607   2.544  0.8162 -0.0449  0.0737
 5811TIP3    H138848   2.056   0.597   2.595  1.1417 -1.7610  0.3224
 5811TIP3    H238849   2.144   0.701   2.528 -1.2611  0.1605  0.0064
 5812TIP3   OH238850   4.912   1.545  13.293 -0.4917 -0.1612 -0.7730
 5812TIP3    H138851   4.979   1.592  13.245 -0.6548  1.8803  0.8578
 5812TIP3    H238852   4.859   1.502  13.225  1.5963 -0.6982 -2.1390
 5813TIP3   OH238853   0.073   6.381  13.558  0.0939 -0.0884 -0.0432
 5813TIP3    H138854   0.132   6.347  13.491  0.1194 -0.5411  0.2005
 5813TIP3    H238855   0.037   6.302  13.600  0.3453  0.1779  0.6982
 5814TIP3   OH238856   1.114   3.719   4.346 -0.4906  0.0673 -0.1666
 5814TIP3    H138857   1.191   3.774   4.362  0.9805 -1.5410 -1.2965
 5814TIP3    H238858   1.077   3.753   4.265  0.0548 -0.2132 -0.5368
 5815TIP3   OH238859   5.482   3.496  17.290  0.2656  0.6574 -0.6391
 5815TIP3    H138860   5.425   3.421  17.274  2.5685 -0.6337 -3.4971
 5815TIP3    H238861   5.512   3.484  17.380 -0.6588 -0.9390 -0.4995
 5816TIP3   OH238862   0.488   1.380  16.470  0.2859 -0.0346 -0.5797
 5816TIP3    H138863   0.445   1.460  16.500 -1.1632 -0.4831 -1.3982
 5816TIP3    H238864   0.525   1.403  16.385 -2.6468 -0.9655 -2.2146
 5817TIP3   OH238865   4.813   4.020   1.981  0.6529  0.1066  0.5936
 5817TIP3    H138866   4.884   3.995   2.041  1.8937  1.4518 -0.2472
 5817TIP3    H238867   4.850   4.006   1.894  1.4936  4.5476  0.0111
 5818TIP3   OH238868   5.692   1.253   1.525 -0.2990 -0.9883  0.1422
 5818TIP3    H138869   5.713   1.259   1.432  2.5837 -1.0781  0.7067
 5818TIP3    H238870   5.601   1.281   1.531 -0.2503  0.0091 -2.5739
 5819TIP3   OH238871   5.398   5.282   5.261 -0.5161 -0.7429  0.0874
 5819TIP3    H138872   5.374   5.338   5.336  1.3977  0.0086  0.1867
 5819TIP3    H238873   5.346   5.317   5.188 -0.6766  0.0081  0.5517
 5820TIP3   OH238874   2.448   1.477  16.213 -0.1686 -0.7602 -0.0582
 5820TIP3    H138875   2.430   1.384  16.224  0.1723 -0.6721  1.5157
 5820TIP3    H238876   2.478   1.506  16.299 -3.2813  1.4759  0.4598
 5821TIP3   OH238877   2.188   6.427  16.699 -0.1836 -0.1091 -0.6152
 5821TIP3    H138878   2.240   6.458  16.625 -0.5860 -0.3756 -1.0147
 5821TIP3    H238879   2.230   6.466  16.775 -0.6379  1.4065 -1.0887
 5822TIP3   OH238880   0.922   1.800   6.140  0.2860  0.3984 -0.1218
 5822TIP3    H138881   1.006   1.759   6.119 -0.3635 -0.2320 -1.6726
 5822TIP3    H238882   0.877   1.737   6.196 -0.0880 -0.3691 -1.2465
 5823TIP3   OH238883   0.772   3.835  13.835 -0.5184 -0.8644 -0.4813
 5823TIP3    H138884   0.680   3.850  13.814 -0.2899  0.3021 -0.7711
 5823TIP3    H238885   0.791   3.748  13.801 -1.1510 -0.5389 -1.7380
 5824TIP3   OH238886   2.664   2.981   0.742  0.7889  0.1528  0.7625
 5824TIP3    H138887   2.652   2.937   0.826  0.0069  2.1174  1.7594
 5824TIP3    H238888   2.699   3.067   0.766 -1.2169  1.4684 -0.7550
 5825TIP3   OH238889   0.666   1.949   2.059 -0.0619  0.1895  0.1843
 5825TIP3    H138890   0.589   1.938   2.115 -0.4564 -1.0396 -0.5568
 5825TIP3    H238891   0.675   1.865   2.014  1.0126  0.7156 -0.6290
 5826TIP3   OH238892   5.754   2.689   2.372  0.0787  0.0402 -0.6374
 5826TIP3    H138893   5.666   2.669   2.342 -0.1733 -0.3187  0.3069
 5826TIP3    H238894   5.789   2.606   2.404  0.8273  0.1415 -1.1536
 5827TIP3   OH238895   2.945   4.676   0.161  0.2164  0.4335  0.0534
 5827TIP3    H138896   2.969   4.708   0.074 -0.8313 -0.5036 -0.5996
 5827TIP3    H238897   2.989   4.737   0.222  2.1881  0.2286 -1.0820
 5828TIP3   OH238898   1.809   4.666  12.335  0.1250 -0.1024 -0.3228
 5828TIP3    H138899   1.816   4.728  12.262  0.2049 -1.7245 -1.7760
 5828TIP3    H238900   1.715   4.661  12.353  0.1883  1.0480  0.3830
 5829TIP3   OH238901   3.784   6.269   0.313  0.1554 -0.5063 -0.2627
 5829TIP3    H138902   3.827   6.330   0.373 -2.3532 -0.4337  1.6029
 5829TIP3    H238903   3.782   6.186   0.361  1.7274 -1.6116 -1.9648
 5830TIP3   OH238904   2.878   5.352   1.617  0.3704  0.2345  0.2540
 5830TIP3    H138905   2.950   5.358   1.681  0.4906  2.3271  0.0077
 5830TIP3    H238906   2.915   5.388   1.536 -0.3607 -0.5880 -0.4668
 5831TIP3   OH238907   3.797   2.434  14.379 -0.3643  0.1748  0.1966
 5831TIP3    H138908   3.891   2.426  14.367 -0.3645 -2.3559  1.0763
 5831TIP3    H238909   3.787   2.489  14.457  0.4201  0.0974  0.3591
 5832TIP3   OH238910   6.733   4.007   2.613 -0.4294 -0.0412  0.3138
 5832TIP3    H138911   6.770   4.049   2.690 -0.0990 -2.3006  1.4530
 5832TIP3    H238912   6.740   4.073   2.544 -1.7615  2.4745  2.4111
 5833TIP3   OH238913   3.119   3.054   4.553  0.1512  0.0822 -0.3622
 5833TIP3    H138914   3.106   3.106   4.473 -0.4542 -0.9412 -0.9424
 5833TIP3    H238915   3.070   3.102   4.620 -1.7160 -0.5120 -1.2256
 5834TIP3   OH238916   4.238   6.044  13.631  0.0758  0.3424 -0.2921
 5834TIP3    H138917   4.260   6.038  13.538 -0.9939  1.6176 -0.6536
 5834TIP3    H238918   4.233   6.138  13.649  0.4984  0.1192  1.1271
 5835TIP3   OH238919   2.853   3.335  14.638  0.0504 -0.1326  0.0514
 5835TIP3    H138920   2.850   3.332  14.734 -1.8676 -0.8593 -0.0044
 5835TIP3    H238921   2.844   3.243  14.611  1.7519 -0.0750 -0.8397
 5836TIP3   OH238922   0.536   3.416  16.470  0.1731  0.3586  0.7852
 5836TIP3    H138923   0.599   3.370  16.415 -1.1358 -0.0339 -0.4483
 5836TIP3    H238924   0.518   3.356  16.542  0.0157 -0.2179  0.2785
 5837TIP3   OH238925   1.228   2.466   3.870 -0.6734 -0.2089  0.3153
 5837TIP3    H138926   1.216   2.420   3.953  0.7630 -0.7468  0.2549
 5837TIP3    H238927   1.203   2.403   3.803  2.2285 -1.3543  0.1859
 5838TIP3   OH238928   3.548   6.669   5.241  0.9092  0.3044  0.2387
 5838TIP3    H138929   3.643   6.680   5.251  1.1549 -0.6061 -0.9021
 5838TIP3    H238930   3.525   6.726   5.168  0.6557  0.1406  0.1913
 5839TIP3   OH238931   3.439   1.547   5.543  0.0815 -0.5487 -0.3427
 5839TIP3    H138932   3.503   1.594   5.595  2.4908 -3.6411 -0.2170
 5839TIP3    H238933   3.373   1.519   5.607 -0.0798  0.5090 -0.0241
 5840TIP3   OH238934   1.206   6.105   2.304  0.2477  0.5326  0.0647
 5840TIP3    H138935   1.297   6.131   2.321 -0.2510  1.8984  0.7826
 5840TIP3    H238936   1.155   6.151   2.371 -0.9814 -0.2115 -0.3333
 5841TIP3   OH238937   4.449   4.825   0.155 -0.2228  0.0338 -0.1380
 5841TIP3    H138938   4.505   4.748   0.157 -1.4085 -0.9778 -2.4563
 5841TIP3    H238939   4.510   4.899   0.154  1.0362 -0.9827 -1.1642
 5842TIP3   OH238940   2.176   4.598   4.172 -0.1140 -0.2599 -0.3141
 5842TIP3    H138941   2.233   4.585   4.248  2.0509  0.0484 -1.7843
 5842TIP3    H238942   2.094   4.631   4.209  1.1537  0.7561  1.8061
 5843TIP3   OH238943   0.403   2.385   5.545 -0.1989 -0.0549  0.1881
 5843TIP3    H138944   0.342   2.429   5.605  0.3845 -0.4425  1.0990
 5843TIP3    H238945   0.478   2.445   5.540 -1.3986  1.3594 -2.4719
 5844TIP3   OH238946   1.356   0.758  14.007 -0.2804 -0.5585 -0.0341
 5844TIP3    H138947   1.421   0.745  13.937 -0.6996 -2.5153 -0.1137
 5844TIP3    H238948   1.272   0.764  13.961 -0.5614 -1.8777  0.2657
 5845TIP3   OH238949   1.903   6.219  14.374 -0.1524  0.4689 -0.0240
 5845TIP3    H138950   1.885   6.157  14.304 -0.4954  1.1675 -0.5712
 5845TIP3    H238951   1.998   6.228  14.374 -0.0485 -0.5205  0.4804
 5846TIP3   OH238952   4.342   5.700  15.377  0.1530  0.2615  0.4879
 5846TIP3    H138953   4.438   5.698  15.385  0.2198 -0.5002 -0.3662
 5846TIP3    H238954   4.311   5.650  15.452  0.3753  1.2533  1.2671
 5847TIP3   OH238955   1.029   3.017  15.723 -0.1078 -0.2155 -0.4109
 5847TIP3    H138956   0.947   3.047  15.761  0.0664  0.9832 -0.9436
 5847TIP3    H238957   1.083   3.096  15.715  0.5477 -0.7328 -1.4102
 5848TIP3   OH238958   5.041   1.039  12.892 -0.1036  0.2128 -0.2593
 5848TIP3    H138959   5.062   1.092  12.969  0.5112  0.8897 -0.8754
 5848TIP3    H238960   5.034   0.950  12.926  1.6799  0.2684  0.3620
 5849TIP3   OH238961   2.785   2.682  12.339  0.2586 -0.6242 -0.0743
 5849TIP3    H138962   2.810   2.774  12.354 -1.0727 -0.3817  0.8408
 5849TIP3    H238963   2.798   2.640  12.424 -1.9802 -0.5624  0.3568
 5850TIP3   OH238964   4.452   4.149  13.841 -0.3823 -0.4831  0.5710
 5850TIP3    H138965   4.358   4.158  13.850 -0.4431 -0.2252 -0.2333
 5850TIP3    H238966   4.466   4.059  13.811 -0.5401  0.0889 -1.3144
 5851TIP3   OH238967   3.379   2.742   0.822 -0.1799 -0.3526 -0.1726
 5851TIP3    H138968   3.324   2.721   0.897  1.4367 -1.0935  0.8477
 5851TIP3    H238969   3.342   2.690   0.750 -0.8010 -0.8274  0.4764
 5852TIP3   OH238970   5.598   3.938  15.113  0.2938 -0.0663  0.1051
 5852TIP3    H138971   5.585   3.843  15.120 -0.5394 -0.0407 -0.9024
 5852TIP3    H238972   5.511   3.973  15.094  0.3210  1.0719  1.8250
 5853TIP3   OH238973   6.188   6.078   2.831 -0.1527 -0.1545 -0.0269
 5853TIP3    H138974   6.167   6.146   2.895  0.9470  0.7196 -0.5744
 5853TIP3    H238975   6.228   6.124   2.758 -1.0555 -1.1746 -1.2240
 5854TIP3   OH238976   3.191   4.767   4.765  0.3287 -0.5165 -0.6640
 5854TIP3    H138977   3.124   4.823   4.804  1.7226  2.1909 -1.9344
 5854TIP3    H238978   3.237   4.728   4.840 -0.3639  0.4237  0.2674
 5855TIP3   OH238979   6.668   4.841   0.478 -0.4023 -0.1396 -0.0188
 5855TIP3    H138980   6.757   4.867   0.502 -0.9384  0.0240  1.9972
 5855TIP3    H238981   6.628   4.920   0.443  0.0345 -0.0387 -0.2965
 5856TIP3   OH238982   2.115   0.130  14.088  0.0525  0.3785  0.0401
 5856TIP3    H138983   2.181   0.061  14.088  1.1712  1.3939 -1.0431
 5856TIP3    H238984   2.162   0.208  14.060 -1.2154  1.5644  1.1130
 5857TIP3   OH238985   0.770   5.022   3.188 -0.2884  0.4995 -1.0469
 5857TIP3    H138986   0.834   5.090   3.208  0.4430 -0.1837 -1.0279
 5857TIP3    H238987   0.692   5.046   3.239  0.1201  1.0563 -0.6772
 5858TIP3   OH238988   6.565   0.383  14.035  0.3181 -0.4984 -0.0808
 5858TIP3    H138989   6.538   0.295  14.008  0.0261 -0.2527 -0.6010
 5858TIP3    H238990   6.549   0.438  13.958 -3.9949  0.9807  1.5799
 5859TIP3   OH238991   1.097   1.013   3.682  0.0814  0.3022  0.0376
 5859TIP3    H138992   1.153   0.966   3.620  0.2611 -0.7418  0.9509
 5859TIP3    H238993   1.132   0.989   3.768 -0.2732  1.5744  0.5571
 5860TIP3   OH238994   5.977   6.552  16.268 -0.3806  0.0868 -0.2246
 5860TIP3    H138995   5.913   6.480  16.267  1.8046 -2.0002  0.2886
 5860TIP3    H238996   5.963   6.595  16.352 -0.9728 -0.4788 -0.0249
 5861TIP3   OH238997   2.756   0.140   1.357  0.2778  0.6255 -0.0474
 5861TIP3    H138998   2.733   0.167   1.446  0.0721 -1.6164  0.6218
 5861TIP3    H238999   2.849   0.117   1.363  0.1324 -0.0298 -0.2839
 5862TIP3   OH239000   0.946   1.506  15.888  0.3510 -0.8258 -0.2594
 5862TIP3    H139001   0.918   1.471  15.804  0.3753  0.9532 -1.0459
 5862TIP3    H239002   0.975   1.429  15.937  0.0444 -1.9371 -1.7463
 5863TIP3   OH239003   3.059   3.453   0.724 -0.1585  0.3357 -0.5635
 5863TIP3    H139004   3.115   3.390   0.769 -1.0839 -0.4712 -0.5352
 5863TIP3    H239005   2.988   3.401   0.688 -0.0938  1.1378 -1.9201
 5864TIP3   OH239006   0.449   5.818  13.095 -0.0228  0.1263 -0.1504
 5864TIP3    H139007   0.480   5.877  13.027 -0.7294 -0.5020 -1.0351
 5864TIP3    H239008   0.522   5.759  13.111  0.8754  1.4853  1.0910
 5865TIP3   OH239009   6.563   6.234   4.015 -0.5171 -0.2592 -0.0578
 5865TIP3    H139010   6.637   6.291   4.036 -1.8042  1.5321 -0.1683
 5865TIP3    H239011   6.603   6.156   3.975  1.3544  0.1804  0.8641
 5866TIP3   OH239012   4.160   3.313  11.765  0.2139 -0.1371 -0.5678
 5866TIP3    H139013   4.123   3.392  11.804  0.8347  0.1116 -0.4742
 5866TIP3    H239014   4.198   3.342  11.682  1.3232 -0.1382 -0.0727
 5867TIP3   OH239015   6.580   2.011   5.874  0.7477  0.2182  0.1606
 5867TIP3    H139016   6.605   1.962   5.952 -0.4591 -2.0312 -0.7807
 5867TIP3    H239017   6.501   2.059   5.899 -0.7130 -1.9229 -0.0974
 5868TIP3   OH239018   4.219   1.974   5.422  0.2064 -0.1382  0.3272
 5868TIP3    H139019   4.159   1.972   5.347 -1.0527  0.4816  1.2726
 5868TIP3    H239020   4.180   2.037   5.482  1.0983 -0.7346  1.5814
 5869TIP3   OH239021   4.852   0.222   4.540 -0.1683  0.0769 -0.1356
 5869TIP3    H139022   4.826   0.133   4.564  0.8482  0.0166  0.8122
 5869TIP3    H239023   4.813   0.278   4.607  2.2300 -0.0401  1.4777
 5870TIP3   OH239024   2.780   0.133   3.504  0.2109  0.0280  0.0342
 5870TIP3    H139025   2.702   0.087   3.536 -0.6654  0.9771 -0.6913
 5870TIP3    H239026   2.746   0.212   3.463  1.5136  0.1392 -0.8780
 5871TIP3   OH239027   0.238   0.382  16.828  0.3915 -0.1452  0.1309
 5871TIP3    H139028   0.320   0.401  16.783  0.3039  1.2187  0.5007
 5871TIP3    H239029   0.170   0.394  16.762  0.3225  1.1176  0.4024
 5872TIP3   OH239030   6.371   5.914  16.145  0.9099 -0.0917  0.5488
 5872TIP3    H139031   6.360   6.006  16.170 -0.5371  0.0322 -0.4059
 5872TIP3    H239032   6.450   5.886  16.192  1.0458  1.4567  1.3335
 5873TIP3   OH239033   1.425   3.835   3.622 -0.2545  0.4477  0.3175
 5873TIP3    H139034   1.439   3.830   3.527 -2.4835 -1.8749  0.0023
 5873TIP3    H239035   1.506   3.801   3.660  0.4438  0.8476 -0.7406
 5874TIP3   OH239036   4.435   1.362  17.204  0.3437 -0.2067 -0.5908
 5874TIP3    H139037   4.393   1.420  17.141 -0.5965  1.5647  1.5311
 5874TIP3    H239038   4.401   1.275  17.183  0.7904  0.1483 -3.0480
 5875TIP3   OH239039   2.012   3.035  17.127  0.0550 -0.1252 -0.5951
 5875TIP3    H139040   1.933   2.989  17.156  1.0230 -0.6575  1.4016
 5875TIP3    H239041   2.038   2.989  17.047 -0.7893 -0.9702 -0.4090
 5876TIP3   OH239042   0.985   4.014   4.464  0.2196  0.6370  0.5022
 5876TIP3    H139043   1.060   3.984   4.515  0.0012  0.3237  0.6450
 5876TIP3    H239044   0.932   3.935   4.452  0.5508  0.5763 -0.6939
 5877TIP3   OH239045   2.099   1.346  16.296 -0.0347 -0.1197  0.6041
 5877TIP3    H139046   2.126   1.259  16.265  2.7896  1.2696 -1.2784
 5877TIP3    H239047   2.047   1.382  16.225 -0.6346 -0.0172  1.0920
 5878TIP3   OH239048   3.232   6.462  10.971 -0.0837  0.0914 -0.1862
 5878TIP3    H139049   3.313   6.484  11.019 -0.5521  1.9041 -0.1240
 5878TIP3    H239050   3.225   6.531  10.905 -1.8671  0.3214  0.1950
 5879TIP3   OH239051   2.659   4.043   2.545 -0.9526 -0.5992 -0.1607
 5879TIP3    H139052   2.609   4.035   2.626 -2.3417  0.8393 -0.8269
 5879TIP3    H239053   2.685   3.953   2.525 -0.5778 -0.9952  1.8396
 5880TIP3   OH239054   1.193   1.757   1.199 -0.5262  0.4365  0.4839
 5880TIP3    H139055   1.133   1.804   1.142 -0.6435 -0.1709  0.0897
 5880TIP3    H239056   1.256   1.823   1.229 -0.9747  0.9286  0.3361
 5881TIP3   OH239057   0.173   6.563  14.253 -0.1954  0.8195  0.0962
 5881TIP3    H139058   0.149   6.654  14.235 -2.5650 -0.2978 -3.3461
 5881TIP3    H239059   0.094   6.525  14.293 -0.0921 -0.2096 -0.6297
 5882TIP3   OH239060   2.083   1.467  16.901 -0.6886 -0.4763  0.3988
 5882TIP3    H139061   2.032   1.397  16.941 -0.0560 -0.9854  0.3370
 5882TIP3    H239062   2.096   1.530  16.972 -1.3857 -0.3473  0.4149
 5883TIP3   OH239063   3.279   4.624   4.974 -0.3137  0.5191  0.3797
 5883TIP3    H139064   3.190   4.596   4.954 -0.7757  2.2167 -0.1502
 5883TIP3    H239065   3.295   4.592   5.062 -0.6595 -1.5662 -0.2617
 5884TIP3   OH239066   3.710   1.180   6.668 -0.5782  0.2307 -0.0534
 5884TIP3    H139067   3.690   1.208   6.579 -1.6294  1.4500  0.5368
 5884TIP3    H239068   3.628   1.144   6.702 -0.0172 -0.8455  0.2160
 5885TIP3   OH239069   0.413   1.545  17.127 -0.3222 -0.1405 -0.4738
 5885TIP3    H139070   0.387   1.566  17.217  0.9975 -0.7044  0.0725
 5885TIP3    H239071   0.406   1.628  17.080 -5.6668 -0.6369 -1.1671
 5886TIP3   OH239072   1.149   5.649   2.980 -0.4412  0.2237 -0.1271
 5886TIP3    H139073   1.238   5.672   3.006  0.0235 -1.2287 -0.3303
 5886TIP3    H239074   1.121   5.584   3.044  0.1595 -2.2914 -2.2235
 5887TIP3   OH239075   5.198   1.623  15.572 -0.3466  0.9630  0.2532
 5887TIP3    H139076   5.290   1.616  15.548  0.4581  2.3265  2.6610
 5887TIP3    H239077   5.198   1.632  15.667 -2.9004  2.1056  0.2323
 5888TIP3   OH239078   1.085   2.075  13.463  0.0787 -0.2576  0.2738
 5888TIP3    H139079   1.028   2.140  13.504  0.4613  0.7456 -0.7322
 5888TIP3    H239080   1.056   2.073  13.372  0.4399 -1.1137  0.1701
 5889TIP3   OH239081   4.663   6.661  10.838 -0.2929  0.2754 -0.5455
 5889TIP3    H139082   4.584   6.712  10.854 -1.2102 -1.3674  0.3127
 5889TIP3    H239083   4.664   6.595  10.907  0.9668 -0.7499 -1.5031
 5890TIP3   OH239084   6.123   6.544   2.062  0.3306 -0.7632  0.1316
 5890TIP3    H139085   6.153   6.497   1.984 -0.5633  0.9028 -1.2906
 5890TIP3    H239086   6.129   6.480   2.132 -2.2787 -3.5174 -1.9116
 5891TIP3   OH239087   2.118   0.856  11.661  0.3903 -0.0290  0.1299
 5891TIP3    H139088   2.144   0.896  11.578  0.1878 -1.2105 -0.5242
 5891TIP3    H239089   2.198   0.852  11.712  0.8194 -0.6030 -0.5758
 5892TIP3   OH239090   5.820   3.864   0.033 -0.3657 -0.6584 -0.4329
 5892TIP3    H139091   5.885   3.900  -0.029 -0.3015  1.0788  0.6009
 5892TIP3    H239092   5.736   3.893  -0.001 -0.5758 -2.1025 -1.2340
 5893TIP3   OH239093   4.073   0.377  16.339  0.3917 -0.0615 -0.2744
 5893TIP3    H139094   4.167   0.369  16.322  0.5950  0.5875  0.4824
 5893TIP3    H239095   4.037   0.416  16.259  1.1639  2.0137  0.3327
 5894TIP3   OH239096   3.971   3.896  12.579 -0.0906  0.2432 -0.2396
 5894TIP3    H139097   3.990   3.948  12.500 -0.5570  1.0629  0.1830
 5894TIP3    H239098   3.877   3.907  12.593 -0.1383 -0.4937  0.0197
 5895TIP3   OH239099   5.481   1.603  15.652 -0.0415  0.3727 -0.0021
 5895TIP3    H139100   5.513   1.614  15.562  3.2182  0.3503  1.0331
 5895TIP3    H239101   5.558   1.578  15.702 -1.5173  1.4839  3.0703
 5896TIP3   OH239102   5.112   3.306   3.043 -0.2769 -0.1329 -0.0179
 5896TIP3    H139103   5.149   3.336   2.961 -0.0136  0.2203  0.2288
 5896TIP3    H239104   5.154   3.221   3.058 -0.9860 -0.6135 -0.6871
 5897TIP3   OH239105   1.966   5.047   6.979  0.1257 -0.1988  0.1249
 5897TIP3    H139106   1.909   4.986   7.025  0.5446 -0.0096  0.9295
 5897TIP3    H239107   2.049   5.000   6.968 -0.5475 -0.9580 -2.2241
 5898TIP3   OH239108   0.795   2.434  15.387 -0.5075 -0.6810 -0.2651
 5898TIP3    H139109   0.872   2.456  15.438  1.9096 -0.1056 -3.8123
 5898TIP3    H239110   0.726   2.491  15.421  1.5487  1.3348  0.7791
 5899TIP3   OH239111   4.461   5.383  12.345  0.2544  0.0979  0.4392
 5899TIP3    H139112   4.405   5.386  12.268  2.6196 -0.3938 -1.4157
 5899TIP3    H239113   4.447   5.467  12.388 -1.1572  0.3635 -0.4668
 5900TIP3   OH239114   2.099   1.328   2.426  0.2438 -0.2463 -0.2807
 5900TIP3    H139115   2.117   1.391   2.357 -1.8893 -0.2208 -0.8948
 5900TIP3    H239116   2.140   1.247   2.397 -0.2729 -0.1253 -1.3914
 5901TIP3   OH239117   4.477   5.765  14.271 -0.6883 -0.8009 -0.5828
 5901TIP3    H139118   4.392   5.735  14.239 -1.5541  0.1669  0.7113
 5901TIP3    H239119   4.456   5.834  14.334  1.0392 -0.9095  0.1668
 5902TIP3   OH239120   4.335   3.691  13.224 -0.0255  0.1614  0.1441
 5902TIP3    H139121   4.370   3.609  13.188 -2.7456 -0.9290 -0.2085
 5902TIP3    H239122   4.413   3.744  13.243  1.7502 -1.8634 -1.0992
 5903TIP3   OH239123   1.272   6.033  13.660  0.2007  0.1559 -0.2220
 5903TIP3    H139124   1.241   6.088  13.732  0.6948  0.2698 -0.0922
 5903TIP3    H239125   1.342   5.981  13.698  1.3139  1.0900 -0.9084
 5904TIP3   OH239126   2.775   4.483   0.791 -0.3755 -0.0013  0.0797
 5904TIP3    H139127   2.819   4.480   0.705 -0.6400  1.4779 -0.1410
 5904TIP3    H239128   2.760   4.392   0.813 -1.6530 -0.4249 -2.1729
 5905TIP3   OH239129   4.335   3.547  15.080  0.2171 -0.2927  0.4623
 5905TIP3    H139130   4.371   3.576  14.997 -0.4280 -0.1493  0.2282
 5905TIP3    H239131   4.245   3.580  15.081 -0.2003 -1.3725  0.6487
 5906TIP3   OH239132   4.910   6.538   2.167  0.1770  0.5882 -0.4510
 5906TIP3    H139133   4.994   6.502   2.194 -0.5493 -0.7011  0.1869
 5906TIP3    H239134   4.871   6.571   2.248 -0.8611 -0.8479 -0.3255
 5907TIP3   OH239135   1.192   2.925  12.563 -0.4611 -0.1529 -0.6465
 5907TIP3    H139136   1.248   2.848  12.561 -0.7028 -0.4522  1.5778
 5907TIP3    H239137   1.116   2.899  12.615 -0.7780  1.4098 -0.2476
 5908TIP3   OH239138   6.420   3.184   2.023  0.1302 -0.4312 -0.0419
 5908TIP3    H139139   6.396   3.167   2.114  0.1521  0.2424  0.0956
 5908TIP3    H239140   6.514   3.167   2.020  0.1985 -0.1057  0.1534
 5909TIP3   OH239141   3.315   6.071   1.833 -0.2413 -0.0283 -0.4990
 5909TIP3    H139142   3.228   6.080   1.871 -1.7334  0.7922 -3.7472
 5909TIP3    H239143   3.321   6.140   1.767  2.4501 -0.7412 -1.1666
 5910TIP3   OH239144   1.029   4.950   3.862  0.0065 -0.2165 -0.0299
 5910TIP3    H139145   1.109   4.920   3.819 -0.0840  1.4871 -1.4976
 5910TIP3    H239146   1.054   5.030   3.908 -0.4630 -0.6821  1.0787
 5911TIP3   OH239147   2.568   1.698   2.305  0.1658  0.0926 -0.0791
 5911TIP3    H139148   2.518   1.737   2.233 -0.5962  0.6414  0.7374
 5911TIP3    H239149   2.592   1.772   2.360 -2.4030 -0.6307  2.2105
 5912TIP3   OH239150   1.755   3.750   3.187 -0.7572 -0.1142  0.0646
 5912TIP3    H139151   1.709   3.668   3.168  0.5717 -0.4666 -1.9063
 5912TIP3    H239152   1.829   3.724   3.242  0.0196 -0.3589 -1.0750
 5913TIP3   OH239153   1.237   0.408  11.310  0.0377 -0.5017  0.0120
 5913TIP3    H139154   1.252   0.324  11.266 -0.2217 -0.3590 -0.3557
 5913TIP3    H239155   1.242   0.473  11.240  0.9660 -0.1287  0.4025
 5914TIP3   OH239156   3.366   2.997   0.724 -0.2139 -0.4270  0.2881
 5914TIP3    H139157   3.362   2.904   0.746  1.4824 -0.7241 -0.4973
 5914TIP3    H239158   3.448   3.027   0.763 -1.8220  1.3723  2.6039
 5915TIP3   OH239159   2.478   1.126  16.541 -0.5528  0.5798  0.2381
 5915TIP3    H139160   2.390   1.154  16.568 -0.2477  0.9819  0.8506
 5915TIP3    H239161   2.504   1.188  16.474 -1.0062  0.0434 -0.4532
 5916TIP3   OH239162   1.383   1.554   3.184  0.1403 -0.0745  0.3799
 5916TIP3    H139163   1.435   1.613   3.130 -0.3018  0.2919  0.3525
 5916TIP3    H239164   1.404   1.467   3.150 -0.1685  0.1542 -0.4250
 5917TIP3   OH239165   0.401   1.898  14.453 -0.5640  1.0196  0.6420
 5917TIP3    H139166   0.477   1.855  14.414 -0.1441 -0.9191  3.2921
 5917TIP3    H239167   0.331   1.888  14.389  0.6331  0.0757 -0.5713
 5918TIP3   OH239168   4.848   4.159  14.308 -0.5535  0.3720  0.2907
 5918TIP3    H139169   4.782   4.143  14.376 -0.2485  0.2026  0.5453
 5918TIP3    H239170   4.800   4.205  14.240 -0.7416  1.0170  0.8483
 5919TIP3   OH239171   3.054   2.010   0.328  0.4927 -0.1401  0.8218
 5919TIP3    H139172   3.056   2.045   0.417 -1.5771 -0.2752  0.9803
 5919TIP3    H239173   3.018   2.082   0.275 -1.3241 -1.0673  0.6953
 5920TIP3   OH239174   4.988   5.103  16.714  0.0842  0.1586  0.5142
 5920TIP3    H139175   4.923   5.153  16.665  0.2694  1.5551  1.6565
 5920TIP3    H239176   4.959   5.107  16.805  1.3431  0.1508  0.9404
 5921TIP3   OH239177   2.318   3.635  13.629  0.6568 -0.0546 -0.0976
 5921TIP3    H139178   2.255   3.571  13.597 -0.5166  1.2133 -0.4430
 5921TIP3    H239179   2.360   3.593  13.705 -1.8759 -0.3197  1.2663
 5922TIP3   OH239180   3.768   4.947  12.677 -0.1833  0.5360 -0.1290
 5922TIP3    H139181   3.841   4.930  12.737 -1.1997  0.3367  1.1162
 5922TIP3    H239182   3.762   5.042  12.672 -0.0640  0.5535  0.0622
 5923TIP3   OH239183   2.987   0.022  15.822 -0.1077  0.0665  0.3579
 5923TIP3    H139184   2.969   0.096  15.763  0.7343  0.7972  0.9858
 5923TIP3    H239185   2.909   0.016  15.877 -0.3424  0.2442  0.0476
 5924TIP3   OH239186   0.354   1.271  14.521  0.2410 -0.0712 -0.6115
 5924TIP3    H139187   0.348   1.282  14.426 -1.3055 -0.0356 -0.5265
 5924TIP3    H239188   0.265   1.251  14.549  0.5597  0.5036  0.9091
 5925TIP3   OH239189   4.034   4.595  13.497 -0.1487  0.1474  0.4274
 5925TIP3    H139190   4.043   4.577  13.591 -1.0017 -1.1401  0.2888
 5925TIP3    H239191   4.123   4.615  13.468  1.0413 -3.9658  0.6372
 5926TIP3   OH239192   0.345   2.360   3.119 -0.1274  0.2652  0.1932
 5926TIP3    H139193   0.339   2.310   3.200 -1.2732 -1.5733 -0.9467
 5926TIP3    H239194   0.341   2.452   3.147 -1.1007 -0.3214  2.1656
 5927TIP3   OH239195   3.112   4.309  12.510  0.2735  0.2252  0.1368
 5927TIP3    H139196   3.114   4.404  12.520 -0.6562  0.4527 -1.5694
 5927TIP3    H239197   3.071   4.278  12.591  0.6967  1.2490  0.7694
 5928TIP3   OH239198   0.805   6.557   2.085 -0.1854  0.2248 -0.4369
 5928TIP3    H139199   0.741   6.628   2.093  1.9221  1.9664  2.5757
 5928TIP3    H239200   0.795   6.528   1.994 -1.9067  3.6318 -1.5426
 5929TIP3   OH239201   4.190   5.349  16.535 -0.4162  0.0361 -0.8515
 5929TIP3    H139202   4.205   5.284  16.603  0.1387  1.3062  0.2726
 5929TIP3    H239203   4.277   5.369  16.501 -0.5333  0.5303 -0.8692
 5930TIP3   OH239204   1.614   3.471  12.020 -0.0685 -0.1842 -0.6173
 5930TIP3    H139205   1.535   3.465  12.073  0.2930 -3.3850 -0.2443
 5930TIP3    H239206   1.584   3.452  11.931  0.0344  0.2490 -0.7442
 5931TIP3   OH239207   2.940   2.701  15.637 -0.4700 -0.1272 -0.7909
 5931TIP3    H139208   2.985   2.786  15.640  0.0902 -0.4352 -0.4305
 5931TIP3    H239209   3.007   2.637  15.662 -1.5588 -0.4044  1.6658
 5932TIP3   OH239210   0.688   2.860  12.892  0.2815 -0.0237 -0.4160
 5932TIP3    H139211   0.662   2.811  12.814  0.9826 -1.0796 -0.0090
 5932TIP3    H239212   0.682   2.952  12.865  0.3892 -0.3601 -1.6677
 5933TIP3   OH239213   0.415   1.896  13.918  0.1559  0.0002 -0.4699
 5933TIP3    H139214   0.370   1.835  13.860  0.5085  0.5467 -1.3372
 5933TIP3    H239215   0.508   1.878  13.905  0.2298 -0.3087  0.4142
 5934TIP3   OH239216   6.667   2.354  15.091  0.7074  0.1484  0.1916
 5934TIP3    H139217   6.677   2.328  15.183  1.2836 -0.8773 -0.1438
 5934TIP3    H239218   6.725   2.430  15.081  0.3661  0.4891  0.7601
 5935TIP3   OH239219   4.909   2.484   4.366 -0.2141  0.1941 -0.1865
 5935TIP3    H139220   4.919   2.524   4.453 -0.2128  2.1313 -1.0226
 5935TIP3    H239221   4.995   2.449   4.345  0.2559  1.2393 -0.0838
 5936TIP3   OH239222   0.682   2.270  12.618 -0.1677  0.2610 -0.0904
 5936TIP3    H139223   0.713   2.229  12.698 -2.6606 -1.8222 -0.0638
 5936TIP3    H239224   0.691   2.364  12.635  1.2985 -0.1473  1.7723
 5937TIP3   OH239225   0.958   4.944   4.760 -0.3999 -0.1895  0.0641
 5937TIP3    H139226   1.050   4.961   4.741 -0.9446  0.9067 -1.8656
 5937TIP3    H239227   0.946   4.852   4.738  0.0548 -0.1283 -0.4664
 5938TIP3   OH239228   3.003   4.815  14.124  0.3390  0.5713 -0.7518
 5938TIP3    H139229   3.029   4.724  14.134  0.2042  0.4690 -1.2907
 5938TIP3    H239230   2.916   4.819  14.163  1.5845  1.1886  2.1754
 5939TIP3   OH239231   2.707   4.973  11.976  0.0887 -0.6144  0.4025
 5939TIP3    H139232   2.677   4.883  11.967  1.3279 -0.9776 -0.2988
 5939TIP3    H239233   2.777   4.982  11.912 -0.2052  0.9489  0.2457
 5940TIP3   OH239234   1.091   4.228   5.005  0.7475  0.0493 -0.2402
 5940TIP3    H139235   1.037   4.306   5.003  1.1286  0.3062 -1.9210
 5940TIP3    H239236   1.170   4.254   5.053  0.8000  0.6625 -0.6520
 5941TIP3   OH239237   2.389   6.230   2.073 -0.1357 -0.2385  0.0592
 5941TIP3    H139238   2.381   6.201   1.982  0.9285 -1.2596  0.2669
 5941TIP3    H239239   2.468   6.187   2.105  0.3072  1.2539  1.0491
 5942TIP3   OH239240   5.959   5.434   4.103 -0.4851 -0.0388  0.0913
 5942TIP3    H139241   5.873   5.440   4.060 -1.0324  1.1630  1.2946
 5942TIP3    H239242   5.961   5.508   4.163  2.1541  1.0740 -1.1856
 5943TIP3   OH239243   3.908   2.772  15.815  0.3028  0.1570 -0.1214
 5943TIP3    H139244   3.898   2.718  15.893  1.3094 -1.4014 -0.9994
 5943TIP3    H239245   3.821   2.809  15.799 -0.1726 -0.3933  1.0948
 5944TIP3   OH239246   2.060   2.089   5.376 -0.1092  0.0543 -0.1625
 5944TIP3    H139247   2.138   2.042   5.349 -1.2104 -1.4080 -0.9495
 5944TIP3    H239248   2.089   2.147   5.447  1.2787 -1.9492  0.9858
 5945TIP3   OH239249   1.453   6.580   0.791  0.2675 -0.0477  0.1067
 5945TIP3    H139250   1.476   6.488   0.776 -0.8597 -0.0256 -2.0999
 5945TIP3    H239251   1.496   6.628   0.720 -0.2460  0.9667  0.4621
 5946TIP3   OH239252   5.693   3.201   2.160  0.1359  0.9000 -0.2383
 5946TIP3    H139253   5.661   3.154   2.083  0.1922 -0.3546  0.4712
 5946TIP3    H239254   5.626   3.267   2.178 -0.9075 -0.1447 -0.1755
 5947TIP3   OH239255   3.487   1.554   3.309 -0.2175 -0.4826  0.3185
 5947TIP3    H139256   3.551   1.593   3.369  0.4382  2.0895 -1.8626
 5947TIP3    H239257   3.403   1.590   3.337 -0.2855 -1.2042  1.1048
 5948TIP3   OH239258   5.822   2.263  11.967 -0.5372  0.1234  0.1596
 5948TIP3    H139259   5.745   2.317  11.954 -0.3594  0.1077 -1.0270
 5948TIP3    H239260   5.791   2.188  12.018 -1.5631 -0.4320 -1.2196
 5949TIP3   OH239261   4.843   6.249  12.564 -0.4125 -0.2761 -0.9320
 5949TIP3    H139262   4.900   6.255  12.641 -2.1712  0.5324  0.3799
 5949TIP3    H239263   4.851   6.158  12.535  0.8477 -0.4062 -0.2520
 5950TIP3   OH239264   3.282   4.598  14.958  0.1802  0.0353  0.3285
 5950TIP3    H139265   3.282   4.667  15.024  0.4397  0.5168 -0.1655
 5950TIP3    H239266   3.223   4.531  14.993 -1.1433  1.0919  0.2057
 5951TIP3   OH239267   6.112   1.635  15.563  0.0416  0.1612  0.4858
 5951TIP3    H139268   6.176   1.577  15.605  0.8470 -1.4580 -2.6499
 5951TIP3    H239269   6.153   1.721  15.564  0.2950  0.0617  2.3066
 5952TIP3   OH239270   2.310   4.977   5.293 -0.7181 -0.2839  0.1245
 5952TIP3    H139271   2.284   5.013   5.378 -2.1022  3.3952 -1.6778
 5952TIP3    H239272   2.398   5.011   5.278 -0.9334  0.0327 -0.4220
 5953TIP3   OH239273   3.174   3.326   0.024 -0.1274  0.1054 -0.3198
 5953TIP3    H139274   3.229   3.397   0.058  0.3931  0.8484 -2.5492
 5953TIP3    H239275   3.085   3.357   0.035 -0.1074 -0.4761  1.9725
 5954TIP3   OH239276   3.298   1.098   1.094  0.2142 -0.2807  0.1044
 5954TIP3    H139277   3.242   1.093   1.171  0.2063  0.2657  0.1341
 5954TIP3    H239278   3.242   1.134   1.025  0.9387  1.7695  0.5357
 5955TIP3   OH239279   3.596   2.059  16.217 -0.4605 -0.2239  0.1662
 5955TIP3    H139280   3.625   2.138  16.170  1.0920 -0.4181  0.7446
 5955TIP3    H239281   3.676   2.007  16.228 -1.6365 -2.5173 -1.3338
 5956TIP3   OH239282   2.388   2.685  16.003  0.3188 -0.3163  0.0161
 5956TIP3    H139283   2.306   2.714  15.962 -0.1018  2.8819  2.7173
 5956TIP3    H239284   2.449   2.677  15.930 -1.4574  0.8625 -1.7141
 5957TIP3   OH239285   2.556   2.753   5.724 -0.0019  0.4553 -0.7554
 5957TIP3    H139286   2.629   2.806   5.756  0.1224  0.6233 -1.3171
 5957TIP3    H239287   2.587   2.716   5.642  0.1344 -0.9811 -0.0857
 5958TIP3   OH239288   1.822   5.623   2.549 -0.6292 -0.2525  0.1771
 5958TIP3    H139289   1.771   5.641   2.628  0.3521  0.9490  0.5580
 5958TIP3    H239290   1.898   5.680   2.556  0.9677 -2.2209 -0.2129
 5959TIP3   OH239291   5.030   1.640   1.644 -0.4657  0.6820  0.1073
 5959TIP3    H139292   5.113   1.606   1.611 -0.6046 -1.1130  1.4495
 5959TIP3    H239293   4.975   1.563   1.656 -1.3905  1.5308  1.7788
 5960TIP3   OH239294   4.456   1.175  12.141 -0.0549  0.0555  0.3114
 5960TIP3    H139295   4.462   1.179  12.046  0.1355  0.1391  0.3257
 5960TIP3    H239296   4.374   1.130  12.159 -0.4755  0.7231  0.1120
 5961TIP3   OH239297   4.642   0.512  14.997 -0.0570  0.6175  0.2218
 5961TIP3    H139298   4.703   0.557  14.939  0.6670  0.7800  1.0801
 5961TIP3    H239299   4.680   0.426  15.011 -0.4471  0.4247  0.1182
 5962TIP3   OH239300   0.202   1.446   1.213  0.2964 -0.2315 -0.1771
 5962TIP3    H139301   0.206   1.363   1.260  1.2066 -0.5498 -0.7933
 5962TIP3    H239302   0.200   1.513   1.282  1.4058 -0.6977  0.3324
 5963TIP3   OH239303   0.206   6.097  10.568 -0.2329 -1.2574 -0.6083
 5963TIP3    H139304   0.245   6.059  10.647 -0.1575 -0.2013 -0.1227
 5963TIP3    H239305   0.122   6.053  10.559 -0.6490 -0.7517  0.5896
 5964TIP3   OH239306   2.970   3.587  14.905  0.2343  0.0056 -0.5847
 5964TIP3    H139307   3.058   3.610  14.934  0.8497  0.7846 -2.8833
 5964TIP3    H239308   2.965   3.492  14.915  0.4386  0.1668  1.7508
 5965TIP3   OH239309   1.075   3.913  17.071  0.4918 -0.4373  0.3784
 5965TIP3    H139310   1.037   3.840  17.023 -1.1953  0.9343 -0.5161
 5965TIP3    H239311   1.129   3.959  17.007  0.3362 -0.0683  0.5078
 5966TIP3   OH239312   5.675   4.822   0.005  0.6217 -0.0113 -0.1869
 5966TIP3    H139313   5.708   4.748   0.056 -0.2483 -0.1839  0.1319
 5966TIP3    H239314   5.707   4.807  -0.083  0.2477 -0.8996 -0.1801
 5967TIP3   OH239315   5.370   3.428  14.595  0.4465  0.1835  0.6570
 5967TIP3    H139316   5.420   3.509  14.593 -2.1291  2.0386  2.8596
 5967TIP3    H239317   5.312   3.434  14.520  0.8724 -0.0616  0.3083
 5968TIP3   OH239318   2.798   3.393   0.702  0.6753  0.4027 -0.2264
 5968TIP3    H139319   2.742   3.470   0.706 -0.1638 -0.0948 -1.4795
 5968TIP3    H239320   2.792   3.353   0.788 -3.1318 -1.0936 -0.9775
 5969TIP3   OH239321   4.821   1.081   2.405  0.0122  0.2101  0.0624
 5969TIP3    H139322   4.914   1.089   2.388 -0.1996  1.7421 -0.5318
 5969TIP3    H239323   4.788   1.171   2.400 -1.4344 -0.2641  0.6042
 5970TIP3   OH239324   1.333   3.512   6.349  0.0477  0.1468  0.6482
 5970TIP3    H139325   1.396   3.583   6.339 -0.4393  0.6253  0.8688
 5970TIP3    H239326   1.267   3.547   6.409 -1.2902  0.2661 -0.8127
 5971TIP3   OH239327   3.814   3.297  11.449  0.1636 -0.0821  0.2999
 5971TIP3    H139328   3.796   3.303  11.543  2.0536  1.8176  0.6169
 5971TIP3    H239329   3.730   3.274  11.410 -0.3992 -2.2337  2.5382
 5972TIP3   OH239330   4.830   3.157  16.593  0.3325 -0.0963  0.4978
 5972TIP3    H139331   4.755   3.097  16.586 -0.6498  1.2503 -2.0602
 5972TIP3    H239332   4.819   3.200  16.678 -2.0314  0.2558  0.0963
 5973TIP3   OH239333   2.116   4.919  12.768  0.8135  0.7963 -0.0565
 5973TIP3    H139334   2.073   4.904  12.683  0.2053 -3.4670  0.7725
 5973TIP3    H239335   2.209   4.903  12.751  0.6541 -0.3440  0.1047
 5974TIP3   OH239336   6.515   0.037  15.763 -0.2350  0.1326 -0.0989
 5974TIP3    H139337   6.543  -0.054  15.760  1.1046  0.4738  1.0338
 5974TIP3    H239338   6.553   0.077  15.684 -1.4773 -0.4412 -1.0066
 5975TIP3   OH239339   6.258   4.294   6.561 -0.5088  0.1018  0.4935
 5975TIP3    H139340   6.199   4.342   6.503 -0.8818 -0.8815  0.0269
 5975TIP3    H239341   6.330   4.355   6.579 -1.6770  1.3265  1.1081
 5976TIP3   OH239342   4.421   0.571   4.153  0.7545  0.0272  0.0729
 5976TIP3    H139343   4.508   0.584   4.115  0.0241  1.9044 -1.1151
 5976TIP3    H239344   4.398   0.481   4.130  1.4344  0.2573 -1.6888
 5977TIP3   OH239345   1.526   1.016   1.947 -0.1999  1.3396 -0.2158
 5977TIP3    H139346   1.589   0.980   1.885  0.0436  0.5605  0.4597
 5977TIP3    H239347   1.557   0.985   2.033 -0.4596  2.4839  0.3102
 5978TIP3   OH239348   0.427   4.012  11.445 -0.2442  0.1668 -0.0643
 5978TIP3    H139349   0.400   3.932  11.399  1.4929 -1.0916  1.0078
 5978TIP3    H239350   0.442   3.984  11.535 -0.2417  1.8629  0.4913
 5979TIP3   OH239351   5.916   2.201   0.780  0.1684 -0.2617 -0.2043
 5979TIP3    H139352   5.865   2.280   0.797 -0.9115 -0.9300 -0.2396
 5979TIP3    H239353   5.941   2.169   0.867 -0.6159 -0.6421 -0.1055
 5980TIP3   OH239354   6.449   1.733   4.047  0.3271 -0.0573  0.2616
 5980TIP3    H139355   6.446   1.683   3.965 -1.4543  0.6830 -0.1745
 5980TIP3    H239356   6.530   1.705   4.089  0.6942 -1.3372 -1.1957
 5981TIP3   OH239357   0.752   3.832  15.898  0.1262  0.0650 -0.4482
 5981TIP3    H139358   0.682   3.822  15.833  0.9345 -0.4525 -1.2602
 5981TIP3    H239359   0.775   3.925  15.893 -1.1622  0.4748  0.5516
 5982TIP3   OH239360   4.211   3.595  13.467  0.2810 -0.0539  0.1794
 5982TIP3    H139361   4.223   3.673  13.521  0.1108 -0.5660  0.9691
 5982TIP3    H239362   4.254   3.616  13.384 -1.5553  1.6640 -0.3954
 5983TIP3   OH239363   1.531   5.767   6.355  0.4816  0.2578 -0.4436
 5983TIP3    H139364   1.618   5.806   6.344  0.5306  0.2373 -0.1144
 5983TIP3    H239365   1.540   5.679   6.318  0.7249  0.0936  0.0036
 5984TIP3   OH239366   5.066   3.042   0.683  0.0423  1.0207 -0.3297
 5984TIP3    H139367   5.063   3.072   0.592 -2.5577 -2.7822 -1.7755
 5984TIP3    H239368   4.976   3.048   0.714  0.1111 -1.2165  0.5592
 5985TIP3   OH239369   5.036   6.188   6.142 -0.5180  0.1843 -0.4020
 5985TIP3    H139370   4.950   6.152   6.122  0.5315 -2.0132 -1.3528
 5985TIP3    H239371   5.089   6.112   6.165  1.1541  1.4923  0.2830
 5986TIP3   OH239372   5.156   0.076  14.632 -0.3564  0.0256  0.7377
 5986TIP3    H139373   5.246   0.070  14.600 -0.6531 -1.8078  0.1135
 5986TIP3    H239374   5.119  -0.011  14.616 -2.3694  0.8459  0.5893
 5987TIP3   OH239375   4.755   3.213  15.352  0.0242  0.2936  0.5540
 5987TIP3    H139376   4.672   3.201  15.398  0.6765  1.9659  2.2437
 5987TIP3    H239377   4.734   3.271  15.279 -0.3902  0.2994  0.6753
 5988TIP3   OH239378   0.037   6.018  12.220  0.2958 -0.2439 -0.0513
 5988TIP3    H139379   0.120   6.041  12.178 -0.7806  0.9213 -1.6151
 5988TIP3    H239380   0.053   6.032  12.314  0.7176  3.9773 -0.5717
 5989TIP3   OH239381   6.122   2.986   1.508  0.1566  0.0127 -0.3716
 5989TIP3    H139382   6.199   2.941   1.472  0.1918  0.8637 -1.4005
 5989TIP3    H239383   6.136   3.078   1.487 -0.4043  0.3891  0.8202
 5990TIP3   OH239384   1.258   5.955  14.330 -0.3366  0.1621  0.3433
 5990TIP3    H139385   1.306   5.905  14.396 -1.3862 -0.2316  0.8375
 5990TIP3    H239386   1.211   6.022  14.380  0.4565  1.1729 -0.2338
 5991TIP3   OH239387   0.354   2.096  13.524 -0.0918 -0.5460  0.2525
 5991TIP3    H139388   0.424   2.151  13.489 -0.0920 -0.8892 -0.2892
 5991TIP3    H239389   0.356   2.113  13.618 -0.2295  0.5378  0.0741
 5992TIP3   OH239390   2.306   1.575  10.321 -0.2412  0.0052  0.1391
 5992TIP3    H139391   2.312   1.648  10.382  0.5799  0.3976 -0.4102
 5992TIP3    H239392   2.393   1.535  10.321 -0.7201 -1.0920  0.5618
 5993TIP3   OH239393   3.180   5.017   1.580 -0.5693 -0.1703 -0.0315
 5993TIP3    H139394   3.128   5.005   1.501 -1.5776 -0.6381  0.6747
 5993TIP3    H239395   3.243   5.085   1.558 -2.3161  1.3699 -0.5443
 5994TIP3   OH239396   1.328   3.129   4.425 -0.0653 -0.2476 -1.0864
 5994TIP3    H139397   1.237   3.143   4.453  0.4893  1.2524  0.1104
 5994TIP3    H239398   1.338   3.034   4.422 -1.6397 -0.4457 -1.1528
 5995TIP3   OH239399   6.510   3.383   0.772 -0.1946  0.0412  0.7109
 5995TIP3    H139400   6.480   3.297   0.800  0.2466 -0.3643 -0.0389
 5995TIP3    H239401   6.437   3.420   0.723  0.4570 -0.9375 -1.0986
 5996TIP3   OH239402   5.639   1.475   4.172 -0.9698 -0.2767 -0.7142
 5996TIP3    H139403   5.596   1.427   4.101 -0.5464 -1.6900 -0.0581
 5996TIP3    H239404   5.596   1.445   4.252 -0.2551 -0.0546 -0.2246
 5997TIP3   OH239405   4.881   5.833  13.224 -0.1214 -0.0997  0.5653
 5997TIP3    H139406   4.821   5.793  13.161  0.5932 -1.4996  0.7175
 5997TIP3    H239407   4.859   5.926  13.224 -0.8274 -0.2427 -0.9695
 5998TIP3   OH239408   3.200   3.404   1.144  0.3502 -0.4835  0.0385
 5998TIP3    H139409   3.221   3.487   1.102 -1.0149 -0.2376 -0.2177
 5998TIP3    H239410   3.114   3.418   1.183  0.2227 -1.6850  0.2322
 5999TIP3   OH239411   3.558   6.159  11.942  0.4708 -0.1408 -0.4549
 5999TIP3    H139412   3.599   6.243  11.924 -1.7993  0.5583 -3.0431
 5999TIP3    H239413   3.611   6.096  11.893  0.9422  0.1081 -0.2658
 6000TIP3   OH239414   0.112   0.693   0.237  0.2453  0.4738  0.5655
 6000TIP3    H139415   0.042   0.640   0.275  0.3406 -0.3133 -0.3041
 6000TIP3    H239416   0.192   0.651   0.267  0.3276  0.4510  0.3172
 6001TIP3   OH239417   3.585   1.873  12.847  0.4898 -0.7691  0.6945
 6001TIP3    H139418   3.677   1.861  12.870  2.6019  2.8528 -4.0948
 6001TIP3    H239419   3.549   1.925  12.918  2.5053 -1.0621  2.0298
 6002TIP3   OH239420   5.380   1.697   3.673  0.0785 -0.1046  0.1526
 6002TIP3    H139421   5.334   1.779   3.691  1.1269  0.8567 -1.2947
 6002TIP3    H239422   5.328   1.656   3.604  0.3672  0.0807 -0.1776
 6003TIP3   OH239423   1.413   0.951   4.159  0.0866 -0.3491  0.0773
 6003TIP3    H139424   1.433   1.021   4.222 -0.6868 -0.3389  0.3248
 6003TIP3    H239425   1.421   0.994   4.073 -0.0209 -0.0515  0.2128
 6004TIP3   OH239426   3.021   2.220   6.304  0.1924  0.3448 -0.8019
 6004TIP3    H139427   2.938   2.172   6.311 -0.1373  0.7467 -1.7387
 6004TIP3    H239428   3.026   2.272   6.384  0.4740 -1.0894  0.1545
 6005TIP3   OH239429   4.603   3.989   2.150 -0.2304 -0.2431  0.4564
 6005TIP3    H139430   4.583   3.895   2.140  1.2871 -0.5443 -0.0023
 6005TIP3    H239431   4.673   4.005   2.087  0.6326  0.8421  1.6559
 6006TIP3   OH239432   5.256   0.595  14.742  0.4181 -0.4097  0.0627
 6006TIP3    H139433   5.262   0.609  14.836 -0.2158  1.6005 -0.1420
 6006TIP3    H239434   5.172   0.552  14.729  0.6336 -0.9540  0.4173
 6007TIP3   OH239435   0.617   1.481   2.787  0.5977  0.2811  0.0789
 6007TIP3    H139436   0.548   1.530   2.742  0.9662  0.9466  0.2389
 6007TIP3    H239437   0.687   1.544   2.800  0.1322  0.4009  2.4847
 6008TIP3   OH239438   5.846   4.879  11.354 -0.0766  0.3395  0.2318
 6008TIP3    H139439   5.801   4.960  11.378  1.6964  1.4467  0.0199
 6008TIP3    H239440   5.848   4.881  11.258  1.4652  0.9664  0.2451
 6009TIP3   OH239441   4.808   2.026  11.401  0.4092 -0.2609 -0.0924
 6009TIP3    H139442   4.721   2.053  11.433  0.6164 -0.4429  0.6319
 6009TIP3    H239443   4.867   2.096  11.429  0.1761  0.9819 -2.4844
 6010TIP3   OH239444   5.723   5.857   1.219 -0.2410 -0.4712 -0.1026
 6010TIP3    H139445   5.796   5.795   1.222  0.0112 -0.2029 -0.6227
 6010TIP3    H239446   5.668   5.833   1.294 -0.7283 -2.0508 -0.9134
 6011TIP3   OH239447   6.208   3.531  16.536 -0.8604 -0.9610 -0.1888
 6011TIP3    H139448   6.258   3.508  16.615  3.5944 -1.6637 -2.8516
 6011TIP3    H239449   6.175   3.619  16.553  0.8936 -0.6502  2.1012
 6012TIP3   OH239450   5.371   5.778   0.506 -0.3596 -0.0332  0.3153
 6012TIP3    H139451   5.371   5.778   0.602  0.3658 -1.3954  0.3528
 6012TIP3    H239452   5.437   5.843   0.482 -1.6995  1.5046  0.6798
 6013TIP3   OH239453   6.184   1.902   3.581  0.5348 -0.2792 -0.4487
 6013TIP3    H139454   6.210   1.955   3.656  0.1678 -2.3938  1.2790
 6013TIP3    H239455   6.088   1.907   3.580  0.5115 -0.7279 -0.4240
 6014TIP3   OH239456   4.528   2.210  12.807 -0.3765 -0.8079 -0.2556
 6014TIP3    H139457   4.498   2.262  12.732  0.7598  0.3776  0.0615
 6014TIP3    H239458   4.622   2.228  12.812 -0.4387 -0.7829  1.4961
 6015TIP3   OH239459   4.002   2.211  16.680 -0.4750  0.4563 -0.2223
 6015TIP3    H139460   4.009   2.157  16.758 -0.9925  0.1791 -0.3644
 6015TIP3    H239461   3.910   2.206  16.656 -0.3146  0.5195 -0.8621
 6016TIP3   OH239462   6.115   3.951   0.175 -0.1885 -0.1905  0.3675
 6016TIP3    H139463   6.070   4.029   0.143  0.3322  0.5137  1.2732
 6016TIP3    H239464   6.201   3.954   0.133 -0.0856 -0.1459  0.5795
 6017TIP3   OH239465   0.260   1.299  17.052  0.2977  0.3270  0.1774
 6017TIP3    H139466   0.210   1.361  17.105 -0.4849  0.6580 -0.9265
 6017TIP3    H239467   0.344   1.342  17.039  0.2572  0.5338  0.5740
 6018TIP3   OH239468   1.665   4.493   2.197  0.6036 -0.0825  0.2923
 6018TIP3    H139469   1.705   4.564   2.246  0.4893 -0.3541  0.7822
 6018TIP3    H239470   1.603   4.536   2.138 -0.0145  0.1735  1.1215
 6019TIP3   OH239471   2.502   3.788   1.571  1.0554  0.3390  0.6424
 6019TIP3    H139472   2.464   3.771   1.657 -0.2240  0.2680  0.0822
 6019TIP3    H239473   2.466   3.720   1.515  4.0712 -1.4145  0.5792
 6020TIP3   OH239474   5.331   2.122  11.875 -0.2094 -0.2152  0.9700
 6020TIP3    H139475   5.378   2.166  11.946 -0.4730 -0.2589  1.1720
 6020TIP3    H239476   5.277   2.057  11.919  0.1718 -0.7369  0.6693
 6021TIP3   OH239477   0.752   2.377  16.243  0.0336 -0.1021  0.5881
 6021TIP3    H139478   0.674   2.325  16.264 -0.0970 -0.6784 -1.1856
 6021TIP3    H239479   0.800   2.324  16.179  1.0962  0.9262  0.5107
 6022TIP3   OH239480   1.120   6.300  16.102 -0.3190  0.2856 -0.0334
 6022TIP3    H139481   1.126   6.370  16.167  1.8052 -0.0765  0.2231
 6022TIP3    H239482   1.026   6.284  16.092 -0.7513 -0.3363  3.6974
 6023TIP3   OH239483   0.372   6.741  12.832 -0.0254 -0.1235  0.2472
 6023TIP3    H139484   0.319   6.794  12.892 -0.2247 -0.3118  0.2419
 6023TIP3    H239485   0.319   6.662  12.817  0.9705 -1.0881  1.5545
 6024TIP3   OH239486   2.895   0.890   5.255 -0.5560 -0.0597  0.4339
 6024TIP3    H139487   2.810   0.919   5.287 -0.9266 -0.0348 -0.5417
 6024TIP3    H239488   2.936   0.970   5.220 -0.3332 -0.1689  0.4413
 6025TIP3   OH239489   3.449   1.303   1.300 -0.6805 -0.6559 -0.1337
 6025TIP3    H139490   3.476   1.326   1.390  1.6497  1.7658 -1.2906
 6025TIP3    H239491   3.359   1.274   1.309 -1.3087  1.6696  2.7461
 6026TIP3   OH239492   4.423   5.592  13.956 -0.3399 -0.2193  0.5087
 6026TIP3    H139493   4.383   5.558  13.876  1.2004 -0.1706 -0.3089
 6026TIP3    H239494   4.359   5.656  13.989 -0.6723  0.3251 -1.1046
 6027TIP3   OH239495   1.222   4.844   3.707  0.2982  0.3512 -0.5910
 6027TIP3    H139496   1.313   4.869   3.690 -0.4938  4.0549 -0.2105
 6027TIP3    H239497   1.187   4.821   3.621  1.0416  1.0412 -1.0909
 6028TIP3   OH239498   5.821   3.175   5.835  0.6140 -0.1284  0.5896
 6028TIP3    H139499   5.840   3.113   5.905  2.4036 -0.0126  0.2525
 6028TIP3    H239500   5.897   3.233   5.833 -0.7788  1.7646  0.5421
 6029TIP3   OH239501   4.912   3.482   4.207  0.5934  0.5098 -0.2574
 6029TIP3    H139502   4.983   3.441   4.159  0.6945  1.6395 -1.1231
 6029TIP3    H239503   4.859   3.409   4.240  3.2924 -0.4919  2.3157
 6030TIP3   OH239504   5.787   3.948  16.940 -0.4818  0.0525 -0.0907
 6030TIP3    H139505   5.794   3.855  16.918  1.4997  0.4786 -1.5407
 6030TIP3    H239506   5.761   3.990  16.859  0.7395  0.9887 -0.0192
 6031TIP3   OH239507   6.761   6.396  11.495  0.3196 -0.0315 -0.2195
 6031TIP3    H139508   6.757   6.484  11.458 -1.0955 -0.7991 -2.0144
 6031TIP3    H239509   6.670   6.367  11.499  0.8329 -1.8592 -0.8161
 6032TIP3   OH239510   5.588   4.792  16.973 -0.6782 -0.4700 -0.1300
 6032TIP3    H139511   5.644   4.715  16.978 -1.3412 -1.0187 -0.8930
 6032TIP3    H239512   5.505   4.763  17.011 -0.5680  0.2367  0.6886
 6033TIP3   OH239513   1.781   1.253   6.405 -0.2643 -0.2077  0.1659
 6033TIP3    H139514   1.869   1.282   6.378 -0.4487  0.2966  0.1009
 6033TIP3    H239515   1.729   1.333   6.408 -1.2329 -0.7041 -1.6878
 6034TIP3   OH239516   1.489   0.673   5.533  0.0557 -0.1054 -0.0791
 6034TIP3    H139517   1.437   0.753   5.525  0.7069  0.6102  1.9567
 6034TIP3    H239518   1.550   0.676   5.460  0.6285  1.7377  0.4262
 6035TIP3   OH239519   1.355   5.247  14.734  0.6094  0.8920  0.4585
 6035TIP3    H139520   1.289   5.179  14.749  0.2188  0.5207 -2.4206
 6035TIP3    H239521   1.321   5.323  14.782 -2.1548  0.8061 -1.1355
 6036TIP3   OH239522   6.299   2.941   5.594 -0.0352 -0.7879  0.0586
 6036TIP3    H139523   6.369   2.876   5.598  0.0725 -0.6976 -0.4000
 6036TIP3    H239524   6.240   2.910   5.526 -0.1145 -0.5357  0.0107
 6037TIP3   OH239525   0.703   0.478   0.003 -0.4872  0.7325  0.5801
 6037TIP3    H139526   0.648   0.402   0.022  1.5817 -0.6993  1.3255
 6037TIP3    H239527   0.773   0.474   0.069  1.0680  1.8238 -0.8985
 6038TIP3   OH239528   0.389   4.668  11.405 -0.0786  0.0283 -0.4460
 6038TIP3    H139529   0.434   4.731  11.462 -1.2564 -0.8410  1.5674
 6038TIP3    H239530   0.413   4.694  11.316  2.5860  0.9213  0.4306
 6039TIP3   OH239531   4.886   2.440   3.768  0.6517 -0.3158 -0.6264
 6039TIP3    H139532   4.880   2.386   3.847  0.2148  0.8364  0.1505
 6039TIP3    H239533   4.798   2.437   3.729 -0.1386  1.8192  0.8051
 6040TIP3   OH239534   5.518   5.189   4.601 -0.0199 -0.4778 -0.3405
 6040TIP3    H139535   5.481   5.198   4.689 -0.1450  1.9359 -0.5672
 6040TIP3    H239536   5.442   5.182   4.544 -0.0339  0.7716 -0.4862
 6041TIP3   OH239537   4.652   5.920   0.698  0.5217  1.0101  0.4815
 6041TIP3    H139538   4.559   5.920   0.720  0.0109  1.4042 -1.5301
 6041TIP3    H239539   4.683   5.834   0.724 -0.6984  0.4132  0.0134
 6042TIP3   OH239540   3.993   4.104   0.578 -0.1014  0.3508 -0.3829
 6042TIP3    H139541   4.001   4.189   0.622  0.5385  0.6935 -1.1407
 6042TIP3    H239542   4.082   4.070   0.575 -0.0826  0.4410 -1.5895
 6043TIP3   OH239543   0.750   5.655  12.241  0.3133 -0.0338  0.2819
 6043TIP3    H139544   0.702   5.574  12.252 -1.7726  1.2850  1.6898
 6043TIP3    H239545   0.728   5.707  12.319  4.4133  0.5503  1.2913
 6044TIP3   OH239546   6.250   1.013  12.822 -0.5100 -0.1865 -0.2711
 6044TIP3    H139547   6.254   0.969  12.907 -1.8399 -0.2230 -0.2029
 6044TIP3    H239548   6.257   1.106  12.844  0.6030 -0.2558 -0.2677
 6045TIP3   OH239549   2.033   2.968   0.602 -0.4279 -0.2320 -0.0259
 6045TIP3    H139550   1.944   2.960   0.568  0.0819 -0.0263 -1.4647
 6045TIP3    H239551   2.022   3.002   0.691 -1.8125 -0.9826  0.1096
 6046TIP3   OH239552   0.903   2.451  17.036  0.6225 -0.1542  0.1237
 6046TIP3    H139553   0.845   2.379  17.058 -0.3811  0.7852  0.5890
 6046TIP3    H239554   0.852   2.530  17.051  1.6320  0.6686 -0.5727
 6047TIP3   OH239555   0.142   4.160   2.784 -0.5549  0.2631  0.4892
 6047TIP3    H139556   0.236   4.149   2.769 -0.6745 -1.6703  0.8648
 6047TIP3    H239557   0.125   4.252   2.763  1.9777  1.5792  3.2911
 6048TIP3   OH239558   2.142   2.462   3.223  0.4526  0.4303  0.3891
 6048TIP3    H139559   2.221   2.507   3.193 -1.0939  3.7668  0.8348
 6048TIP3    H239560   2.105   2.423   3.144  0.9804  1.4961 -0.4032
 6049TIP3   OH239561   2.548   5.911   4.547 -0.2173  0.2290 -0.1206
 6049TIP3    H139562   2.572   5.851   4.617 -0.1940  0.0506 -0.2811
 6049TIP3    H239563   2.462   5.881   4.517  0.5662 -0.8454 -1.4129
 6050TIP3   OH239564   0.126   6.502   0.116  0.2921 -0.2406 -0.1802
 6050TIP3    H139565   0.032   6.517   0.116  0.1598 -1.0120  0.0799
 6050TIP3    H239566   0.135   6.407   0.104  0.9754 -0.4440  1.5649
 6051TIP3   OH239567   5.779   0.695   3.355 -0.4292 -0.0106 -0.2487
 6051TIP3    H139568   5.713   0.720   3.420 -0.1411 -0.4456  0.2141
 6051TIP3    H239569   5.802   0.605   3.377  1.0074  0.4357  0.1778
 6052TIP3   OH239570   6.258   3.300  10.765 -0.2377  0.1153  0.1601
 6052TIP3    H139571   6.291   3.212  10.747  0.4860  0.8380 -2.3077
 6052TIP3    H239572   6.233   3.297  10.858 -0.2853 -2.6808  0.1328
 6053TIP3   OH239573   6.661   4.352  13.196 -0.0262 -0.1658  0.5101
 6053TIP3    H139574   6.632   4.443  13.185  1.1285  0.4275  2.0633
 6053TIP3    H239575   6.714   4.334  13.119  0.7003  0.8865  0.7484
 6054TIP3   OH239576   0.648   3.497   1.297  0.3809  0.0144 -0.6423
 6054TIP3    H139577   0.718   3.556   1.269  1.2852 -0.0407  1.3120
 6054TIP3    H239578   0.571   3.554   1.305  0.3782  0.2410 -1.9835
 6055TIP3   OH239579   6.381   0.299  11.377  0.1687  0.6925 -0.1196
 6055TIP3    H139580   6.403   0.383  11.337 -0.1599  0.3473 -1.0589
 6055TIP3    H239581   6.292   0.310  11.409 -0.5240  0.2037 -1.7585
 6056TIP3   OH239582   1.727   0.794  10.646  0.2147  0.4123 -0.1826
 6056TIP3    H139583   1.801   0.778  10.586  0.3984  1.9034 -0.3759
 6056TIP3    H239584   1.764   0.848  10.715  0.1061 -1.6157  1.5480
 6057TIP3   OH239585   4.724   4.998  13.267 -0.4651  0.1264  0.9637
 6057TIP3    H139586   4.720   5.026  13.359  1.8186 -1.6218  1.6940
 6057TIP3    H239587   4.811   5.025  13.238 -0.7894 -0.2175 -0.3737
 6058TIP3   OH239588   5.463   6.740   1.331 -0.2748  0.1996  0.6406
 6058TIP3    H139589   5.501   6.751   1.244 -1.5765 -0.6646 -0.0666
 6058TIP3    H239590   5.538   6.730   1.389  0.5904 -0.6562 -0.5890
 6059TIP3   OH239591   6.051   0.867  12.683  0.0208 -0.1383 -0.5167
 6059TIP3    H139592   6.114   0.930  12.718  0.5943 -0.8584 -0.2289
 6059TIP3    H239593   6.078   0.854  12.592 -0.4923  0.5131 -0.7691
 6060TIP3   OH239594   0.020   2.522   3.632 -0.0120  0.2337 -0.8014
 6060TIP3    H139595   0.070   2.520   3.550  0.9718  0.1295 -0.2070
 6060TIP3    H239596   0.030   2.612   3.664  1.9738 -0.4309  0.6154
 6061TIP3   OH239597   0.150   5.342  10.535 -0.1668 -0.3150 -0.4597
 6061TIP3    H139598   0.085   5.308  10.473  0.6538 -1.2525 -0.8282
 6061TIP3    H239599   0.098   5.368  10.611 -1.0218 -0.6790 -0.8946
 6062TIP3   OH239600   5.665   5.317  14.453 -0.0557 -0.7957  0.3642
 6062TIP3    H139601   5.652   5.315  14.359  0.9440  3.0471 -0.0149
 6062TIP3    H239602   5.758   5.333  14.465 -0.3319 -0.1330  1.9267
 6063TIP3   OH239603   4.607   1.613   3.268 -0.0900 -0.9882 -0.2951
 6063TIP3    H139604   4.676   1.583   3.210 -0.0389  0.2590 -0.9132
 6063TIP3    H239605   4.528   1.567   3.237 -0.2259  0.2177 -1.8968
 6064TIP3   OH239606   6.529   2.277  11.123  0.0170  0.2372 -0.7527
 6064TIP3    H139607   6.620   2.250  11.125  0.7614  2.4894  0.7716
 6064TIP3    H239608   6.501   2.262  11.033  2.9491  2.4781 -2.2333
 6065TIP3   OH239609   5.485   4.072   5.759 -0.3958  0.1674 -0.4432
 6065TIP3    H139610   5.556   4.080   5.823  0.2454 -0.7249 -1.0099
 6065TIP3    H239611   5.473   4.161   5.725  0.0861  0.4275  0.0414
 6066TIP3   OH239612   3.476   3.782   0.827  0.5503  0.5875  0.5976
 6066TIP3    H139613   3.404   3.845   0.828 -1.5712 -1.6274 -1.0029
 6066TIP3    H239614   3.511   3.787   0.738 -0.0599 -0.8614  0.2465
 6067TIP3   OH239615   5.759   5.195   1.764 -0.2245  0.2893 -0.7599
 6067TIP3    H139616   5.793   5.280   1.790 -2.1299  0.2105  2.4353
 6067TIP3    H239617   5.665   5.200   1.782 -0.2184 -2.8567  0.7576
 6068TIP3   OH239618   4.704   4.757  16.845 -0.3325  0.0900  0.3346
 6068TIP3    H139619   4.789   4.731  16.810 -0.2254 -0.0894  0.7362
 6068TIP3    H239620   4.708   4.853  16.847 -0.0629  0.0743  0.5513
 6069TIP3   OH239621   6.012   2.733  16.231 -0.6862 -0.3890 -0.0435
 6069TIP3    H139622   5.972   2.774  16.154  0.1455  2.4867  0.9328
 6069TIP3    H239623   6.100   2.709  16.203 -1.5952 -2.9372 -1.0033
 6070TIP3   OH239624   4.564   3.730   0.977  0.0642 -0.0721  0.1728
 6070TIP3    H139625   4.625   3.710   0.905 -1.0525 -2.0179 -0.3138
 6070TIP3    H239626   4.531   3.817   0.957  0.5199 -0.1698 -1.1582
 6071TIP3   OH239627   1.502   0.687   3.589 -0.0612 -0.2066 -0.1490
 6071TIP3    H139628   1.573   0.737   3.549  0.5055  0.2685  1.3653
 6071TIP3    H239629   1.488   0.729   3.674 -0.3060 -1.9333  0.7136
 6072TIP3   OH239630   6.107   0.951   1.999  0.1931 -0.4881 -0.3728
 6072TIP3    H139631   6.092   0.984   2.088 -2.0695 -2.7274  0.1799
 6072TIP3    H239632   6.110   0.856   2.009 -3.4710 -1.1045 -2.9901
 6073TIP3   OH239633   1.092   4.171   3.942 -0.4667  0.0710 -0.7068
 6073TIP3    H139634   1.094   4.141   4.032  0.7363 -1.0064 -1.0663
 6073TIP3    H239635   1.180   4.152   3.908 -0.8492  0.5848 -2.0599
 6074TIP3   OH239636   1.757   3.709   4.046 -0.2159  0.9876  0.2327
 6074TIP3    H139637   1.803   3.774   3.992 -0.3422 -0.7051 -2.0492
 6074TIP3    H239638   1.667   3.711   4.015 -0.5262  0.6281  1.0727
 6075TIP3   OH239639   3.592   3.335   4.682  0.5368 -0.2939 -0.1486
 6075TIP3    H139640   3.627   3.365   4.766  0.9926 -0.0612 -0.4150
 6075TIP3    H239641   3.542   3.410   4.649  1.2770  0.0175 -0.5921
 6076TIP3   OH239642   6.046   4.013   2.670  0.2498 -0.0828  0.3065
 6076TIP3    H139643   6.026   4.065   2.592 -0.2450 -0.3023  0.2806
 6076TIP3    H239644   5.961   3.981   2.700  0.1096  1.8772  2.2730
 6077TIP3   OH239645   4.209   5.049   0.284  0.1688  0.2845  0.2419
 6077TIP3    H139646   4.243   5.133   0.253 -1.7394 -0.0754 -3.4771
 6077TIP3    H239647   4.285   4.992   0.286  0.8198  0.9467 -2.0312
 6078TIP3   OH239648   6.746   6.654  16.629 -0.2091 -0.2784 -0.3457
 6078TIP3    H139649   6.753   6.570  16.675  0.2366 -0.2195 -0.3031
 6078TIP3    H239650   6.830   6.697  16.645 -0.5507  0.3129 -0.1040
 6079TIP3   OH239651   6.354   4.873   3.432  0.6108  0.3468 -0.4742
 6079TIP3    H139652   6.265   4.895   3.462  0.7464  1.5603 -0.9389
 6079TIP3    H239653   6.411   4.932   3.482  1.1751 -0.4612 -0.1429
 6080TIP3   OH239654   3.059   6.736   2.797 -0.2069 -0.0588 -0.1365
 6080TIP3    H139655   2.979   6.689   2.774 -0.0716 -0.0447 -0.6460
 6080TIP3    H239656   3.064   6.808   2.734 -0.2466  0.4554  0.4441
 6081TIP3   OH239657   1.883   1.206  14.912 -0.0737  0.8412 -0.7125
 6081TIP3    H139658   1.874   1.284  14.857  0.7369  0.9706 -0.6635
 6081TIP3    H239659   1.796   1.164  14.908 -0.4580  1.6342 -0.8959
 6082TIP3   OH239660   5.028   1.987   3.003  0.0046 -0.3380 -0.3446
 6082TIP3    H139661   4.967   2.054   2.973  0.2436 -0.2316 -0.6117
 6082TIP3    H239662   4.974   1.919   3.041 -0.1540  0.7598  1.4782
 6083TIP3   OH239663   4.281   5.341   4.700  0.1050  0.0766 -0.2437
 6083TIP3    H139664   4.343   5.278   4.662 -1.7500 -2.0583  0.1053
 6083TIP3    H239665   4.216   5.356   4.631 -0.9956 -0.5909  0.6222
 6084TIP3   OH239666   1.634   4.527  14.225 -0.4134 -0.3059 -0.1633
 6084TIP3    H139667   1.550   4.556  14.191 -0.3071 -0.3626 -0.4762
 6084TIP3    H239668   1.663   4.459  14.163 -0.3835 -0.6586  0.2315
 6085TIP3   OH239669   1.514   4.192   0.439 -0.3787 -0.1191 -0.1953
 6085TIP3    H139670   1.476   4.253   0.376  1.0424  1.1503  0.1381
 6085TIP3    H239671   1.589   4.153   0.393 -0.4598 -0.6044  0.0708
 6086TIP3   OH239672   5.390   5.154   0.968  0.1147 -0.2103 -0.2261
 6086TIP3    H139673   5.398   5.072   1.017  1.1270  0.0885  0.1175
 6086TIP3    H239674   5.299   5.182   0.983 -0.5984 -1.8090 -1.2246
 6087TIP3   OH239675   2.956   3.561  12.834 -0.1184 -0.2467 -0.4211
 6087TIP3    H139676   2.981   3.518  12.916  2.1726 -2.7785 -2.2455
 6087TIP3    H239677   3.005   3.643  12.835  1.1024 -0.9342  0.1689
 6088TIP3   OH239678   0.963   3.310  12.710 -0.2621 -0.2166 -0.1656
 6088TIP3    H139679   0.892   3.258  12.747 -0.6248  0.5853  0.2984
 6088TIP3    H239680   1.006   3.252  12.647  0.4555 -1.6957  1.5820
 6089TIP3   OH239681   4.079   6.273   4.281  0.1060  0.0572 -0.3565
 6089TIP3    H139682   3.993   6.276   4.323  0.8215 -1.2425  1.2837
 6089TIP3    H239683   4.060   6.284   4.187 -1.9835 -1.4994 -0.1790
 6090TIP3   OH239684   1.600   2.000   0.878 -0.5369  0.0374 -0.2900
 6090TIP3    H139685   1.521   2.056   0.878  0.2762  1.2500 -1.3636
 6090TIP3    H239686   1.575   1.924   0.930 -1.5001  1.6879  1.8338
 6091TIP3   OH239687   1.106   1.925  16.557 -0.0085 -0.2428 -0.1396
 6091TIP3    H139688   1.072   1.926  16.467  2.3439  0.3962 -1.1126
 6091TIP3    H239689   1.187   1.977  16.552 -0.0929  0.2758  2.4898
 6092TIP3   OH239690   2.913   4.466   4.547  0.4970 -0.1394  0.1646
 6092TIP3    H139691   2.910   4.437   4.455  2.2569  0.7383 -0.2060
 6092TIP3    H239692   2.947   4.555   4.543  0.5516 -0.0661  1.6760
 6093TIP3   OH239693   4.697   1.337   2.350 -0.4711  0.5196 -1.0685
 6093TIP3    H139694   4.672   1.301   2.265  1.8574 -1.8531 -0.8657
 6093TIP3    H239695   4.789   1.362   2.339  0.9968 -3.0058  1.5458
 6094TIP3   OH239696   0.007   1.086  16.675 -0.1388 -0.4301  0.1860
 6094TIP3    H139697   0.070   1.016  16.663  1.2926  0.9649 -0.7893
 6094TIP3    H239698   0.024   1.118  16.764  0.4377 -0.1678 -0.0137
 6095TIP3   OH239699   6.275   2.534  13.657 -0.0123  0.0665 -0.2294
 6095TIP3    H139700   6.351   2.491  13.697  0.0990  1.0505  0.6292
 6095TIP3    H239701   6.306   2.622  13.635 -0.8150  0.3601 -0.1941
 6096TIP3   OH239702   3.087   1.765   2.266 -0.0371  0.4366 -0.1969
 6096TIP3    H139703   3.041   1.757   2.349  0.6907  0.9967  0.2769
 6096TIP3    H239704   3.098   1.859   2.253 -1.3569  0.4302 -1.6307
 6097TIP3   OH239705   3.075   6.023  12.718  0.2948 -0.3298 -0.1179
 6097TIP3    H139706   3.035   6.068  12.792 -0.6400 -0.5276 -0.5000
 6097TIP3    H239707   3.110   6.093  12.664  0.3562 -0.1503  0.1509
 6098TIP3   OH239708   0.212   6.371   0.473 -0.5456  0.1863  0.5483
 6098TIP3    H139709   0.121   6.398   0.479 -0.1027  3.5573 -3.2660
 6098TIP3    H239710   0.238   6.393   0.383  3.5204 -2.5084  0.7622
 6099TIP3   OH239711   5.640   2.204  11.701 -0.4855 -0.6098  0.0481
 6099TIP3    H139712   5.626   2.296  11.726 -1.1508 -1.1127  1.6524
 6099TIP3    H239713   5.719   2.177  11.749  0.1075 -0.6953 -0.9560
 6100TIP3   OH239714   3.240   2.537  14.028  0.3144  0.4034  0.5802
 6100TIP3    H139715   3.249   2.585  14.110  0.2970 -0.4399  1.0872
 6100TIP3    H239716   3.270   2.449  14.049 -1.1227 -0.2322  0.0827
 6101TIP3   OH239717   3.567   4.450  12.403 -0.8891 -0.7098  0.1232
 6101TIP3    H139718   3.569   4.434  12.498 -0.6920 -0.0084  0.2430
 6101TIP3    H239719   3.475   4.438  12.379 -0.9344 -0.9274  0.3968
 6102TIP3   OH239720   5.977   3.645   0.926 -0.4892 -0.1107  0.3337
 6102TIP3    H139721   6.027   3.574   0.885 -0.3360  0.1177  0.1238
 6102TIP3    H239722   5.946   3.698   0.852 -1.3514 -0.4562  0.4394
 6103TIP3   OH239723   2.953   4.010  16.341  0.5902 -0.1479 -0.3127
 6103TIP3    H139724   2.964   4.082  16.404 -0.3817  1.5912 -2.0241
 6103TIP3    H239725   2.876   4.035  16.290  0.9118 -1.8629 -1.7175
 6104TIP3   OH239726   2.340   1.032   2.055 -0.3390  0.0697  0.0415
 6104TIP3    H139727   2.399   1.007   1.983  0.0894 -0.8999  0.7054
 6104TIP3    H239728   2.301   0.949   2.082  0.2560  0.2725  1.5825
 6105TIP3   OH239729   4.468   3.346  16.063 -0.4922 -0.3626  0.2585
 6105TIP3    H139730   4.386   3.296  16.054 -0.5163 -0.2560 -0.0908
 6105TIP3    H239731   4.474   3.397  15.983 -0.5091  0.2652  0.6513
 6106TIP3   OH239732   1.340   1.666  11.676 -0.1141  0.0525  0.6361
 6106TIP3    H139733   1.288   1.586  11.682 -0.0480  0.0401  1.0706
 6106TIP3    H239734   1.304   1.724  11.743  2.8899 -1.3891  3.8113
 6107TIP3   OH239735   5.576   5.933   0.462 -0.2865 -0.7265 -0.1419
 6107TIP3    H139736   5.645   5.922   0.396 -0.4656 -0.7960 -0.3161
 6107TIP3    H239737   5.624   5.958   0.541 -0.0732 -0.6113 -0.3043
 6108TIP3   OH239738   1.608   1.750   5.948  0.9784  0.0074  0.3138
 6108TIP3    H139739   1.653   1.689   5.889  1.3988 -0.3126  0.9527
 6108TIP3    H239740   1.647   1.733   6.034 -0.7500 -0.6704  1.0083
 6109TIP3   OH239741   1.152   0.785  12.479  0.1206  0.3954  0.4603
 6109TIP3    H139742   1.084   0.823  12.536  1.0601  0.8773  1.2854
 6109TIP3    H239743   1.180   0.857  12.424 -1.0452 -0.1572 -0.9291
 6110TIP3   OH239744   5.486   5.387   2.118  0.5723 -0.3613 -0.2077
 6110TIP3    H139745   5.489   5.381   2.023  1.4028  0.5702 -0.2488
 6110TIP3    H239746   5.396   5.414   2.138 -0.4660 -3.1783 -0.5298
 6111TIP3   OH239747   4.415   5.701   2.963  0.3242 -0.4832 -0.5482
 6111TIP3    H139748   4.351   5.637   2.931 -1.2162  1.4799 -1.5989
 6111TIP3    H239749   4.457   5.734   2.883  0.5716  0.3411 -0.0841
 6112TIP3   OH239750   1.631   3.976   4.271  0.4274  0.3022 -0.0007
 6112TIP3    H139751   1.674   3.921   4.336  0.0106  0.1769  0.1697
 6112TIP3    H239752   1.550   3.929   4.249  0.0501  0.8610  0.1771
 6113TIP3   OH239753   5.107   1.881  15.875  0.6586  0.3500  0.7764
 6113TIP3    H139754   5.035   1.932  15.839  0.4988 -0.3467  0.0778
 6113TIP3    H239755   5.185   1.935  15.860  0.6225  0.0186 -0.7808
 6114TIP3   OH239756   4.978   5.641  14.509 -1.0593  0.0415 -0.2573
 6114TIP3    H139757   4.991   5.582  14.583 -1.7352 -0.6177 -0.6466
 6114TIP3    H239758   5.064   5.681  14.494 -0.7790 -0.2615  0.4972
 6115TIP3   OH239759   5.477   4.419  13.432  0.6747  0.4113 -0.2334
 6115TIP3    H139760   5.517   4.492  13.479 -0.9686  1.4909 -0.4340
 6115TIP3    H239761   5.400   4.396  13.483  0.4181 -0.2731 -0.9009
 6116TIP3   OH239762   5.909   6.063   4.275  0.1110  0.0397  0.2294
 6116TIP3    H139763   5.895   6.002   4.347 -0.6046 -0.8009 -0.6024
 6116TIP3    H239764   5.830   6.057   4.222  1.0878 -0.2346 -1.2579
 6117TIP3   OH239765   4.933   1.791   4.144 -0.9953  0.0265 -0.2175
 6117TIP3    H139766   5.010   1.766   4.092 -1.3634  0.4450 -0.9812
 6117TIP3    H239767   4.969   1.835   4.220 -0.4587 -0.1231 -0.3785
 6118TIP3   OH239768   1.745   6.274   1.120 -0.8626 -0.0422 -0.4213
 6118TIP3    H139769   1.731   6.359   1.077 -1.0449 -0.6625 -1.6208
 6118TIP3    H239770   1.671   6.220   1.091 -0.2060 -0.9248 -0.5012
 6119TIP3   OH239771   0.739   5.044   2.921  0.5060  0.1390  0.0302
 6119TIP3    H139772   0.683   4.969   2.904 -1.8645  1.8637 -0.2637
 6119TIP3    H239773   0.740   5.051   3.017  0.9369 -0.3878  0.0691
 6120TIP3   OH239774   3.786   4.839  15.465  0.2684 -0.1988 -0.2953
 6120TIP3    H139775   3.744   4.778  15.527 -0.0542 -0.3715 -0.6791
 6120TIP3    H239776   3.739   4.921  15.476  1.7952  0.5030  1.4426
 6121TIP3   OH239777   1.333   2.750   3.445 -0.5677 -0.8290 -0.0069
 6121TIP3    H139778   1.380   2.720   3.368 -0.6484  0.9410 -0.7904
 6121TIP3    H239779   1.401   2.768   3.510  0.3457  3.8576 -1.8385
 6122TIP3   OH239780   5.538   6.411   1.075  0.3341  0.4444 -0.4220
 6122TIP3    H139781   5.561   6.436   1.164  1.7854  1.1707 -0.9731
 6122TIP3    H239782   5.445   6.435   1.066  0.7861  2.5771  0.1394
 6123TIP3   OH239783   1.690   0.964   4.664 -0.2011 -0.4803 -0.7407
 6123TIP3    H139784   1.693   0.994   4.573  1.1386  1.5099 -0.0971
 6123TIP3    H239785   1.679   0.869   4.657  1.1920 -0.5536 -3.0022
 6124TIP3   OH239786   6.541   1.732   5.089 -0.2061  0.0305 -0.0331
 6124TIP3    H139787   6.469   1.754   5.029 -1.1876 -0.9692  0.7336
 6124TIP3    H239788   6.583   1.816   5.109  0.8663  0.3223 -2.9469
 6125TIP3   OH239789   4.036   5.549   2.507 -0.1618 -0.1942 -0.0353
 6125TIP3    H139790   3.971   5.513   2.568  0.8768 -0.3572  1.0059
 6125TIP3    H239791   4.047   5.480   2.441 -2.1074  0.4282 -1.0826
 6126TIP3   OH239792   2.560   5.077  14.020  0.6265  0.5133  0.0047
 6126TIP3    H139793   2.640   5.102  13.973 -0.7400  0.5768 -2.4533
 6126TIP3    H239794   2.495   5.066  13.951 -0.6386 -2.9916  1.5387
 6127TIP3   OH239795   5.218   5.568  12.596  0.1160 -0.4617 -0.0065
 6127TIP3    H139796   5.191   5.490  12.645  1.1544 -1.6323 -1.2332
 6127TIP3    H239797   5.297   5.598  12.641 -0.3531 -0.0172  0.5420
 6128TIP3   OH239798   3.270   4.318   1.995 -0.0522 -0.0320  0.1978
 6128TIP3    H139799   3.205   4.360   2.052 -0.4849  1.3200 -1.2269
 6128TIP3    H239800   3.250   4.351   1.908  1.8381 -0.5110 -0.4527
 6129TIP3   OH239801   5.061   4.829   5.343 -0.6033 -0.2594  0.0401
 6129TIP3    H139802   4.972   4.822   5.376 -0.4826 -0.3175  0.3503
 6129TIP3    H239803   5.064   4.771   5.266 -0.8463 -0.2131 -0.0030
 6130TIP3   OH239804   6.206   4.924  13.961  0.2143  0.0852 -0.3453
 6130TIP3    H139805   6.169   4.928  14.049 -0.1112 -0.5478 -0.4438
 6130TIP3    H239806   6.132   4.943  13.903  0.7348  1.9832 -0.4576
 6131TIP3   OH239807   3.081   0.273   0.229  1.0074  0.3293 -0.2528
 6131TIP3    H139808   3.073   0.184   0.195  1.5784  0.0442  0.3379
 6131TIP3    H239809   2.997   0.291   0.270  0.6718  0.2970 -0.9221
 6132TIP3   OH239810   5.695   0.773  17.267  0.0073  0.0873 -0.2739
 6132TIP3    H139811   5.614   0.824  17.274  0.1097  0.1171  0.7784
 6132TIP3    H239812   5.739   0.809  17.190 -0.1749  1.2368  0.1459
 6133TIP3   OH239813   2.827   0.098   2.582 -0.0970  0.2901  0.6273
 6133TIP3    H139814   2.794   0.108   2.672  1.7992  2.0448  1.2191
 6133TIP3    H239815   2.898   0.162   2.576 -0.4180  0.4898 -2.2751
 6134TIP3   OH239816   4.345   3.103  11.682  0.1536  0.3896 -0.7487
 6134TIP3    H139817   4.386   3.086  11.766  0.2021  2.8377 -0.2012
 6134TIP3    H239818   4.254   3.125  11.703 -0.5754 -1.5133 -1.6268
 6135TIP3   OH239819   2.706   6.183   3.768 -0.2756 -0.4184 -0.6114
 6135TIP3    H139820   2.778   6.236   3.736  0.5646 -2.2230 -1.8809
 6135TIP3    H239821   2.724   6.171   3.861  0.3420  0.2144 -0.6433
 6136TIP3   OH239822   6.517   6.187  11.696  0.1756 -0.7872  0.2250
 6136TIP3    H139823   6.597   6.199  11.747 -0.3539 -0.2929  0.9471
 6136TIP3    H239824   6.525   6.251  11.625  0.6137 -1.0431  0.0328
 6137TIP3   OH239825   5.784   6.203   5.554  0.3596 -0.1670  0.7309
 6137TIP3    H139826   5.765   6.293   5.527 -3.7047 -0.3668  2.1872
 6137TIP3    H239827   5.812   6.159   5.474 -0.6769  1.6747 -0.7125
 6138TIP3   OH239828   5.306   4.283  11.271 -0.1916 -0.4297 -0.0812
 6138TIP3    H139829   5.237   4.254  11.212 -0.0736  0.3028 -0.5905
 6138TIP3    H239830   5.384   4.288  11.217  0.3294 -1.4610  0.5410
 6139TIP3   OH239831   2.143   5.870  12.674 -0.1236  0.8538  0.1178
 6139TIP3    H139832   2.054   5.905  12.671 -0.2797  0.4090 -1.0066
 6139TIP3    H239833   2.199   5.947  12.662 -0.3656  1.0870  0.4607
 6140TIP3   OH239834   6.759   6.433   1.513 -0.1099 -0.1498 -1.0503
 6140TIP3    H139835   6.817   6.471   1.447  0.7034 -1.3847 -1.0771
 6140TIP3    H239836   6.761   6.339   1.496 -0.5756 -0.4014  0.1800
 6141TIP3   OH239837   1.601   3.907   1.164  0.1924  0.2823 -0.2387
 6141TIP3    H139838   1.616   3.883   1.073  0.2853 -1.1207  0.1063
 6141TIP3    H239839   1.525   3.855   1.190 -0.3564  1.3127  0.2449
 6142TIP3   OH239840   6.693   1.543  16.101  0.3266 -0.2936 -0.4001
 6142TIP3    H139841   6.719   1.453  16.082  2.2696 -0.1069  0.9737
 6142TIP3    H239842   6.715   1.554  16.194  1.0488  1.8645 -0.7760
 6143TIP3   OH239843   4.163   3.197   5.993 -0.2170  0.2776 -0.0199
 6143TIP3    H139844   4.254   3.226   5.994 -0.7398  2.0471  0.7221
 6143TIP3    H239845   4.147   3.165   6.082 -0.4752  0.4955  0.0123
 6144TIP3   OH239846   5.617   4.343  15.600  0.0500  1.1180  0.2147
 6144TIP3    H139847   5.655   4.430  15.588  0.3254  0.9822  0.1010
 6144TIP3    H239848   5.548   4.338  15.534  2.7429 -0.3272 -2.7968
 6145TIP3   OH239849   4.728   3.917   0.121 -0.2347  0.0868 -0.6986
 6145TIP3    H139850   4.737   4.000   0.168 -0.0691  1.1742 -2.5290
 6145TIP3    H239851   4.786   3.927   0.045 -0.6896 -1.4650 -1.2772
 6146TIP3   OH239852   1.322   0.648  15.538 -0.3083 -0.6314  0.0180
 6146TIP3    H139853   1.361   0.626  15.622 -0.6826  1.8827  0.9235
 6146TIP3    H239854   1.380   0.715  15.501 -3.5852  3.5297  1.5667
 6147TIP3   OH239855   3.094   6.067  14.843 -0.0117 -0.1770  0.1038
 6147TIP3    H139856   3.047   5.994  14.882  1.4579 -1.4689 -0.4546
 6147TIP3    H239857   3.061   6.144  14.890 -2.8125 -0.9388 -0.4175
 6148TIP3   OH239858   2.436   6.306   3.749 -0.1748 -0.1128 -0.0545
 6148TIP3    H139859   2.519   6.261   3.767  0.9415  1.4971 -0.8980
 6148TIP3    H239860   2.462   6.392   3.717 -2.2069  0.5972  0.0528
 6149TIP3   OH239861   3.517   3.585   5.919 -0.1198 -0.1514 -0.7089
 6149TIP3    H139862   3.569   3.559   5.995 -0.2170  0.5888 -0.3856
 6149TIP3    H239863   3.436   3.534   5.927 -0.3872  0.3782  0.0218
 6150TIP3   OH239864   0.782   1.249   3.118 -0.1269  0.1693 -0.7230
 6150TIP3    H139865   0.744   1.245   3.030 -1.4952 -0.3008 -0.1467
 6150TIP3    H239866   0.863   1.200   3.112 -1.6198 -2.4505 -1.0867
 6151TIP3   OH239867   4.684   3.247   3.461 -0.3034 -0.2105  0.1741
 6151TIP3    H139868   4.760   3.209   3.416 -0.5663 -1.0920  0.4579
 6151TIP3    H239869   4.610   3.226   3.404 -0.3546  0.5611 -0.0512
 6152TIP3   OH239870   6.036   6.578   0.270  0.0872  0.0466 -0.4876
 6152TIP3    H139871   5.987   6.509   0.315 -0.5808  0.3454 -0.7461
 6152TIP3    H239872   6.103   6.531   0.221  1.0891 -0.2713  1.0897
 6153TIP3   OH239873   6.524   5.840  15.537 -0.0652  0.1118 -0.4371
 6153TIP3    H139874   6.475   5.826  15.619  0.1747  0.8635 -0.1481
 6153TIP3    H239875   6.537   5.753  15.501 -0.4450 -0.2056  0.1740
 6154TIP3   OH239876   0.755   1.996   0.964  0.3429  0.2305  0.4922
 6154TIP3    H139877   0.768   1.963   0.875  0.4791  1.2531  0.1185
 6154TIP3    H239878   0.747   2.090   0.954  0.5520  0.3846  1.5892
 6155TIP3   OH239879   6.330   5.999   0.086  0.1466 -0.2594  0.0433
 6155TIP3    H139880   6.374   5.960   0.010 -1.2309 -2.6787  0.4174
 6155TIP3    H239881   6.402   6.019   0.147  1.0087 -1.0754 -0.6675
 6156TIP3   OH239882   2.012   3.171   2.999 -0.7385 -0.3491  0.1377
 6156TIP3    H139883   1.943   3.119   2.958 -1.6489  0.9271  0.0037
 6156TIP3    H239884   1.981   3.184   3.089 -1.0386  0.8218 -0.1179
 6157TIP3   OH239885   3.398   6.393  16.432  0.3543 -0.3391 -0.5144
 6157TIP3    H139886   3.397   6.472  16.485 -1.6898  0.3209 -1.4489
 6157TIP3    H239887   3.488   6.360  16.441  1.5553  2.5249 -0.7745
 6158TIP3   OH239888   4.844   0.566   2.225 -0.2873  0.3751 -0.0085
 6158TIP3    H139889   4.776   0.593   2.162  0.0339  2.5231  0.4681
 6158TIP3    H239890   4.924   0.560   2.173 -0.5148 -0.5103 -0.2688
 6159TIP3   OH239891   3.220   5.196   3.373 -0.2260  0.1155 -0.0082
 6159TIP3    H139892   3.251   5.262   3.436 -2.3859  1.6983 -0.4790
 6159TIP3    H239893   3.143   5.158   3.415 -0.7759  0.0872 -1.0069
 6160TIP3   OH239894   1.284   6.032  16.541 -0.2080  0.4479  0.0063
 6160TIP3    H139895   1.277   6.120  16.503  0.5713 -0.0097 -1.2783
 6160TIP3    H239896   1.253   5.974  16.472  1.1323 -0.4063  0.0931
 6161TIP3   OH239897   6.144   0.401   1.267 -0.3012  0.6441  0.0770
 6161TIP3    H139898   6.118   0.489   1.293  1.0681  0.8765  0.7237
 6161TIP3    H239899   6.185   0.364   1.345 -0.0009 -0.2191 -0.4747
 6162TIP3   OH239900   0.905   0.893  13.473  0.1120  0.0735 -0.1605
 6162TIP3    H139901   0.977   0.875  13.413  0.2533 -0.4644  0.1567
 6162TIP3    H239902   0.905   0.988  13.483  2.9573 -0.0211  2.4010
 6163TIP3   OH239903   1.877   1.668   2.969 -0.0279  0.4978  0.1079
 6163TIP3    H139904   1.880   1.621   2.885  0.5037  2.5700 -1.1000
 6163TIP3    H239905   1.964   1.653   3.007  0.4585  1.1799 -0.6919
 6164TIP3   OH239906   2.283   5.656   6.365 -0.4873 -0.2181 -0.0627
 6164TIP3    H139907   2.320   5.745   6.363 -1.9084  0.3950 -2.4355
 6164TIP3    H239908   2.357   5.599   6.345  0.4274  0.4006  1.3916
 6165TIP3   OH239909   5.135   3.661  13.524 -0.0050  0.6321  0.3756
 6165TIP3    H139910   5.126   3.700  13.612  1.4847 -0.1924  0.9185
 6165TIP3    H239911   5.174   3.731  13.472 -0.2988  0.9149  0.5270
 6166TIP3   OH239912   5.945   0.257   0.516 -0.3074 -0.2806  0.4397
 6166TIP3    H139913   5.986   0.255   0.429  1.6267  0.8964  1.2814
 6166TIP3    H239914   5.923   0.165   0.533  1.5265 -0.9069 -0.2820
 6167TIP3   OH239915   3.825   5.138   4.178 -1.0959  0.2397  0.0534
 6167TIP3    H139916   3.909   5.122   4.135 -1.6267  0.8846 -1.2969
 6167TIP3    H239917   3.818   5.069   4.243 -0.3917 -1.0141 -1.1406
 6168TIP3   OH239918   0.039   4.725  12.326 -0.2901  0.0315 -0.1517
 6168TIP3    H139919   0.067   4.813  12.349 -1.0766  0.0391  0.8466
 6168TIP3    H239920  -0.008   4.694  12.403  0.5369 -1.5210 -0.2365
 6169TIP3   OH239921   3.141   0.685  15.123 -0.9771 -0.4435 -0.7872
 6169TIP3    H139922   3.217   0.675  15.066 -1.0192 -0.8467 -0.7780
 6169TIP3    H239923   3.107   0.596  15.133 -2.1681 -0.1335 -1.7870
 6170TIP3   OH239924   4.786   2.047   5.484  0.6213 -0.0599 -0.0319
 6170TIP3    H139925   4.868   2.064   5.530  0.4855  0.8378 -0.1087
 6170TIP3    H239926   4.718   2.071   5.547  0.4006 -1.0449  0.1271
 6171TIP3   OH239927   2.800   4.448   3.342 -0.3171 -0.0714 -0.1647
 6171TIP3    H139928   2.712   4.429   3.310 -0.7630  1.9671 -0.3096
 6171TIP3    H239929   2.806   4.403   3.426 -2.1484  1.1238  0.6623
 6172TIP3   OH239930   4.927   5.714   1.220  0.1786 -0.0924 -0.0105
 6172TIP3    H139931   4.835   5.696   1.235  0.0192  0.5751 -0.1500
 6172TIP3    H239932   4.972   5.675   1.294 -0.1566 -0.9489 -0.2466
 6173TIP3   OH239933   2.379   1.636  14.528 -0.2592 -0.4421 -0.1572
 6173TIP3    H139934   2.356   1.553  14.570  0.3384  0.0803  1.2909
 6173TIP3    H239935   2.412   1.690  14.600 -1.9262  1.5599 -0.7784
 6174TIP3   OH239936   2.763   4.353   3.598  0.9153 -0.1715  0.0303
 6174TIP3    H139937   2.743   4.260   3.594  0.9556 -0.1515 -0.7315
 6174TIP3    H239938   2.829   4.361   3.668 -0.4005 -0.4644  1.3499
 6175TIP3   OH239939   1.629   1.112   1.488 -0.0412  0.0912 -0.0698
 6175TIP3    H139940   1.722   1.092   1.475  0.1228  0.2830  0.7489
 6175TIP3    H239941   1.622   1.136   1.580 -1.2931 -2.0770  0.4735
 6176TIP3   OH239942   4.922   4.219  14.912  0.3578  0.5112 -0.1124
 6176TIP3    H139943   4.949   4.127  14.922 -1.0570 -0.2349 -2.2894
 6176TIP3    H239944   4.990   4.258  14.857  0.3484  0.4413 -0.1743
 6177TIP3   OH239945   1.924   2.892   3.656  0.8009  0.5613  0.4020
 6177TIP3    H139946   1.930   2.836   3.733 -0.3088  0.5024  0.4712
 6177TIP3    H239947   1.853   2.854   3.604  0.6473  1.3612  0.0061
 6178TIP3   OH239948   5.647   2.575  13.509  0.0868 -0.2748  0.4636
 6178TIP3    H139949   5.611   2.663  13.497  0.9264 -0.1269 -1.2883
 6178TIP3    H239950   5.637   2.557  13.602  1.2721  2.2854  1.1578
 6179TIP3   OH239951   5.352   4.673  17.108  0.6412  0.2137  0.2867
 6179TIP3    H139952   5.332   4.737  17.176  0.5327  0.1287  0.3352
 6179TIP3    H239953   5.269   4.659  17.062  0.1319 -1.4763  1.6254
 6180TIP3   OH239954   5.150   3.787  13.272 -1.0704 -0.4646  0.3190
 6180TIP3    H139955   5.125   3.725  13.203 -0.2187  0.7923 -1.1555
 6180TIP3    H239956   5.083   3.856  13.267 -0.6937 -0.0944  0.3735
 6181TIP3   OH239957   2.124   4.377  12.407 -0.4199 -0.1262 -0.6836
 6181TIP3    H139958   2.044   4.360  12.457 -0.1827 -0.4217 -0.4048
 6181TIP3    H239959   2.154   4.291  12.380  0.3544 -0.1063  0.0634
 6182TIP3   OH239960   6.360   4.852   4.597 -0.3629 -0.4135  0.1459
 6182TIP3    H139961   6.409   4.850   4.514 -1.7043  2.7461 -0.8896
 6182TIP3    H239962   6.295   4.783   4.588 -0.6486  0.0213 -1.5939
 6183TIP3   OH239963   5.986   6.216  17.327 -0.7943 -0.3777 -0.2128
 6183TIP3    H139964   6.009   6.162  17.251  0.4405 -0.8890  0.4859
 6183TIP3    H239965   5.902   6.256  17.304  0.2905  0.7954 -2.5588
 6184TIP3   OH239966   2.057   6.336   2.915  0.2926  0.1949 -0.1536
 6184TIP3    H139967   2.099   6.420   2.903  0.2638  0.0694 -1.2864
 6184TIP3    H239968   1.979   6.354   2.968  0.6558  0.7568  0.1870
 6185TIP3   OH239969   3.832   2.293  13.244 -0.2084 -0.2417 -0.6857
 6185TIP3    H139970   3.906   2.340  13.282 -0.3673  0.0500 -0.7348
 6185TIP3    H239971   3.777   2.361  13.206 -0.5115 -0.4555 -0.6341
 6186TIP3   OH239972   1.784   1.417   2.756 -0.1601  0.6821 -0.3582
 6186TIP3    H139973   1.774   1.343   2.817 -0.4908 -0.8724 -2.1996
 6186TIP3    H239974   1.719   1.481   2.785 -1.7767 -0.9103 -0.2872
 6187TIP3   OH239975   5.016   6.203  13.989  0.3002 -0.2905  0.0654
 6187TIP3    H139976   4.922   6.189  13.974  0.4182 -0.3354 -0.6390
 6187TIP3    H239977   5.052   6.115  13.998  0.6358 -0.3994 -1.9212
 6188TIP3   OH239978   4.546   6.446  11.949 -0.2359  0.1059  0.5122
 6188TIP3    H139979   4.489   6.514  11.984  1.0866  0.7826  1.4462
 6188TIP3    H239980   4.526   6.368  12.001  0.6233  0.6991  1.7605
 6189TIP3   OH239981   0.108   2.043   6.112  0.2145 -1.0633 -0.6863
 6189TIP3    H139982   0.028   1.992   6.126 -0.0414 -0.1949  1.4192
 6189TIP3    H239983   0.136   2.068   6.200  0.9713  1.4672 -1.5670
 6190TIP3   OH239984   2.184   3.141  15.296  0.4432 -0.0327 -0.4947
 6190TIP3    H139985   2.261   3.114  15.347 -1.1109  0.5937  2.3958
 6190TIP3    H239986   2.120   3.072  15.312 -0.0092  0.0213 -1.9427
 6191TIP3   OH239987   4.861   1.761   3.128 -0.2374 -0.2634  0.0347
 6191TIP3    H139988   4.778   1.806   3.111 -0.0130  0.4815  0.8312
 6191TIP3    H239989   4.850   1.674   3.089 -1.2921 -0.0812 -0.1042
 6192TIP3   OH239990   0.889   6.102  13.650 -0.3378  0.6062  0.1104
 6192TIP3    H139991   0.962   6.055  13.691 -1.0335 -1.6944 -1.1339
 6192TIP3    H239992   0.876   6.179  13.706  0.2909 -1.1212  2.8193
 6193TIP3   OH239993   0.342   0.910  16.981  0.2460 -0.3315 -0.1624
 6193TIP3    H139994   0.336   0.895  17.075 -2.0101 -0.9445 -0.3501
 6193TIP3    H239995   0.372   0.826  16.945  0.8232 -0.1837 -0.0448
 6194TIP3   OH239996   5.602   6.159   3.885  0.5546  0.0672  0.3689
 6194TIP3    H139997   5.579   6.111   3.806  0.3687  1.4264 -0.4283
 6194TIP3    H239998   5.693   6.186   3.871 -0.1615  2.2357 -0.4242
 6195TIP3   OH239999   3.446   0.154  11.246 -0.0351 -0.1172  0.0456
 6195TIP3    H140000   3.401   0.172  11.163 -0.9049  0.4427  0.6301
 6195TIP3    H240001   3.438   0.235  11.296  0.0274 -0.6230  0.8834
 6196TIP3   OH240002   6.481   0.771  11.898  0.0332  0.0730  0.3744
 6196TIP3    H140003   6.401   0.768  11.845 -0.8859  1.1157  1.6185
 6196TIP3    H240004   6.511   0.681  11.902  0.7160  0.0612 -2.7091
 6197TIP3   OH240005   0.612   6.240  12.891  0.0832 -0.4440  0.1881
 6197TIP3    H140006   0.604   6.308  12.824 -0.4350 -1.8533 -1.2290
 6197TIP3    H240007   0.706   6.234  12.908  0.1581  0.4529  0.1808
 6198TIP3   OH240008   2.073   1.726   1.239  0.7337  0.3358  0.0173
 6198TIP3    H140009   2.141   1.720   1.172 -1.2052 -0.8553 -1.9699
 6198TIP3    H240010   2.039   1.815   1.231 -0.4371 -0.2265 -1.6313
 6199TIP3   OH240011   6.359   4.172  11.933 -0.0693 -0.2896  0.4916
 6199TIP3    H140012   6.434   4.220  11.967 -0.4015  1.0031 -0.5087
 6199TIP3    H240013   6.336   4.111  12.002  0.9725  0.3421  1.4238
 6200TIP3   OH240014   3.992   3.689  12.333 -0.4753 -0.3849 -0.3365
 6200TIP3    H140015   3.916   3.739  12.361 -0.4313 -0.4528 -0.0992
 6200TIP3    H240016   4.049   3.754  12.291 -0.5262 -0.2782 -0.2409
 6201TIP3   OH240017   3.844   1.676   2.991  0.0032  0.1995 -0.0742
 6201TIP3    H140018   3.802   1.728   3.059 -0.7080 -1.3242  0.6974
 6201TIP3    H240019   3.772   1.648   2.934  0.3925  0.1703 -0.5620
 6202TIP3   OH240020   4.826   2.326  13.539  0.3361  0.4614  0.6384
 6202TIP3    H140021   4.778   2.247  13.513  0.3141  0.4082  0.8369
 6202TIP3    H240022   4.757   2.390  13.559  0.3576  0.7187 -0.0802
 6203TIP3   OH240023   5.331   4.066  15.155  1.1470  0.0488  0.0900
 6203TIP3    H140024   5.249   4.114  15.165  0.4553 -0.9779 -0.4747
 6203TIP3    H240025   5.399   4.128  15.180  0.4016  1.7886 -1.9016
 6204TIP3   OH240026   5.986   2.646  17.048  0.3803 -0.3681  0.0318
 6204TIP3    H140027   5.903   2.598  17.045  0.1190  0.1106 -0.8360
 6204TIP3    H240028   5.990   2.692  16.964  0.8461  0.7418  0.6390
 6205TIP3   OH240029   5.021   6.338   3.673 -0.5972 -0.6503  0.0750
 6205TIP3    H140030   5.012   6.255   3.720  0.6225 -0.6500  0.3374
 6205TIP3    H240031   4.933   6.375   3.674 -0.6753 -0.7512  2.1650
 6206TIP3   OH240032   2.342   5.043   3.643 -0.2372  0.0362  0.1371
 6206TIP3    H140033   2.405   5.087   3.701 -1.0402  0.2167  0.8930
 6206TIP3    H240034   2.362   4.950   3.652  1.5061  0.1982 -1.5031
 6207TIP3   OH240035   2.311   4.602  11.949  1.0172 -0.3675  0.1109
 6207TIP3    H140036   2.273   4.571  12.032  1.5060 -0.4119  0.3217
 6207TIP3    H240037   2.267   4.685  11.932 -1.4179 -1.8294 -1.2236
 6208TIP3   OH240038   5.735   2.998  11.246  0.2210  0.1001 -0.8823
 6208TIP3    H140039   5.670   2.976  11.313  0.8085 -0.0690 -0.3521
 6208TIP3    H240040   5.747   2.917  11.197  0.0720  0.1158 -0.9447
 6209TIP3   OH240041   5.173   5.218   3.262 -0.2522  0.2472 -0.1163
 6209TIP3    H140042   5.156   5.266   3.343 -1.7146  0.2880 -0.4188
 6209TIP3    H240043   5.245   5.158   3.284 -1.4980 -0.6900  1.5976
 6210TIP3   OH240044   2.622   5.786   1.932  0.0084 -0.3195 -0.6827
 6210TIP3    H140045   2.698   5.813   1.880  0.7883  2.3536  1.6335
 6210TIP3    H240046   2.660   5.743   2.009 -0.9859 -1.2530 -0.6858
 6211TIP3   OH240047   5.358   6.711   1.069  0.0550  0.1797 -0.0162
 6211TIP3    H140048   5.317   6.768   1.003 -0.0168 -1.8061 -1.8052
 6211TIP3    H240049   5.324   6.743   1.153 -1.6551  1.3954 -1.0985
 6212TIP3   OH240050   1.868   1.367  16.515 -0.1921  0.2205  0.2069
 6212TIP3    H140051   1.913   1.314  16.449 -0.5061 -1.0982  1.0264
 6212TIP3    H240052   1.785   1.323  16.530 -1.1000  1.7482 -0.1073
 6213TIP3   OH240053   3.567   5.227  11.284  0.2709  0.4706 -0.2340
 6213TIP3    H140054   3.609   5.284  11.218 -1.3415  0.3467 -1.4262
 6213TIP3    H240055   3.624   5.150  11.288  0.6799  0.7130 -1.0989
 6214TIP3   OH240056   3.974   5.727   3.212 -0.3829 -0.0459  0.4238
 6214TIP3    H140057   4.050   5.741   3.157 -0.5056 -0.9021  0.0046
 6214TIP3    H240058   3.900   5.753   3.158 -0.4485 -0.1280  0.4727
 6215TIP3   OH240059   6.257   6.320   6.740 -0.2935  0.0939 -0.0572
 6215TIP3    H140060   6.320   6.257   6.774 -0.5372 -0.2029 -0.1503
 6215TIP3    H240061   6.272   6.399   6.792 -0.0570 -0.0727  0.1308
 6216TIP3   OH240062   5.118   6.087  15.987 -0.4889 -0.5058  0.3345
 6216TIP3    H140063   5.160   6.167  16.019 -0.1097 -1.1801  1.6085
 6216TIP3    H240064   5.175   6.057  15.916  0.8297 -1.0007  1.5483
 6217TIP3   OH240065   4.381   2.123   0.610 -0.5040 -0.1177 -0.0696
 6217TIP3    H140066   4.460   2.110   0.662 -0.7762  0.5533  0.5354
 6217TIP3    H240067   4.320   2.167   0.670 -0.6344  1.1894 -1.1165
 6218TIP3   OH240068   1.461   5.694  16.758 -0.2721  0.2968 -0.0451
 6218TIP3    H140069   1.389   5.758  16.754 -0.5253 -0.0529 -1.7808
 6218TIP3    H240070   1.530   5.733  16.705  0.2092 -0.1070  0.2836
 6219TIP3   OH240071   0.464   5.452   0.542  0.5550 -0.4738 -0.0596
 6219TIP3    H140072   0.430   5.432   0.454 -1.5169 -1.0823  0.8173
 6219TIP3    H240073   0.395   5.504   0.583  0.2328 -2.4219  2.0925
 6220TIP3   OH240074   1.249   0.093  14.093  0.2949  0.0398  0.4168
 6220TIP3    H140075   1.156   0.086  14.114 -0.3407  2.2425 -1.3369
 6220TIP3    H240076   1.288   0.136  14.169 -0.2804 -0.0217  0.7532
 6221TIP3   OH240077   5.414   0.166  12.239 -0.6883 -0.5648 -0.1882
 6221TIP3    H140078   5.366   0.141  12.160 -2.1057  2.4294 -0.4069
 6221TIP3    H240079   5.454   0.250  12.217 -0.7527  0.1441  2.1414
 6222TIP3   OH240080   4.211   3.950   5.699 -0.6275 -0.0776 -0.2608
 6222TIP3    H140081   4.176   3.986   5.781 -0.1832 -0.7001  0.2141
 6222TIP3    H240082   4.276   4.014   5.671 -0.0947 -0.3138  0.3915
 6223TIP3   OH240083   6.011   0.755  12.028  0.0790 -0.2701 -0.1018
 6223TIP3    H140084   6.022   0.833  11.973  0.5613 -1.2181 -1.4218
 6223TIP3    H240085   6.100   0.731  12.054 -0.0401 -0.5009  0.1037
 6224TIP3   OH240086   0.169   3.491  14.458 -0.1291 -0.3362 -0.4223
 6224TIP3    H140087   0.158   3.569  14.512  0.1633 -0.2615 -0.4708
 6224TIP3    H240088   0.238   3.441  14.501  0.9703  0.3088 -1.3946
 6225TIP3   OH240089   3.785   5.591   0.411  0.4267 -0.3796  0.2084
 6225TIP3    H140090   3.808   5.523   0.475  0.1350 -0.3397  0.3597
 6225TIP3    H240091   3.825   5.562   0.329  1.7776  0.1366  0.6566
 6226TIP3   OH240092   6.364   3.039   2.787 -0.2218  0.0519  0.7504
 6226TIP3    H140093   6.456   3.018   2.769 -0.2581  0.9466 -0.6741
 6226TIP3    H240094   6.345   3.112   2.728 -1.9350 -0.3088  0.8173
 6227TIP3   OH240095   5.810   2.123  14.502  0.2299 -0.1170  0.0644
 6227TIP3    H140096   5.875   2.072  14.550 -0.2463 -0.1103  0.7352
 6227TIP3    H240097   5.747   2.151  14.569  1.1436  2.4297 -0.0454
 6228TIP3   OH240098   6.044   5.911  12.897  0.3029 -0.7628  0.0372
 6228TIP3    H140099   6.046   5.918  12.993  1.0839 -1.3631  0.0734
 6228TIP3    H240100   6.128   5.945  12.869  1.1456 -2.9061 -0.2438
 6229TIP3   OH240101   0.171   4.442  14.975  0.0964  0.2349 -0.1847
 6229TIP3    H140102   0.099   4.380  14.994 -0.2412  0.4062 -0.8981
 6229TIP3    H240103   0.214   4.454  15.060  0.4841 -1.3723 -0.1149
 6230TIP3   OH240104   4.396   3.862  12.537  0.0610 -0.1799 -0.2562
 6230TIP3    H140105   4.469   3.877  12.596 -0.6406 -1.0447  0.8903
 6230TIP3    H240106   4.434   3.865  12.450  1.3290  0.0643  0.2861
 6231TIP3   OH240107   2.925   0.347   4.790 -0.5019 -0.6129  0.1619
 6231TIP3    H140108   2.891   0.261   4.812  0.8286 -1.3674 -0.5880
 6231TIP3    H240109   2.925   0.349   4.694 -0.9394  0.4127  0.1673
 6232TIP3   OH240110   4.082   5.898  11.999 -0.2442 -0.6651  0.4372
 6232TIP3    H140111   4.178   5.893  11.992 -0.0795  1.5742  0.4337
 6232TIP3    H240112   4.057   5.970  11.942 -2.0638 -1.7291 -0.1949
 6233TIP3   OH240113   5.703   1.734   3.004  0.0540  0.4587  0.0383
 6233TIP3    H140114   5.649   1.811   2.989 -1.1043 -0.4081 -0.4500
 6233TIP3    H240115   5.788   1.756   2.967 -0.1998  1.5727  0.1003
 6234TIP3   OH240116   0.287   4.258   5.487  0.1446  0.1390 -0.0613
 6234TIP3    H140117   0.358   4.200   5.458  1.6411  1.3364  1.0380
 6234TIP3    H240118   0.332   4.330   5.532 -1.7477  1.3360  0.0006
 6235TIP3   OH240119   1.418   5.334  13.068 -0.1871 -0.4685  0.1465
 6235TIP3    H140120   1.424   5.430  13.073 -0.8345 -0.4916  2.0243
 6235TIP3    H240121   1.495   5.303  13.116 -1.1485 -0.8597  1.4749
 6236TIP3   OH240122   0.584   0.880  15.003 -0.5113 -0.2486  0.4460
 6236TIP3    H140123   0.550   0.842  15.084 -0.2952 -0.2257  0.5466
 6236TIP3    H240124   0.664   0.831  14.985 -0.6977 -0.4366  0.1012
 6237TIP3   OH240125   2.770   2.713   0.669 -0.4131  0.0213 -0.7227
 6237TIP3    H140126   2.760   2.799   0.710  0.5804 -0.4747  0.6351
 6237TIP3    H240127   2.696   2.706   0.609  0.8526  2.8834 -2.8403
 6238TIP3   OH240128   2.602   2.665  11.714 -0.0972  0.4693 -0.1239
 6238TIP3    H140129   2.652   2.585  11.698 -0.2433  0.7379 -2.2053
 6238TIP3    H240130   2.511   2.637  11.720 -0.0415  0.3684  0.3221
 6239TIP3   OH240131   2.118   5.492  11.206 -0.0830 -0.1167  0.6999
 6239TIP3    H140132   2.142   5.411  11.251 -1.4874 -0.4373  0.9138
 6239TIP3    H240133   2.196   5.515  11.155  0.7807 -0.9076  1.6108
 6240TIP3   OH240134   3.520   0.298   4.582  0.4222  0.1352 -0.3197
 6240TIP3    H140135   3.483   0.241   4.515 -0.8683  0.2203  0.2758
 6240TIP3    H240136   3.497   0.387   4.553 -0.9378  0.1287  0.6483
 6241TIP3   OH240137   0.904   6.098   0.457  0.3642 -0.2409  0.1605
 6241TIP3    H140138   0.991   6.135   0.444  0.1631 -0.2341 -1.2649
 6241TIP3    H240139   0.915   6.004   0.440 -0.1890 -0.0219 -1.5828
 6242TIP3   OH240140   3.914   4.148  14.113  0.2363  0.2537 -0.4710
 6242TIP3    H140141   3.930   4.218  14.051  0.0100  0.3180 -0.4574
 6242TIP3    H240142   3.891   4.192  14.195 -1.6600  0.1824 -0.9123
 6243TIP3   OH240143   6.420   5.387  13.340  0.3455 -0.4981  0.1323
 6243TIP3    H140144   6.358   5.366  13.410  1.0323 -1.3201  0.5035
 6243TIP3    H240145   6.364   5.410  13.266 -0.3970 -0.1866  0.7663
 6244TIP3   OH240146   3.531   2.398  16.778 -0.2584 -0.2656 -0.0318
 6244TIP3    H140147   3.497   2.325  16.728  1.3028  0.9800 -3.1664
 6244TIP3    H240148   3.507   2.476  16.728 -0.2099  1.2888  2.1755
 6245TIP3   OH240149   5.339   0.232  15.533 -0.2974 -0.0555 -0.0909
 6245TIP3    H140150   5.336   0.293  15.460  0.5545  0.1323  0.0222
 6245TIP3    H240151   5.369   0.284  15.607 -4.1104  0.5587  1.2533
 6246TIP3   OH240152   4.342   4.426  14.449 -0.4271 -0.0363  0.0916
 6246TIP3    H140153   4.286   4.490  14.405  1.5331  1.0287 -1.0074
 6246TIP3    H240154   4.369   4.366  14.379  1.5086  0.7742  0.0941
 6247TIP3   OH240155   3.162   6.761   2.097 -0.2149 -0.0871  1.2239
 6247TIP3    H140156   3.173   6.844   2.052 -1.6223  0.2168  1.4037
 6247TIP3    H240157   3.226   6.702   2.056 -0.2173  0.6727  0.1033
 6248TIP3   OH240158   4.648   4.272  11.662 -0.0636  0.0924 -0.4062
 6248TIP3    H140159   4.583   4.203  11.677  2.6191 -2.3524  0.9162
 6248TIP3    H240160   4.684   4.251  11.576  0.5440  0.0266 -0.1371
 6249TIP3   OH240161   3.743   3.868   5.266 -0.0844  0.0593  0.4648
 6249TIP3    H140162   3.651   3.866   5.291 -0.2894  1.5032 -0.0741
 6249TIP3    H240163   3.787   3.814   5.332 -1.1834  0.2193  1.3573
 6250TIP3   OH240164   0.570   0.171   2.470 -0.2180 -0.8957  0.4932
 6250TIP3    H140165   0.630   0.151   2.542 -0.0152  0.9405  0.8783
 6250TIP3    H240166   0.627   0.188   2.395 -0.4521 -4.0744 -0.5529
 6251TIP3   OH240167   0.244   5.116  14.774 -0.3398 -0.7824  0.3243
 6251TIP3    H140168   0.268   5.046  14.713 -1.2813 -0.9489  0.1256
 6251TIP3    H240169   0.153   5.098  14.796 -0.4894  0.1860  0.5428
 6252TIP3   OH240170   2.757   6.032  11.132 -0.4273  0.0639 -0.3691
 6252TIP3    H140171   2.795   6.027  11.044  2.7015 -0.4118  0.8667
 6252TIP3    H240172   2.789   5.953  11.176 -1.2153  0.7094  1.4557
 6253TIP3   OH240173   6.518   4.551   1.257  0.4045  0.0207 -0.2478
 6253TIP3    H140174   6.568   4.501   1.320 -0.3147 -1.3706 -0.7433
 6253TIP3    H240175   6.486   4.627   1.306 -0.9825 -1.5352  1.3657
 6254TIP3   OH240176   3.818   0.339   3.207  0.3215 -0.2423 -0.0414
 6254TIP3    H140177   3.817   0.338   3.302 -0.7540  1.3151 -0.0168
 6254TIP3    H240178   3.755   0.271   3.181 -1.0977  0.8635  0.4023
 6255TIP3   OH240179   5.526   1.875   1.653 -0.1422 -0.0273 -0.6241
 6255TIP3    H140180   5.562   1.820   1.723  0.0475  0.7847 -0.0685
 6255TIP3    H240181   5.432   1.881   1.674 -0.1291  0.0114 -0.5756
 6256TIP3   OH240182   5.736   2.620   1.308 -0.1622  0.1276  0.3759
 6256TIP3    H140183   5.824   2.628   1.270 -0.6882  1.8004 -0.5645
 6256TIP3    H240184   5.736   2.679   1.383 -0.1497 -0.7182  1.0543
 6257TIP3   OH240185   3.422   5.182  12.907 -0.3209  0.2862 -0.8239
 6257TIP3    H140186   3.484   5.200  12.977 -0.8559 -0.2077 -0.2208
 6257TIP3    H240187   3.407   5.087  12.911 -1.1037  0.3968 -0.9714
 6258TIP3   OH240188   1.229   3.293   2.524 -0.3048  0.5910 -0.8263
 6258TIP3    H140189   1.314   3.291   2.480  0.1638  0.0263  0.1027
 6258TIP3    H240190   1.217   3.205   2.558 -0.1864  1.2516  1.0540
 6259TIP3   OH240191   0.270   1.588   3.151  0.4812  0.2673 -0.9102
 6259TIP3    H140192   0.301   1.522   3.213 -1.6057 -0.1121 -0.1960
 6259TIP3    H240193   0.342   1.652   3.146  1.9902 -1.3353 -0.5875
 6260TIP3   OH240194   2.927   5.443   3.145 -0.2384  0.5488  0.0325
 6260TIP3    H140195   2.860   5.375   3.154  1.5829 -1.4380 -0.6185
 6260TIP3    H240196   2.963   5.453   3.233 -0.2038  0.3183  0.0459
 6261TIP3   OH240197   2.353   4.387   0.862 -0.3647 -0.4202 -0.0794
 6261TIP3    H140198   2.290   4.382   0.934 -0.3835  1.4350  0.0786
 6261TIP3    H240199   2.301   4.414   0.787 -0.0136 -0.4484 -0.3328
 6262TIP3   OH240200   3.559   1.533  11.887 -0.1424  0.0893  0.2960
 6262TIP3    H140201   3.581   1.600  11.952  2.0724  0.6301 -0.9160
 6262TIP3    H240202   3.484   1.487  11.925 -0.4108  1.8827  2.1258
 6263TIP3   OH240203   3.893   2.459   0.020 -0.6608 -0.1478 -0.0099
 6263TIP3    H140204   3.889   2.395  -0.052  0.0740 -1.2843  0.9188
 6263TIP3    H240205   3.831   2.426   0.085 -2.8851  1.9752 -0.8974
 6264TIP3   OH240206   5.033   6.761   1.329 -0.5140  0.3875  0.3104
 6264TIP3    H140207   5.026   6.673   1.367  1.2764  0.6538  1.3818
 6264TIP3    H240208   4.943   6.794   1.329 -1.0411 -0.9588  1.1206
 6265TIP3   OH240209   4.153   2.158  16.117  0.6086  0.0632  0.0873
 6265TIP3    H140210   4.089   2.157  16.188  0.1978  0.5040 -0.2705
 6265TIP3    H240211   4.132   2.081  16.065  0.3157  0.2456 -0.0692
 6266TIP3   OH240212   2.757   4.014  14.163 -0.0883  0.9938 -0.5315
 6266TIP3    H140213   2.812   3.944  14.197  1.2544  2.4924  0.5421
 6266TIP3    H240214   2.701   3.971  14.098  3.8438 -0.2979 -3.4458
 6267TIP3   OH240215   0.365   4.694   2.190 -0.2849 -0.2427 -0.5183
 6267TIP3    H140216   0.460   4.705   2.177 -0.5273 -0.2822 -2.7725
 6267TIP3    H240217   0.351   4.600   2.185 -0.3328 -0.3451  1.0520
 6268TIP3   OH240218   0.861   2.252   3.046 -0.0473 -0.1586 -0.5023
 6268TIP3    H140219   0.807   2.193   3.099 -1.0825 -0.7984 -2.1867
 6268TIP3    H240220   0.913   2.194   2.992 -0.0027  0.4762 -1.1445
 6269TIP3   OH240221   5.289   1.326   5.727  0.2766 -0.3217 -0.2410
 6269TIP3    H140222   5.272   1.325   5.633 -4.1260 -1.6684  0.3561
 6269TIP3    H240223   5.303   1.418   5.748  0.0821  0.1398 -2.0162
 6270TIP3   OH240224   1.963   1.201  13.206  0.5525  0.0259 -0.0321
 6270TIP3    H140225   1.981   1.257  13.130 -0.2009  0.1381 -0.1334
 6270TIP3    H240226   1.868   1.192  13.208  0.6636 -1.3305 -0.0552
 6271TIP3   OH240227   3.328   0.452   1.891 -0.0505  0.2076  0.2259
 6271TIP3    H140228   3.394   0.521   1.897 -0.3373  0.8018 -2.1458
 6271TIP3    H240229   3.249   0.490   1.929  0.2363  0.5394  0.4938
 6272TIP3   OH240230   4.882   2.004   1.066 -0.3296  0.3634  0.2350
 6272TIP3    H140231   4.911   1.914   1.052 -2.4976 -0.6822  1.7567
 6272TIP3    H240232   4.805   1.996   1.123 -1.3421  3.1054 -0.5610
 6273TIP3   OH240233   6.653   0.120  11.957 -0.3060 -0.1471 -0.2400
 6273TIP3    H140234   6.596   0.068  12.013  1.5409 -0.3022  1.6185
 6273TIP3    H240235   6.593   0.164  11.896 -2.4458  0.0044  1.8182
 6274TIP3   OH240236   5.356   1.905  14.956  0.8709 -0.0335 -0.0364
 6274TIP3    H140237   5.365   1.810  14.949 -0.6777 -0.2578  0.6804
 6274TIP3    H240238   5.396   1.927  15.040 -2.1990 -0.6271  1.7088
 6275TIP3   OH240239   6.022   0.433  14.747 -0.1929  0.0591  0.0901
 6275TIP3    H140240   6.041   0.413  14.839  1.5233 -0.4949 -0.3517
 6275TIP3    H240241   6.064   0.518  14.732 -1.9281  0.9902  0.2303
 6276TIP3   OH240242   1.707   6.224   4.947  0.0785  0.0128 -0.0060
 6276TIP3    H140243   1.780   6.273   4.984  1.1758 -1.1993 -0.4769
 6276TIP3    H240244   1.686   6.157   5.013 -1.0041  0.7009  0.3737
 6277TIP3   OH240245   0.674   4.071  11.315 -0.0361  0.4745  0.1711
 6277TIP3    H140246   0.758   4.025  11.317 -0.7026 -0.7849  0.4749
 6277TIP3    H240247   0.626   4.037  11.390 -0.5488  1.7274  0.4321
 6278TIP3   OH240248   1.462   5.577  13.756  0.1402  0.3108  0.9667
 6278TIP3    H140249   1.522   5.512  13.793 -1.0384 -0.0466  2.3509
 6278TIP3    H240250   1.412   5.529  13.690  1.6091  0.7126 -0.4954
 6279TIP3   OH240251   3.127   0.524   1.572  0.0895  0.3798  0.1527
 6279TIP3    H140252   3.115   0.430   1.587  1.8155  0.2176  0.8159
 6279TIP3    H240253   3.121   0.563   1.659 -0.6910  0.9069 -0.1293
 6280TIP3   OH240254   6.497   1.995  14.662  0.1075 -0.3745 -0.1970
 6280TIP3    H140255   6.508   1.991  14.757 -0.8823  2.2118  0.1167
 6280TIP3    H240256   6.494   1.904  14.634  0.4005 -1.2049  2.2507
 6281TIP3   OH240257   3.015   2.155  11.763  0.4486  0.9230  0.2639
 6281TIP3    H140258   3.101   2.124  11.733  0.1859 -0.2106  0.6446
 6281TIP3    H240259   3.036   2.222  11.829  1.0508  0.3402  0.6830
 6282TIP3   OH240260   6.322   2.207  17.330 -0.9293 -0.2699 -0.6904
 6282TIP3    H140261   6.307   2.168  17.244 -0.0328 -1.9617 -0.1203
 6282TIP3    H240262   6.324   2.133  17.390  0.8856  0.6304  0.4544
 6283TIP3   OH240263   2.380   3.276  15.587  0.3202  0.0699  0.7344
 6283TIP3    H140264   2.320   3.227  15.643  0.0981 -1.9841 -1.1908
 6283TIP3    H240265   2.333   3.357  15.568  0.6619  1.1559  3.9107
 6284TIP3   OH240266   6.640   5.011  16.068  0.9933 -0.0814  0.7073
 6284TIP3    H140267   6.629   4.995  15.974  3.0720 -1.4721  0.6439
 6284TIP3    H240268   6.641   5.106  16.076 -2.1881  0.1672 -0.2162
 6285TIP3   OH240269   6.635   0.202  13.271 -0.0933 -0.4493  0.0736
 6285TIP3    H140270   6.656   0.151  13.193  1.5500 -0.2731  0.3682
 6285TIP3    H240271   6.649   0.293  13.245 -1.9838 -0.1788 -0.1369
 6286TIP3   OH240272   0.988   1.715   4.471 -0.1833  0.1097  0.3631
 6286TIP3    H140273   1.020   1.639   4.423 -1.4666  0.1779 -0.6887
 6286TIP3    H240274   1.050   1.785   4.450  0.0761 -0.2383 -0.0476
 6287TIP3   OH240275   5.611   4.477   1.529  0.0470 -0.5373  0.1997
 6287TIP3    H140276   5.553   4.476   1.453  1.0227  0.4884 -0.5877
 6287TIP3    H240277   5.564   4.529   1.594  1.0683  2.5319 -1.3242
 6288TIP3   OH240278   0.378   5.768   1.734  0.2003  0.0620  0.5041
 6288TIP3    H140279   0.394   5.824   1.658 -1.0445  1.7564  1.4100
 6288TIP3    H240280   0.380   5.679   1.700 -0.0886  0.7616 -1.4599
 6289TIP3   OH240281   3.310   4.287   6.114 -0.6418  0.0626 -0.0657
 6289TIP3    H140282   3.246   4.325   6.174 -0.6930  0.7510 -0.5515
 6289TIP3    H240283   3.359   4.362   6.080 -0.5336 -0.3352 -0.7940
 6290TIP3   OH240284   5.621   6.362  11.413  0.2501  0.1218 -0.1049
 6290TIP3    H140285   5.600   6.295  11.348  2.6285 -1.6094  0.7425
 6290TIP3    H240286   5.717   6.365  11.413  0.2438  2.1279  1.3248
 6291TIP3   OH240287   2.174   0.102   3.645 -0.3131  0.2530  0.5361
 6291TIP3    H140288   2.206   0.191   3.632 -0.5608  0.8286  3.3001
 6291TIP3    H240289   2.084   0.114   3.675 -0.5017 -0.9670  0.4959
 6292TIP3   OH240290   3.871   0.592  14.384  0.6673  0.2324  0.1278
 6292TIP3    H140291   3.889   0.647  14.461 -0.5927 -1.4518  1.7146
 6292TIP3    H240292   3.811   0.644  14.331  1.7603  1.5347  0.1015
 6293TIP3   OH240293   1.387   3.187  16.852  0.2828  0.0982 -0.2712
 6293TIP3    H140294   1.443   3.199  16.776  0.6515 -1.6009 -0.3149
 6293TIP3    H240295   1.300   3.174  16.816  0.5426 -1.2350 -0.4656
 6294TIP3   OH240296   5.286   4.701  12.106 -0.7261  0.2161 -0.4041
 6294TIP3    H140297   5.361   4.642  12.099  0.7706  2.0249 -0.5012
 6294TIP3    H240298   5.287   4.730  12.197 -1.6976 -0.1848 -0.2506
 6295TIP3   OH240299   1.321   5.917  15.047  0.2276  0.1774 -0.4971
 6295TIP3    H140300   1.353   5.908  15.137  0.5363  1.6877 -0.4283
 6295TIP3    H240301   1.401   5.927  14.995  0.1493 -2.2242 -1.1907
 6296TIP3   OH240302   3.818   3.432   2.402 -0.5782  0.6131 -0.0029
 6296TIP3    H140303   3.859   3.390   2.478 -1.7599  0.4415  0.5672
 6296TIP3    H240304   3.887   3.487   2.365  0.0627  0.6033  1.1281
 6297TIP3   OH240305   1.878   5.576   1.043  0.2361  0.2619  0.0510
 6297TIP3    H140306   1.817   5.504   1.026 -1.5159  0.8772  3.0263
 6297TIP3    H240307   1.959   5.532   1.068 -0.3278 -0.6943  0.3010
 6298TIP3   OH240308   2.619   3.226   3.575  0.4014 -0.1810 -0.0390
 6298TIP3    H140309   2.693   3.181   3.616  1.9828 -0.3485 -2.7941
 6298TIP3    H240310   2.573   3.157   3.527  0.2513  0.3793 -0.7297
 6299TIP3   OH240311   5.131   5.878   4.668  0.1123 -0.6725  0.1632
 6299TIP3    H140312   5.198   5.945   4.656  1.1128 -1.7595 -0.5854
 6299TIP3    H240313   5.074   5.887   4.592  0.0373 -0.4483  0.2455
 6300TIP3   OH240314   1.725   5.990   2.665 -0.0243  0.3921  0.4778
 6300TIP3    H140315   1.798   5.946   2.708  0.4807  1.7356  1.0653
 6300TIP3    H240316   1.677   6.032   2.737 -2.2932 -1.6598  0.3089
 6301TIP3   OH240317   0.063   2.177  11.946  0.3576 -0.1033  0.1049
 6301TIP3    H140318   0.114   2.102  11.913 -1.0049 -1.6894  1.4234
 6301TIP3    H240319   0.023   2.144  12.026 -0.5217  1.9956  0.5682
 6302TIP3   OH240320   1.107   5.786   4.416 -0.6779  0.2102  0.1679
 6302TIP3    H140321   1.055   5.855   4.376  0.8477  3.6988  3.5553
 6302TIP3    H240322   1.193   5.795   4.376  0.1343  1.9829  2.0933
 6303TIP3   OH240323   1.681   3.521   5.969  0.4608  0.4631  0.0688
 6303TIP3    H140324   1.670   3.477   6.053 -0.7343 -0.8609 -0.7348
 6303TIP3    H240325   1.593   3.527   5.933  1.2285 -2.5570 -2.7885
 6304TIP3   OH240326   6.464   6.276  17.069 -0.4337 -0.0261 -0.2643
 6304TIP3    H140327   6.488   6.187  17.094  0.5269  0.8548  2.2084
 6304TIP3    H240328   6.368   6.275  17.066 -0.4454 -1.0285  0.2201
 6305TIP3   OH240329   5.672   6.748  14.910 -0.3052  0.1483  0.1611
 6305TIP3    H140330   5.686   6.841  14.927 -1.1267  0.4636 -0.8111
 6305TIP3    H240331   5.728   6.728  14.835  1.0318 -0.5331  1.2742
 6306TIP3   OH240332   2.847   1.032   4.271 -0.4735 -0.0145 -0.2566
 6306TIP3    H140333   2.930   1.033   4.222 -1.0313 -1.5819 -1.3213
 6306TIP3    H240334   2.808   1.117   4.254 -0.2166 -0.1851 -1.7899
 6307TIP3   OH240335   1.361   4.027   1.371 -0.1515 -0.0525 -0.1382
 6307TIP3    H140336   1.347   3.968   1.297 -2.2147 -0.7740  0.7633
 6307TIP3    H240337   1.324   4.111   1.342  0.6811  0.1879 -0.5542
 6308TIP3   OH240338   2.670   1.563   5.291 -0.2597  0.2129 -0.3011
 6308TIP3    H140339   2.681   1.491   5.229  0.1793  0.0113  0.0071
 6308TIP3    H240340   2.676   1.522   5.377 -0.0540  0.6091 -0.1246
 6309TIP3   OH240341   0.039   1.769  17.137  0.2325 -0.1781  0.2183
 6309TIP3    H140342  -0.017   1.800  17.065 -0.6998 -0.9013  0.6022
 6309TIP3    H240343   0.098   1.842  17.155  2.2479 -0.8231 -2.9500
 6310TIP3   OH240344   0.825   0.696  15.054 -0.0912 -0.5665 -0.6241
 6310TIP3    H140345   0.873   0.712  14.973  0.5770 -1.5809 -0.4601
 6310TIP3    H240346   0.779   0.613  15.039 -0.2206 -0.5996 -0.0875
 6311TIP3   OH240347   2.943   0.000   4.626 -0.3257 -0.3599 -0.5505
 6311TIP3    H140348   2.927  -0.092   4.644  0.3140 -0.5076 -0.7358
 6311TIP3    H240349   2.992   0.001   4.544  1.6609 -0.0025  0.5670
 6312TIP3   OH240350   2.414   3.572  15.792 -0.8739  0.0313  0.5269
 6312TIP3    H140351   2.477   3.622  15.844  0.7537 -1.0079 -0.3502
 6312TIP3    H240352   2.395   3.628  15.717 -2.3136  1.0319  1.5794
 6313TIP3   OH240353   4.326   6.513   5.903  0.7183 -0.4439 -0.1395
 6313TIP3    H140354   4.329   6.420   5.925 -1.5082 -1.1076 -2.2267
 6313TIP3    H240355   4.351   6.516   5.810 -0.0366  0.9030 -0.3176
 6314TIP3   OH240356   2.817   6.644  16.379 -0.5821 -0.6346  0.4445
 6314TIP3    H140357   2.755   6.604  16.319 -0.2867 -0.7571  0.2152
 6314TIP3    H240358   2.763   6.680  16.450 -0.8884 -0.9945  0.3974
 6315TIP3   OH240359   2.953   1.152   3.866 -0.6665 -0.2733 -0.2455
 6315TIP3    H140360   2.929   1.223   3.806  0.3713  0.2776 -0.0326
 6315TIP3    H240361   3.041   1.174   3.896 -0.1370 -1.8879 -0.5110
 6316TIP3   OH240362   1.122   2.208   0.654 -0.6258 -0.0503  0.3117
 6316TIP3    H140363   1.154   2.285   0.606 -2.0495  0.6605  0.4682
 6316TIP3    H240364   1.057   2.169   0.597 -0.1493 -0.9631  0.3807
 6317TIP3   OH240365   1.396   6.055   4.101 -0.2090  0.1152  0.3559
 6317TIP3    H140366   1.490   6.050   4.087 -0.2241 -0.6636  0.5062
 6317TIP3    H240367   1.360   6.073   4.014  0.0033 -0.6766  0.0993
 6318TIP3   OH240368   6.677   5.425   1.317  0.0040 -0.0538 -0.3678
 6318TIP3    H140369   6.655   5.381   1.235  1.8134 -0.3507 -0.7409
 6318TIP3    H240370   6.612   5.393   1.380 -1.5368  0.3351 -1.7083
 6319TIP3   OH240371   1.545   0.145  16.480 -0.2655  0.1755 -0.6746
 6319TIP3    H140372   1.553   0.068  16.535  1.0691 -1.2659 -2.7545
 6319TIP3    H240373   1.468   0.129  16.426  0.3652 -0.0401 -1.5411
 6320TIP3   OH240374   4.244   1.543   3.174 -0.3119 -0.0592 -0.3127
 6320TIP3    H140375   4.283   1.629   3.160 -0.5128  0.1963  0.6220
 6320TIP3    H240376   4.227   1.509   3.086  1.2438  0.1689 -0.7234
 6321TIP3   OH240377   2.414   5.235   5.812  0.1420  0.4632 -0.3608
 6321TIP3    H140378   2.381   5.146   5.799  2.6377 -0.9442  1.9734
 6321TIP3    H240379   2.363   5.269   5.885  0.3684  0.2940 -0.1258
 6322TIP3   OH240380   4.828   4.067   3.650  0.2702  0.4948 -0.5026
 6322TIP3    H140381   4.836   3.992   3.591  1.0973  0.7187 -0.6899
 6322TIP3    H240382   4.832   4.143   3.592  0.5194  0.7054 -0.2119
 6323TIP3   OH240383   3.043   2.169  12.451 -0.2255 -0.0894 -0.3009
 6323TIP3    H140384   3.080   2.217  12.525  0.6494  0.4617 -1.0782
 6323TIP3    H240385   3.014   2.237  12.390 -0.2965 -0.5340 -0.7714
 6324TIP3   OH240386   1.914   2.808   5.560 -0.0223  0.3351  0.0971
 6324TIP3    H140387   1.999   2.773   5.587  0.2808  0.9222 -0.0729
 6324TIP3    H240388   1.930   2.844   5.473 -0.6491 -0.2853 -0.2799
 6325TIP3   OH240389   1.806   0.216  14.805 -0.6909 -0.2132 -0.1804
 6325TIP3    H140390   1.711   0.212  14.793 -0.6569 -0.6119 -0.3378
 6325TIP3    H240391   1.837   0.128  14.783 -0.1990  0.1219 -0.8717
 6326TIP3   OH240392   1.705   3.555   4.272  0.1835 -0.5489  0.0153
 6326TIP3    H140393   1.794   3.519   4.277  0.3836 -0.0565  0.1561
 6326TIP3    H240394   1.717   3.641   4.231 -0.3198 -0.7644 -0.6001
 6327TIP3   OH240395   3.962   6.150   3.422 -0.4662 -0.0183  0.4224
 6327TIP3    H140396   4.029   6.152   3.490 -1.9100  0.0923  1.8932
 6327TIP3    H240397   4.009   6.172   3.342  1.0309  1.2940  1.5919
 6328TIP3   OH240398   6.058   5.447  13.548 -0.6088  0.2846  0.4085
 6328TIP3    H140399   5.975   5.437  13.594 -1.0957 -1.8114 -0.8117
 6328TIP3    H240400   6.032   5.471  13.458  0.1941  1.1510  0.3903
 6329TIP3   OH240401   1.321   3.164   5.624  0.0552  0.3685  0.4533
 6329TIP3    H140402   1.252   3.185   5.686  1.7332  2.0865  1.8802
 6329TIP3    H240403   1.402   3.174   5.675  1.4302  0.0813 -1.5717
 6330TIP3   OH240404   2.487   0.396  13.334  0.2127 -0.1356 -0.6429
 6330TIP3    H140405   2.405   0.361  13.299  0.8107 -2.9664  0.5333
 6330TIP3    H240406   2.555   0.339  13.298  1.7165  1.9661 -1.3544
 6331TIP3   OH240407   0.829   6.006   0.829  0.0185 -0.5542  0.0418
 6331TIP3    H140408   0.816   6.094   0.792  1.6822 -0.1547  0.2922
 6331TIP3    H240409   0.742   5.977   0.853 -0.4582  1.6578  1.3188
 6332TIP3   OH240410   3.278   3.196  14.367 -0.0750  0.3222 -0.0049
 6332TIP3    H140411   3.302   3.260  14.300  2.1697  1.1550  1.4807
 6332TIP3    H240412   3.197   3.230  14.405 -0.8798  0.3180 -1.6027
 6333TIP3   OH240413   2.823   4.178   2.085  0.1945  0.0216  0.0835
 6333TIP3    H140414   2.875   4.100   2.064 -0.7503 -0.8365  0.8199
 6333TIP3    H240415   2.751   4.145   2.138  0.1553  1.5039  1.0210
 6334TIP3   OH240416   6.550   0.677   4.574  0.2425  0.0153  0.2988
 6334TIP3    H140417   6.609   0.732   4.626 -0.3344  1.1867 -0.2645
 6334TIP3    H240418   6.593   0.670   4.489  0.5026 -0.7413  0.4855
 6335TIP3   OH240419   2.804   0.738  13.102  0.1398  0.4009 -0.2963
 6335TIP3    H140420   2.893   0.708  13.123 -0.9054 -1.6641  1.7549
 6335TIP3    H240421   2.767   0.666  13.050 -0.0478  1.7235 -2.0714
 6336TIP3   OH240422   2.433   1.316   4.565  1.0375  0.2076  0.1373
 6336TIP3    H140423   2.427   1.401   4.608  1.3227  0.7214 -0.8158
 6336TIP3    H240424   2.497   1.268   4.617  0.0507  0.1445  1.3569
 6337TIP3   OH240425   3.886   3.765  12.853  0.0507  0.5787 -0.3510
 6337TIP3    H140426   3.832   3.830  12.808 -0.4228  1.6126  1.5799
 6337TIP3    H240427   3.880   3.686  12.799 -3.2639  0.6978 -0.3644
 6338TIP3   OH240428   6.047   3.036   4.456 -0.0073 -0.3397  0.0962
 6338TIP3    H140429   6.113   3.103   4.472 -1.3081  0.8031  0.9254
 6338TIP3    H240430   6.074   2.962   4.511 -0.3886  0.8095  1.9202
 6339TIP3   OH240431   1.967   0.690   5.552 -0.4129  0.1798 -0.2955
 6339TIP3    H140432   1.988   0.602   5.582 -0.9676  0.3215  0.5565
 6339TIP3    H240433   1.901   0.721   5.613  0.2479  1.4348 -0.1738
 6340TIP3   OH240434   4.813   6.419   4.599 -0.0519 -0.1945 -0.5223
 6340TIP3    H140435   4.794   6.357   4.668 -3.7695 -1.2326 -2.2501
 6340TIP3    H240436   4.906   6.404   4.579  0.3929 -1.7995  2.2424
 6341TIP3   OH240437   0.897   1.379   3.800 -0.2200 -0.1672 -0.1975
 6341TIP3    H140438   0.862   1.469   3.800 -1.1987 -0.5331  0.1392
 6341TIP3    H240439   0.977   1.385   3.748 -0.4832  0.8250 -0.5264
 6342TIP3   OH240440   3.271   3.064   3.086  1.1060  0.0063 -0.2736
 6342TIP3    H140441   3.294   2.972   3.069 -1.5247 -0.4459 -2.0088
 6342TIP3    H240442   3.286   3.107   3.002 -1.1899  0.3128 -0.5668
 6343TIP3   OH240443   3.593   0.527   0.383  0.1682  0.1941 -0.0177
 6343TIP3    H140444   3.537   0.555   0.455 -0.1728  2.2009 -1.0112
 6343TIP3    H240445   3.657   0.468   0.424 -0.4785  0.6824  1.7677
 6344TIP3   OH240446   4.893   0.790  15.521 -0.4278  0.0706 -0.2191
 6344TIP3    H140447   4.858   0.778  15.433 -1.7348 -2.1672  0.5037
 6344TIP3    H240448   4.869   0.709  15.567  3.7572 -0.6841  1.0557
 6345TIP3   OH240449   4.934   5.560   2.881  0.0611  0.5251  0.1180
 6345TIP3    H140450   4.943   5.497   2.810 -0.4954  0.6144 -0.0387
 6345TIP3    H240451   4.883   5.513   2.948 -0.7749  0.9612 -0.2005
 6346TIP3   OH240452   6.613   4.451  14.572 -0.4051 -0.3039  0.0934
 6346TIP3    H140453   6.636   4.543  14.583 -2.1227  0.2997 -0.9539
 6346TIP3    H240454   6.696   4.408  14.552  0.1954  1.3623 -1.2683
 6347TIP3   OH240455   4.411   0.452   1.035  0.1517  0.4788 -0.0110
 6347TIP3    H140456   4.321   0.453   1.004  0.9207  0.4187 -2.4923
 6347TIP3    H240457   4.405   0.464   1.130 -2.4382  0.3217 -0.1056
 6348TIP3   OH240458   5.062   0.107   3.856 -0.1422  0.0727  0.5077
 6348TIP3    H140459   5.061   0.178   3.792 -0.9465 -0.6027 -0.2548
 6348TIP3    H240460   4.981   0.119   3.905 -1.1055 -1.2164 -0.6818
 6349TIP3   OH240461   0.478   3.896   2.874  0.6573 -0.3908 -0.7844
 6349TIP3    H140462   0.463   3.899   2.780 -1.6012 -0.3631 -0.4857
 6349TIP3    H240463   0.406   3.843   2.908  2.2250 -1.5849  0.8089
 6350TIP3   OH240464   2.649   4.066   2.275 -0.1450 -0.6165 -0.3547
 6350TIP3    H140465   2.563   4.077   2.235 -1.3667 -0.5554  2.0662
 6350TIP3    H240466   2.632   4.070   2.370  2.3975 -1.5200  0.2332
 6351TIP3   OH240467   6.665   0.030  13.056 -0.4234  0.2985 -0.3715
 6351TIP3    H140468   6.610  -0.025  13.113 -0.7696  1.8118  0.8448
 6351TIP3    H240469   6.605   0.062  12.989 -0.5222  0.2210 -0.3202
 6352TIP3   OH240470   1.559   3.138  12.855 -0.2463 -0.9381 -0.3616
 6352TIP3    H140471   1.560   3.182  12.940 -0.0632  1.3551 -1.4776
 6352TIP3    H240472   1.627   3.182  12.804 -0.0176 -2.5898 -1.5787
 6353TIP3   OH240473   6.517   6.366  15.217 -0.3821  0.0463 -0.4371
 6353TIP3    H140474   6.590   6.402  15.166 -1.8625  1.1824 -1.8857
 6353TIP3    H240475   6.472   6.443  15.252 -1.2516 -0.5945 -0.1157
 6354TIP3   OH240476   1.903   3.765  11.576  0.4247  0.4351 -0.2751
 6354TIP3    H140477   1.926   3.734  11.664 -1.1625  0.6290  0.2548
 6354TIP3    H240478   1.968   3.726  11.518 -0.1793 -2.1161  0.6169
 6355TIP3   OH240479   6.766   2.312   3.827  0.3092 -0.0773  0.4747
 6355TIP3    H140480   6.766   2.373   3.754  0.3395  1.1248  1.4470
 6355TIP3    H240481   6.850   2.266   3.821  0.2394 -0.0985 -0.3287
 6356TIP3   OH240482   1.950   5.654  12.177 -0.3510 -0.1060 -0.5426
 6356TIP3    H140483   1.993   5.635  12.259  1.5518 -0.1260 -1.5022
 6356TIP3    H240484   1.974   5.582  12.119 -3.4385 -1.2964 -0.5714
 6357TIP3   OH240485   2.033   1.018   2.357 -0.0974  0.7468  0.1219
 6357TIP3    H140486   1.982   1.027   2.277  1.1818  1.9128 -0.6035
 6357TIP3    H240487   2.050   0.924   2.365  0.1599  0.6642 -1.2383
 6358TIP3   OH240488   3.037   0.437  12.947  0.8169  0.1367  0.4162
 6358TIP3    H140489   3.037   0.502  13.017  1.2677 -0.2263  0.7630
 6358TIP3    H240490   3.113   0.462  12.893 -1.3497  2.3845 -1.8425
 6359TIP3   OH240491   0.415   2.719  14.569  0.6167 -0.2162 -0.2247
 6359TIP3    H140492   0.436   2.640  14.520 -0.3961 -0.4828 -0.2496
 6359TIP3    H240493   0.500   2.750  14.602  0.9786 -1.5191  0.1176
 6360TIP3   OH240494   4.515   6.453   3.484 -0.2612  0.3188  0.4930
 6360TIP3    H140495   4.535   6.359   3.487 -1.4753 -0.0226 -0.9189
 6360TIP3    H240496   4.599   6.494   3.463 -0.1707 -0.7202 -1.4595
 6361TIP3   OH240497   6.391   3.585   1.693  0.0347 -0.2557  0.2329
 6361TIP3    H140498   6.371   3.609   1.783 -0.2254  0.7056 -0.0723
 6361TIP3    H240499   6.317   3.618   1.642  1.8160  2.5403 -0.8065
 6362TIP3   OH240500   6.090   1.742   1.777 -0.0741 -0.0762  0.0096
 6362TIP3    H140501   6.148   1.690   1.721 -0.4258  1.3157 -1.7201
 6362TIP3    H240502   6.034   1.678   1.820 -0.4697 -1.1740 -2.0180
 6363TIP3   OH240503   3.526   6.360   3.793 -0.2328 -0.5202  0.7206
 6363TIP3    H140504   3.464   6.427   3.821  0.0445 -0.3569  0.9409
 6363TIP3    H240505   3.600   6.409   3.757 -0.8733 -0.7125 -0.9830
 6364TIP3   OH240506   3.213   5.597  13.225 -0.6334  0.1835  0.5345
 6364TIP3    H140507   3.232   5.679  13.270 -0.8077  1.9742 -2.4417
 6364TIP3    H240508   3.295   5.575  13.181 -1.3259  0.2155 -0.8084
 6365TIP3   OH240509   2.050   6.039   2.908 -0.0260  0.2409  0.2782
 6365TIP3    H140510   2.094   6.124   2.898 -0.0781  0.4571  1.7555
 6365TIP3    H240511   1.975   6.058   2.964 -1.5849 -0.2886 -1.5153
 6366TIP3   OH240512   1.310   6.467  16.285  0.1681 -0.1395  0.2615
 6366TIP3    H140513   1.276   6.404  16.349 -1.8857 -0.7011 -1.3068
 6366TIP3    H240514   1.382   6.420  16.242  1.0064 -0.0637  1.4970
 6367TIP3   OH240515   3.710   3.903  12.134 -0.0922  1.0067 -0.2623
 6367TIP3    H140516   3.793   3.883  12.090 -0.6326  0.0076 -0.8519
 6367TIP3    H240517   3.719   3.995  12.160  1.2509  0.8806 -0.1886
 6368TIP3   OH240518   2.371   6.681   3.479  1.0176  0.3556 -0.3338
 6368TIP3    H140519   2.439   6.689   3.412  1.5891 -1.1863  0.0421
 6368TIP3    H240520   2.319   6.761   3.468 -1.3044 -1.3722 -5.2266
 6369TIP3   OH240521   6.522   5.629  16.217 -0.0797 -0.7376  0.1302
 6369TIP3    H140522   6.427   5.638  16.223 -0.4244 -1.8122 -2.2905
 6369TIP3    H240523   6.548   5.591  16.301 -1.8540 -0.8675  0.6626
 6370TIP3   OH240524   4.441   4.072   5.615 -0.4086  0.0425  0.0981
 6370TIP3    H140525   4.536   4.060   5.615 -0.0860  2.2104 -0.8308
 6370TIP3    H240526   4.425   4.145   5.556 -2.4143  1.5398  2.2809
 6371TIP3   OH240527   0.042   4.426   2.744 -0.3553 -0.0063  0.3303
 6371TIP3    H140528  -0.019   4.429   2.818 -0.9449  4.3911 -0.0709
 6371TIP3    H240529  -0.008   4.461   2.670  1.8733  1.3969 -0.6224
 6372TIP3   OH240530   0.938   4.519   0.944 -0.1159  0.0472  0.0794
 6372TIP3    H140531   0.975   4.585   0.885 -0.0195 -1.3086 -1.4326
 6372TIP3    H240532   1.014   4.485   0.992 -0.0011  0.1992  0.0094
 6373TIP3   OH240533   3.220   4.730  16.122  0.3882  0.2003  0.1098
 6373TIP3    H140534   3.201   4.637  16.137  1.8449 -0.4455 -1.7327
 6373TIP3    H240535   3.136   4.767  16.095  0.0521 -0.8862 -0.4015
 6374TIP3   OH240536   4.617   5.358  11.845 -0.2095 -0.3810 -0.3878
 6374TIP3    H140537   4.607   5.366  11.750 -1.6549 -0.3756 -0.2572
 6374TIP3    H240538   4.565   5.431  11.880  0.0663 -0.5623  0.4114
 6375TIP3   OH240539   5.157   5.856  11.469  0.0009  0.2457  0.3118
 6375TIP3    H140540   5.062   5.866  11.467 -0.5198 -3.2708  0.9670
 6375TIP3    H240541   5.173   5.775  11.421  2.6975  0.6888  0.3215
 6376TIP3   OH240542   4.792   4.879   4.015 -0.2283 -0.1603 -0.1277
 6376TIP3    H140543   4.799   4.935   3.938  0.0778 -0.6021 -0.4281
 6376TIP3    H240544   4.786   4.940   4.089 -1.0835  0.2743 -0.5398
 6377TIP3   OH240545   3.037   3.474  15.826 -0.3403  0.3249 -0.1954
 6377TIP3    H140546   3.010   3.427  15.906  2.0950 -0.1520  0.4263
 6377TIP3    H240547   3.015   3.414  15.755 -1.9851  0.4938  0.1402
 6378TIP3   OH240548   5.515   1.554   0.142 -0.2892  0.2391 -0.3499
 6378TIP3    H140549   5.422   1.565   0.162 -0.2700  0.1388 -0.1973
 6378TIP3    H240550   5.518   1.484   0.078 -0.3398  0.4375 -0.5693
 6379TIP3   OH240551   0.833   5.734   6.663  0.4481 -0.1238  0.1664
 6379TIP3    H140552   0.927   5.745   6.650  0.4859  0.1670  0.6340
 6379TIP3    H240553   0.818   5.640   6.658  0.8284 -0.2033  0.4614
 6380TIP3   OH240554   1.070   1.908   1.777  0.3574 -0.6626  0.1497
 6380TIP3    H140555   1.026   1.823   1.780  0.2528 -0.7462 -2.0784
 6380TIP3    H240556   1.114   1.915   1.861 -2.7824 -1.1433  1.9833
 6381TIP3   OH240557   1.438   5.549   5.842  0.2913  0.0630  0.4003
 6381TIP3    H140558   1.504   5.589   5.786 -2.2585  2.1348 -1.3284
 6381TIP3    H240559   1.356   5.591   5.817 -2.3421 -4.5691  0.1232
 6382TIP3   OH240560   2.732   1.476  12.527  0.2497 -0.3785  0.0249
 6382TIP3    H140561   2.802   1.542  12.529  1.4915 -1.5753 -1.4967
 6382TIP3    H240562   2.778   1.392  12.532 -1.0743 -1.2036 -1.1438
 6383TIP3   OH240563   3.809   3.055  16.505  0.0843 -0.0932  0.1522
 6383TIP3    H140564   3.735   3.012  16.463 -0.3807 -0.8455  1.6770
 6383TIP3    H240565   3.810   3.021  16.594  1.3857  1.0056  0.6033
 6384TIP3   OH240566   3.802   3.407  14.748  0.7403 -0.3226  0.1817
 6384TIP3    H140567   3.716   3.424  14.786  0.7134 -1.0668  0.4837
 6384TIP3    H240568   3.790   3.328  14.696  1.0633  0.0180 -0.4195
 6385TIP3   OH240569   0.472   2.400   4.852 -0.2339 -0.5193  0.5795
 6385TIP3    H140570   0.382   2.403   4.884 -0.8748 -0.2187 -1.1219
 6385TIP3    H240571   0.519   2.461   4.909 -1.3667  0.1862  0.8085
 6386TIP3   OH240572   0.919   1.025  12.385  0.2162  0.2517 -0.4068
 6386TIP3    H140573   0.859   1.068  12.445 -0.4738 -0.0919 -0.8473
 6386TIP3    H240574   1.005   1.062  12.406  0.1167 -0.3767  1.2838
 6387TIP3   OH240575   0.075   2.690   5.778 -0.1073 -0.1929 -0.2982
 6387TIP3    H140576   0.138   2.621   5.757  0.1513 -0.6562  1.7681
 6387TIP3    H240577   0.003   2.644   5.823 -0.1403  0.8013  0.7178
 6388TIP3   OH240578   2.258   1.960  16.500  0.3584 -0.2825  0.4847
 6388TIP3    H140579   2.311   1.928  16.574 -0.3326  1.1847  1.6802
 6388TIP3    H240580   2.170   1.926  16.517 -0.1474  1.2553  1.2103
 6389TIP3   OH240581   4.541   3.356  16.620  0.4791 -0.2744 -0.4654
 6389TIP3    H140582   4.465   3.328  16.671 -0.0779 -0.8738 -1.5781
 6389TIP3    H240583   4.596   3.402  16.683  0.3871 -1.9809  0.9660
 6390TIP3   OH240584   3.042   3.233  13.277 -0.2521  0.1486 -0.1137
 6390TIP3    H140585   3.090   3.151  13.265  0.6088  0.2248  2.1985
 6390TIP3    H240586   3.064   3.285  13.200 -2.2813 -2.3701 -2.5989
 6391TIP3   OH240587   5.588   0.729  15.023 -0.2068 -0.0247  0.2967
 6391TIP3    H140588   5.630   0.679  15.092 -0.3433 -2.5849 -1.3555
 6391TIP3    H240589   5.529   0.789  15.069  1.3818  0.0120  2.4346
 6392TIP3   OH240590   2.317   1.366   0.434 -0.8449 -0.0107  0.0866
 6392TIP3    H140591   2.235   1.337   0.474 -0.9500  0.1661 -0.0024
 6392TIP3    H240592   2.381   1.299   0.460 -1.0864 -0.3242 -0.1068
 6393TIP3   OH240593   4.443   5.800  13.706  0.1629 -0.4704 -0.7294
 6393TIP3    H140594   4.488   5.833  13.783 -0.8929  0.8647 -0.6496
 6393TIP3    H240595   4.444   5.873  13.644 -3.3455  0.3303 -0.0822
 6394TIP3   OH240596   4.670   2.747   5.731 -0.0301  0.1351  0.2365
 6394TIP3    H140597   4.606   2.794   5.784 -1.8017 -1.8296 -0.0230
 6394TIP3    H240598   4.739   2.811   5.713  0.2226  1.1961  4.0698
 6395TIP3   OH240599   2.229   4.531   5.246  0.1743  0.3924  0.4687
 6395TIP3    H140600   2.269   4.521   5.332  1.1384  1.6443  0.1995
 6395TIP3    H240601   2.302   4.523   5.184 -0.3472  0.4549 -0.1702
 6396TIP3   OH240602   1.604   2.889  12.493 -0.0653  0.2921  0.9647
 6396TIP3    H140603   1.588   2.881  12.399 -1.9221 -0.1601  1.2695
 6396TIP3    H240604   1.547   2.961  12.521 -1.1007 -0.8913  2.0400
 6397TIP3   OH240605   1.555   5.211  12.197  0.1758 -0.2213  0.1526
 6397TIP3    H140606   1.550   5.173  12.285  2.7562 -1.3647 -0.0959
 6397TIP3    H240607   1.600   5.295  12.210  1.0957 -0.6597 -0.0997
 6398TIP3   OH240608   5.294   6.193   4.075 -0.0382 -0.2055 -0.2455
 6398TIP3    H140609   5.219   6.139   4.101 -0.9665  1.2895  0.2957
 6398TIP3    H240610   5.370   6.142   4.103 -0.8222 -1.7906 -0.8610
 6399TIP3   OH240611   0.052   4.595  13.830  0.2926 -0.3687  0.2326
 6399TIP3    H140612   0.078   4.636  13.913  0.2093 -0.1694  0.1616
 6399TIP3    H240613   0.112   4.633  13.765 -0.6503  0.6791 -0.0665
 6400TIP3   OH240614   2.839   4.193  14.668  0.2870  0.6001  0.7374
 6400TIP3    H140615   2.843   4.288  14.676 -0.3276  0.8232 -1.0980
 6400TIP3    H240616   2.771   4.177  14.603  0.5650 -1.0829  0.8080
 6401TIP3   OH240617   3.966   0.707  12.241  0.5845 -0.3242  0.5015
 6401TIP3    H140618   3.936   0.644  12.176 -1.3967 -0.0201  1.0444
 6401TIP3    H240619   3.920   0.683  12.321 -1.6146  2.7373  0.3390
 6402TIP3   OH240620   1.306   2.270  13.267 -0.2139  0.1356  0.1937
 6402TIP3    H140621   1.343   2.204  13.209 -2.4003 -0.1785 -0.9057
 6402TIP3    H240622   1.329   2.240  13.355  0.0155 -1.3338 -0.3475
 6403TIP3   OH240623   5.730   5.850   6.295 -0.1086  0.3113 -0.0945
 6403TIP3    H140624   5.705   5.936   6.260  0.2756  0.1707 -0.7238
 6403TIP3    H240625   5.822   5.840   6.270  0.9109  1.1690  2.8683
 6404TIP3   OH240626   0.092   0.097   4.093  0.5131 -0.1649 -0.3030
 6404TIP3    H140627   0.120   0.030   4.031 -0.3941  0.2341 -1.1689
 6404TIP3    H240628   0.144   0.174   4.071  1.7290 -0.6303  0.8492
 6405TIP3   OH240629   0.196   6.329  17.080 -0.1454 -0.1818  0.0617
 6405TIP3    H140630   0.115   6.282  17.097 -1.3740  0.1386 -3.8729
 6405TIP3    H240631   0.252   6.265  17.036  0.7142  0.3353  0.3779
 6406TIP3   OH240632   3.072   5.908  13.144 -0.6271  0.4540  0.6007
 6406TIP3    H140633   3.158   5.902  13.186 -0.1609 -0.1123 -0.3919
 6406TIP3    H240634   3.020   5.839  13.186  0.1295 -0.7574 -0.3767
 6407TIP3   OH240635   0.412   3.376  15.729  0.5360 -0.0209 -0.0797
 6407TIP3    H140636   0.393   3.303  15.789 -1.7522  1.1979  0.8198
 6407TIP3    H240637   0.387   3.454  15.779 -1.2640  1.0759 -2.4792
 6408TIP3   OH240638   5.345   1.593  11.620  0.8921 -0.6165  0.3960
 6408TIP3    H140639   5.269   1.550  11.581  1.7871 -1.3316 -0.6341
 6408TIP3    H240640   5.361   1.544  11.701  1.1754 -1.4971 -0.1675
 6409TIP3   OH240641   6.716   0.103  15.548 -0.0956 -0.3459  0.3771
 6409TIP3    H140642   6.752   0.188  15.520  1.2508 -1.1677 -0.4803
 6409TIP3    H240643   6.747   0.041  15.482 -1.3880 -1.4586  0.7741
 6410TIP3   OH240644   0.716   3.675   5.872 -0.0539 -0.7244 -0.0004
 6410TIP3    H140645   0.701   3.582   5.856 -0.5859 -0.4571 -1.1673
 6410TIP3    H240646   0.723   3.714   5.785  0.2696  0.3162  0.4721
 6411TIP3   OH240647   6.312   3.239   5.410  0.0147  0.0431  0.1030
 6411TIP3    H140648   6.265   3.188   5.475  0.2909 -1.5658 -0.8926
 6411TIP3    H240649   6.351   3.311   5.459 -0.9260 -0.3342  1.4542
 6412TIP3   OH240650   6.149   0.535  11.700 -0.0693  0.5551 -0.3371
 6412TIP3    H140651   6.174   0.462  11.643  1.5201  0.1002  0.8846
 6412TIP3    H240652   6.055   0.545  11.685 -0.1056 -0.9730 -1.3965
 6413TIP3   OH240653   4.900   5.148   0.810  0.1811  1.0119 -0.2541
 6413TIP3    H140654   4.817   5.101   0.817  0.6666  0.0147 -1.0543
 6413TIP3    H240655   4.964   5.092   0.854  0.7045  1.0617 -0.9417
 6414TIP3   OH240656   3.478   0.926  14.405 -0.3656  0.1074 -0.3292
 6414TIP3    H140657   3.397   0.947  14.360 -1.4812  0.3968  1.7028
 6414TIP3    H240658   3.451   0.877  14.483  1.5572 -1.4767 -0.5737
 6415TIP3   OH240659   2.764   3.108   2.135 -0.4059  0.4438 -0.1394
 6415TIP3    H140660   2.707   3.032   2.133  2.3407 -1.8451  1.1718
 6415TIP3    H240661   2.705   3.183   2.132 -3.2804 -1.6984 -1.0858
 6416TIP3   OH240662   1.663   4.908   1.283 -0.3192 -0.4455  0.0735
 6416TIP3    H140663   1.577   4.906   1.241 -0.1979  0.5671 -0.2477
 6416TIP3    H240664   1.697   4.818   1.274 -1.6101 -1.0357  0.8038
 6417TIP3   OH240665   6.750   3.863   0.724 -0.2572 -0.2028  0.2504
 6417TIP3    H140666   6.736   3.884   0.817 -0.1147 -0.4256  0.3233
 6417TIP3    H240667   6.745   3.767   0.721 -0.1136 -0.2027  0.0494
 6418TIP3   OH240668   4.744   0.710  11.007 -0.4975 -0.1470 -0.0983
 6418TIP3    H140669   4.786   0.717  10.921  0.8859 -0.4107  0.5264
 6418TIP3    H240670   4.712   0.798  11.025 -2.1240 -0.3886 -1.4955
 6419TIP3   OH240671   4.120   1.134  16.605  0.2477  0.1710  0.7817
 6419TIP3    H140672   4.176   1.169  16.536 -0.1027  1.0072  0.9112
 6419TIP3    H240673   4.170   1.062  16.643 -0.0033 -1.0101 -1.0446
 6420TIP3   OH240674   3.206   2.087  16.860  0.2979  0.7320 -0.4053
 6420TIP3    H140675   3.152   2.038  16.921  0.9496  0.9757  0.3863
 6420TIP3    H240676   3.223   2.026  16.788  3.1528 -1.1703  1.6861
 6421TIP3   OH240677   5.729   3.726  10.545  0.4726  0.1825 -0.1660
 6421TIP3    H140678   5.703   3.729  10.637 -0.5091  0.1428 -0.4243
 6421TIP3    H240679   5.657   3.771  10.499  1.1779  0.6192 -0.8586
 6422TIP3   OH240680   1.416   5.845  15.302  0.2116  0.1541  0.1396
 6422TIP3    H140681   1.380   5.849  15.390  2.3454  0.7196  1.0625
 6422TIP3    H240682   1.424   5.752  15.283 -1.1685  0.0230  0.1155
 6423TIP3   OH240683   4.693   2.548  13.623  0.3609 -0.9450 -0.1242
 6423TIP3    H140684   4.658   2.614  13.563  1.2949 -0.1399  0.1870
 6423TIP3    H240685   4.647   2.564  13.706  0.2147 -1.0289 -0.1880
 6424TIP3   OH240686   1.353   6.259   5.259 -0.4879 -0.0418  0.3881
 6424TIP3    H140687   1.313   6.334   5.213 -0.5548  0.1050  0.6806
 6424TIP3    H240688   1.447   6.276   5.256 -0.5425  0.4491  1.1112
 6425TIP3   OH240689   6.257   1.087   3.473 -0.5481 -0.0057 -0.6462
 6425TIP3    H140690   6.169   1.067   3.504 -0.9555 -2.1012 -2.8457
 6425TIP3    H240691   6.315   1.045   3.536 -1.1034  0.5994  0.3020
 6426TIP3   OH240692   1.147   5.800  17.116 -0.2891 -0.5034 -0.1099
 6426TIP3    H140693   1.161   5.734  17.049 -1.3437  0.6518 -1.5527
 6426TIP3    H240694   1.092   5.757  17.182 -3.6090 -0.3269 -2.5172
 6427TIP3   OH240695   6.171   6.661  15.807  0.3615  0.1583  0.3466
 6427TIP3    H140696   6.123   6.593  15.760  3.3124 -1.7146 -0.2499
 6427TIP3    H240697   6.188   6.729  15.742  2.2459 -1.2579 -0.7351
 6428TIP3   OH240698   3.675   2.290   4.355  0.4728 -0.6045 -0.4431
 6428TIP3    H140699   3.741   2.221   4.351  0.3902 -0.6509 -1.4564
 6428TIP3    H240700   3.702   2.346   4.428  2.4619  0.2018 -1.7051
 6429TIP3   OH240701   5.875   2.361   4.927 -0.3468 -0.4843  0.0603
 6429TIP3    H140702   5.931   2.321   4.862  0.6690 -0.6349  0.9962
 6429TIP3    H240703   5.808   2.295   4.946 -0.9881 -0.2266 -1.2032
 6430TIP3   OH240704   3.556   4.970   5.141 -0.7486 -0.2539  0.1904
 6430TIP3    H140705   3.651   4.980   5.153 -0.8527 -0.0910  0.9312
 6430TIP3    H240706   3.535   4.888   5.185 -1.1124  0.2564  0.9968
 6431TIP3   OH240707   3.697   4.142  15.458  0.5000 -0.0045 -0.6717
 6431TIP3    H140708   3.635   4.160  15.387  0.4640 -0.5060 -0.7677
 6431TIP3    H240709   3.643   4.104  15.527  0.9747 -2.2019 -1.4483
 6432TIP3   OH240710   6.002   0.992  16.888  0.4112 -0.2896 -0.0178
 6432TIP3    H140711   6.022   0.919  16.829  1.2832 -0.9158  1.0235
 6432TIP3    H240712   5.907   1.002  16.882  0.2944 -1.4480 -0.2536
 6433TIP3   OH240713   0.739   6.484  11.151 -0.2862 -0.7326  0.0501
 6433TIP3    H140714   0.678   6.500  11.078 -2.7898 -2.2862  1.6429
 6433TIP3    H240715   0.726   6.559  11.209  1.0420  0.0491 -0.6167
 6434TIP3   OH240716   5.813   0.725   5.163 -0.1360 -0.0527  0.0546
 6434TIP3    H140717   5.730   0.735   5.211  0.3234 -0.8359  1.0430
 6434TIP3    H240718   5.849   0.814   5.160  0.8915 -0.2448  3.1631
 6435TIP3   OH240719   2.911   6.737   4.094  0.9802  0.2961 -0.1857
 6435TIP3    H140720   2.982   6.693   4.048 -1.3980 -1.2439 -2.6589
 6435TIP3    H240721   2.879   6.802   4.032 -0.0773  0.6303  0.6733
 6436TIP3   OH240722   1.134   6.625   4.991  0.2791 -0.1628 -0.1187
 6436TIP3    H140723   1.115   6.531   4.995 -2.1245  0.1569 -1.5394
 6436TIP3    H240724   1.073   6.664   5.053 -0.3901  0.5834 -1.1973
 6437TIP3   OH240725   6.608   1.101   4.039  0.6368 -0.0348  0.6081
 6437TIP3    H140726   6.522   1.094   3.999  1.3807 -1.2135 -0.8720
 6437TIP3    H240727   6.621   1.195   4.052 -1.4400  0.1000  2.2348
 6438TIP3   OH240728   2.480   2.044  12.203 -0.4963 -0.0370 -0.1393
 6438TIP3    H140729   2.450   2.133  12.218 -0.9245 -0.4958  2.0330
 6438TIP3    H240730   2.568   2.041  12.239 -1.3087 -1.0089  1.9636
 6439TIP3   OH240731   3.883   6.471   3.847  0.5101  0.2340 -0.3294
 6439TIP3    H140732   3.916   6.460   3.758 -1.9125 -0.4546 -1.2235
 6439TIP3    H240733   3.831   6.552   3.844 -1.0515 -0.7227 -0.0588
 6440TIP3   OH240734   3.381   1.224   5.651  0.2091 -0.6172  0.5666
 6440TIP3    H140735   3.397   1.133   5.625 -0.1715 -1.1416  2.0769
 6440TIP3    H240736   3.453   1.273   5.612  0.6877 -1.6403  0.1300
 6441TIP3   OH240737   6.211   2.853   5.341  0.1537  0.2591 -0.2341
 6441TIP3    H140738   6.291   2.896   5.310  0.7110 -2.0530 -2.2832
 6441TIP3    H240739   6.241   2.770   5.378 -1.1696  0.1001  0.5413
 6442TIP3   OH240740   1.369   2.627  11.251 -0.4154  0.4871  0.5620
 6442TIP3    H140741   1.369   2.575  11.171  0.2782  2.6633 -0.9338
 6442TIP3    H240742   1.385   2.563  11.321  0.9460 -1.2253 -1.2083
 6443TIP3   OH240743   1.738   6.319  15.210  0.1515 -0.1897 -0.5021
 6443TIP3    H140744   1.671   6.385  15.193  0.6327  1.2244  2.4755
 6443TIP3    H240745   1.796   6.324  15.134  0.2268  2.9735 -0.3703
 6444TIP3   OH240746   5.669   2.141  12.254 -0.3790  0.9843 -0.5173
 6444TIP3    H140747   5.658   2.217  12.310 -1.4400 -0.3352  1.1602
 6444TIP3    H240748   5.750   2.099  12.284 -2.5896 -1.5803  2.5531
 6445TIP3   OH240749   4.994   3.484  13.389  0.2723 -0.0442  0.5360
 6445TIP3    H140750   5.050   3.553  13.423 -0.9395  0.4930  1.5355
 6445TIP3    H240751   4.980   3.507  13.297  0.1445  0.8887  0.7749
 6446TIP3   OH240752   4.387   0.955  16.835 -0.2414  0.6065  0.6852
 6446TIP3    H140753   4.407   0.881  16.892 -1.5894  1.5517  2.4877
 6446TIP3    H240754   4.301   0.934  16.798  0.0025  0.6469  0.0820
 6447TIP3   OH240755   2.056   1.562  12.691 -0.2270  0.2978  0.6794
 6447TIP3    H140756   2.112   1.511  12.631 -1.8920  0.3022 -0.9624
 6447TIP3    H240757   2.116   1.625  12.731  0.8549  0.7806 -1.5268
 6448TIP3   OH240758   6.224   1.294  12.898 -0.0496 -0.2685 -0.1871
 6448TIP3    H140759   6.297   1.342  12.937 -1.3032  0.8569  0.8505
 6448TIP3    H240760   6.153   1.357  12.894 -1.0910 -1.4420 -0.8375
 6449TIP3   OH240761   2.937   3.939   2.030 -0.0071  0.0732  0.2570
 6449TIP3    H140762   2.852   3.895   2.027  0.1631 -0.4655  2.1255
 6449TIP3    H240763   2.992   3.890   1.969 -0.6283 -0.5258  0.1689
 6450TIP3   OH240764   0.256   3.344  15.288  0.4774  0.0947  0.5625
 6450TIP3    H140765   0.163   3.332  15.272  0.5418  0.7602 -0.3782
 6450TIP3    H240766   0.281   3.268  15.340 -0.2157 -1.0317 -0.6866
 6451TIP3   OH240767   0.310   4.480  15.285  0.3799  0.4996 -0.7605
 6451TIP3    H140768   0.344   4.570  15.277  0.1726  0.6158 -0.3533
 6451TIP3    H240769   0.222   4.492  15.320  0.6039  0.0951 -0.0520
 6452TIP3   OH240770   5.199   5.938   0.193 -0.4004  0.1435  0.2955
 6452TIP3    H140771   5.198   5.855   0.242  1.4519 -1.2883 -1.8895
 6452TIP3    H240772   5.260   5.994   0.242 -1.2438  0.0703  1.4901
 6453TIP3   OH240773   6.653   6.411  12.447  0.0181  0.1984  0.3437
 6453TIP3    H140774   6.581   6.420  12.509  1.2499  0.5475  1.7929
 6453TIP3    H240775   6.728   6.384  12.500  1.2356  0.9152 -0.9215
 6454TIP3   OH240776   1.375   3.118  14.096 -0.3895 -0.7654 -0.3795
 6454TIP3    H140777   1.460   3.080  14.073 -0.4991 -1.1122 -0.2034
 6454TIP3    H240778   1.395   3.208  14.121 -0.0343 -0.9444 -0.0236
 6455TIP3   OH240779   2.612   3.915  17.085 -0.4293  0.0548 -0.2679
 6455TIP3    H140780   2.518   3.911  17.102 -0.4846  0.0082 -0.5769
 6455TIP3    H240781   2.619   3.915  16.989 -0.2552  2.7466 -0.3307
 6456TIP3   OH240782   1.879   6.708  11.291 -0.3645 -0.3868 -0.2439
 6456TIP3    H140783   1.918   6.785  11.251 -1.2928 -0.4823 -1.3959
 6456TIP3    H240784   1.926   6.634  11.251 -0.1459 -0.4546  0.1279
 6457TIP3   OH240785   6.046   4.130   3.227  0.5741 -0.7660 -0.2114
 6457TIP3    H140786   6.102   4.106   3.153 -0.2982 -2.1994 -0.4523
 6457TIP3    H240787   6.051   4.055   3.286 -0.0071 -0.3204  0.4216
 6458TIP3   OH240788   2.987   4.669  14.937  0.7228 -0.3527  0.0646
 6458TIP3    H140789   3.066   4.651  14.887  1.1720  3.0193 -0.6610
 6458TIP3    H240790   2.925   4.705  14.874  0.0464  0.7353  1.2835
 6459TIP3   OH240791   3.240   6.274  11.563 -0.3045 -0.0744  0.3237
 6459TIP3    H140792   3.304   6.320  11.509 -0.2993 -0.1365  0.2758
 6459TIP3    H240793   3.274   6.185  11.569 -0.1094  0.0259  0.7411
 6460TIP3   OH240794   2.785   3.911   0.858 -0.3687  0.1815 -0.7424
 6460TIP3    H140795   2.715   3.977   0.862  0.2932  0.8421  0.5485
 6460TIP3    H240796   2.852   3.950   0.803  0.1234  0.7019  0.2126
 6461TIP3   OH240797   3.463   0.673  14.559  0.0744 -0.2034  0.8157
 6461TIP3    H140798   3.475   0.593  14.611 -1.5236 -0.1100  1.3806
 6461TIP3    H240799   3.369   0.691  14.565 -0.0162  0.3281 -1.3581
 6462TIP3   OH240800   5.163   0.532  11.676  0.1979 -0.0005  0.1682
 6462TIP3    H140801   5.086   0.478  11.657  0.4538  0.1632 -1.4748
 6462TIP3    H240802   5.153   0.608  11.619  0.5176  1.0606  1.4905
 6463TIP3   OH240803   5.885   6.085  10.894  0.4104 -0.1593 -0.1127
 6463TIP3    H140804   5.843   6.002  10.873  0.7399 -0.1824 -0.7078
 6463TIP3    H240805   5.821   6.151  10.870 -0.6123 -0.2584  2.1019
 6464TIP3   OH240806   3.059   0.875  12.918  0.1345 -0.1841 -0.2236
 6464TIP3    H140807   3.065   0.957  12.965  0.0048 -0.3363  0.0592
 6464TIP3    H240808   3.128   0.820  12.955 -0.3470 -0.5101  0.2028
 6465TIP3   OH240809   3.803   1.525  16.651  0.0549  0.3554 -0.5892
 6465TIP3    H140810   3.820   1.438  16.688  0.1308  0.6235  0.0075
 6465TIP3    H240811   3.867   1.582  16.694  0.2944  0.6285 -1.3001
 6466TIP3   OH240812   0.363   5.078   0.744  0.8506  0.2817 -0.4391
 6466TIP3    H140813   0.282   5.029   0.759  0.7790  0.6686  0.5321
 6466TIP3    H240814   0.333   5.164   0.713  0.8882  0.4327 -0.0561
 6467TIP3   OH240815   3.972   6.020  14.778  0.0235 -0.0150 -0.5665
 6467TIP3    H140816   4.057   6.017  14.822 -1.1203 -0.0639  1.7819
 6467TIP3    H240817   3.932   5.935  14.794 -0.7103  0.2027 -1.1419
 6468TIP3   OH240818   6.365   2.342   1.906  0.7237 -0.1705  0.1223
 6468TIP3    H140819   6.344   2.317   1.995  1.0943  1.8481  0.8335
 6468TIP3    H240820   6.420   2.420   1.915  0.4931  0.2877 -1.8681
 6469TIP3   OH240821   3.211   2.607  12.722  0.5026  0.4376 -0.2936
 6469TIP3    H140822   3.231   2.583  12.812  1.6909 -0.4612 -0.7742
 6469TIP3    H240823   3.296   2.622  12.681  0.0631 -0.4395 -1.6008
 6470TIP3   OH240824   1.094   5.433   0.681 -0.1669  0.2725 -0.0301
 6470TIP3    H140825   1.152   5.471   0.615 -0.4454 -0.5446 -0.7578
 6470TIP3    H240826   1.015   5.409   0.633  0.4013 -2.2259  0.1320
 6471TIP3   OH240827   5.995   2.683   1.505  0.3008 -0.5766  0.1084
 6471TIP3    H140828   5.938   2.648   1.573 -0.3494 -0.8664 -0.5741
 6471TIP3    H240829   6.077   2.704   1.551  0.7548 -3.0032  0.5559
 6472TIP3   OH240830   2.541   5.090   5.190 -0.5513 -0.1888 -0.2517
 6472TIP3    H140831   2.518   5.137   5.109 -0.0857  1.2771  0.4368
 6472TIP3    H240832   2.629   5.121   5.211  0.2373 -2.2043 -0.3225
 6473TIP3   OH240833   4.276   3.011   1.018 -0.2902  0.1460  0.1431
 6473TIP3    H140834   4.240   2.954   1.086 -0.2678 -0.5804 -0.4379
 6473TIP3    H240835   4.211   3.080   1.009 -0.5894 -0.0826  0.4808
 6474TIP3   OH240836   0.721   2.862  16.587 -0.0511 -0.9058  0.3189
 6474TIP3    H140837   0.804   2.815  16.588  0.5473  0.1159 -0.2963
 6474TIP3    H240838   0.655   2.793  16.599  0.7375 -2.0590 -1.5144
 6475TIP3   OH240839   4.694   2.738  14.801 -0.4318 -0.3472 -0.5940
 6475TIP3    H140840   4.656   2.823  14.778  0.2121  0.1160 -0.0077
 6475TIP3    H240841   4.675   2.728  14.895  1.7564  0.3961 -0.0162
 6476TIP3   OH240842   3.073   0.513   0.009 -0.1270  0.6239  0.1109
 6476TIP3    H140843   3.008   0.542   0.073  0.8875 -0.3543  1.6495
 6476TIP3    H240844   3.028   0.443  -0.039 -0.2938  0.0577  1.0563
 6477TIP3   OH240845   5.684   4.643  16.092 -0.1326  0.5260  0.1370
 6477TIP3    H140846   5.740   4.574  16.055  0.0180  2.0264 -2.6896
 6477TIP3    H240847   5.601   4.600  16.109 -0.8943 -0.0290 -3.9511
 6478TIP3   OH240848   0.954   3.155   5.081 -0.5294 -0.2358 -0.2548
 6478TIP3    H140849   1.044   3.185   5.086 -1.1578  1.8127 -0.4364
 6478TIP3    H240850   0.905   3.214   5.138 -1.4957 -2.6504  1.6205
 6479TIP3   OH240851   4.307   3.568   1.352 -0.2323  0.4124 -0.3814
 6479TIP3    H140852   4.322   3.646   1.405 -0.4939  0.1608  0.0629
 6479TIP3    H240853   4.389   3.519   1.357 -0.4223  0.1446  0.2023
 6480TIP3   OH240854   0.701   5.338   2.546 -0.1846  0.4006  0.1418
 6480TIP3    H140855   0.780   5.388   2.530 -0.6184  1.6159  1.5794
 6480TIP3    H240856   0.658   5.382   2.620 -0.3346 -2.3466  1.8585
 6481TIP3   OH240857   0.869   0.573   4.256 -0.0196 -0.1631 -0.8129
 6481TIP3    H140858   0.892   0.596   4.346 -0.3497  0.9059 -0.9829
 6481TIP3    H240859   0.774   0.556   4.259 -0.7751  3.2372 -1.5275
 6482TIP3   OH240860   2.822   4.300   3.998  0.2662 -0.5712  0.8505
 6482TIP3    H140861   2.760   4.230   3.977  0.6240 -0.8705  0.7962
 6482TIP3    H240862   2.908   4.262   3.985  0.5047  0.7363 -2.1271
 6483TIP3   OH240863   5.398   0.961  15.688  0.4892 -0.4367  0.0267
 6483TIP3    H140864   5.312   0.925  15.665  0.2110 -0.0897  0.5152
 6483TIP3    H240865   5.428   1.002  15.607  0.5510 -1.2362 -0.3736
 6484TIP3   OH240866   6.232   3.672  13.657  0.4351  0.3064 -0.2711
 6484TIP3    H140867   6.203   3.726  13.583 -1.3302  0.9620  0.8324
 6484TIP3    H240868   6.221   3.582  13.626 -2.0209  0.5310 -0.2887
 6485TIP3   OH240869   0.462   3.162   4.885 -0.0030  0.2642  0.3968
 6485TIP3    H140870   0.542   3.215   4.885 -0.8777  1.7705 -1.9185
 6485TIP3    H240871   0.485   3.083   4.837 -0.1989  1.3839 -1.6725
 6486TIP3   OH240872   0.845   0.747   5.882 -0.0472  0.1991 -0.4752
 6486TIP3    H140873   0.795   0.760   5.963 -0.4298  1.5287 -0.8962
 6486TIP3    H240874   0.931   0.784   5.902  0.0026  0.1145 -0.5329
 6487TIP3   OH240875   4.012   4.257   6.069  0.2722  0.1290  0.2422
 6487TIP3    H140876   3.925   4.258   6.110 -0.2051 -0.4977 -0.7224
 6487TIP3    H240877   4.056   4.181   6.107  0.0225 -0.1449 -0.0094
 6488TIP3   OH240878   5.095   4.108  16.402 -0.2020  0.2135 -0.0165
 6488TIP3    H140879   5.017   4.160  16.422  1.3260  2.6857 -0.0416
 6488TIP3    H240880   5.140   4.158  16.334  1.2545 -1.3012 -0.2319
 6489TIP3   OH240881   3.841   0.412   5.434  0.3032  0.0950 -0.5958
 6489TIP3    H140882   3.908   0.402   5.502 -0.5804  0.6723  0.3947
 6489TIP3    H240883   3.770   0.354   5.463 -0.9557  1.9368  0.1396
 6490TIP3   OH240884   3.797   3.171   1.914 -0.1367 -0.2594 -0.3458
 6490TIP3    H140885   3.868   3.127   1.961  0.7731 -0.0109 -1.4556
 6490TIP3    H240886   3.825   3.171   1.823 -2.3193 -1.6665 -1.1118
 6491TIP3   OH240887   2.979   0.471  11.879 -0.5570  0.1384 -0.1727
 6491TIP3    H140888   2.966   0.503  11.790  0.4452 -0.0604 -0.3982
 6491TIP3    H240889   2.955   0.378  11.875  0.6161 -0.1679 -0.5322
 6492TIP3   OH240890   0.101   3.065  13.174 -0.4806  0.4365  0.1607
 6492TIP3    H140891   0.070   3.007  13.243 -0.1144 -1.5612 -1.2781
 6492TIP3    H240892   0.024   3.114  13.147 -0.6304  1.2567  1.9212
 6493TIP3   OH240893   3.275   2.138   3.703 -0.5289 -0.3011  0.4374
 6493TIP3    H140894   3.288   2.065   3.641 -1.0094  1.0270 -1.3000
 6493TIP3    H240895   3.205   2.108   3.761  1.0238 -2.2323  1.4605
 6494TIP3   OH240896   0.813   3.974  16.250 -0.3513 -0.1646 -0.5906
 6494TIP3    H140897   0.800   3.891  16.203  1.2712  0.8488 -3.0354
 6494TIP3    H240898   0.901   3.968  16.286 -0.4917  0.2294 -0.1689
 6495TIP3   OH240899   5.198   2.005   5.337  0.0427 -0.1752  0.0665
 6495TIP3    H140900   5.165   2.089   5.369  1.1623  0.1904  0.3077
 6495TIP3    H240901   5.180   1.944   5.409 -1.3286 -0.3033 -0.3471
 6496TIP3   OH240902   5.803   1.746   6.178  0.5819  0.2747 -0.3320
 6496TIP3    H140903   5.820   1.710   6.265 -2.6312 -1.2769 -0.2186
 6496TIP3    H240904   5.799   1.841   6.192  1.8453  0.1985  0.8196
 6497TIP3   OH240905   3.853   1.697   4.016 -0.2632 -0.2360  0.1587
 6497TIP3    H140906   3.825   1.608   3.993  0.1283 -0.4764  0.6011
 6497TIP3    H240907   3.862   1.695   4.111  1.0044 -0.0992  0.0539
 6498TIP3   OH240908   5.377   2.305  16.339  0.6747 -0.4622  0.0120
 6498TIP3    H140909   5.348   2.242  16.274  0.6357 -1.3862  0.8978
 6498TIP3    H240910   5.306   2.308  16.403  1.4254 -0.8254  0.8746
 6499TIP3   OH240911   2.969   4.812   0.833  0.2392 -0.5131  0.7546
 6499TIP3    H140912   2.904   4.784   0.898 -0.0948  1.7558  1.4691
 6499TIP3    H240913   2.935   4.893   0.797  1.9631 -0.0456  0.0445
 6500TIP3   OH240914   6.603   1.905  14.253 -0.4382  0.6588  0.3120
 6500TIP3    H140915   6.602   1.809  14.244  0.2178  0.5369  1.3808
 6500TIP3    H240916   6.524   1.934  14.207 -0.0937 -0.2997 -0.9436
 6501TIP3   OH240917   2.110   1.621  11.871 -0.2786  1.1125 -0.0874
 6501TIP3    H140918   2.132   1.572  11.949  0.8428  2.6401  0.6091
 6501TIP3    H240919   2.120   1.559  11.799  0.5770  0.1998  0.7970
 6502TIP3   OH240920   3.862   1.654  11.009  0.3523 -0.4230 -0.0746
 6502TIP3    H140921   3.820   1.714  10.947  0.3865 -0.6835 -0.3480
 6502TIP3    H240922   3.948   1.636  10.972  0.8359  0.3420  0.6326
 6503TIP3   OH240923   3.546   2.137   5.663  0.6863  0.1538  0.2147
 6503TIP3    H140924   3.533   2.210   5.724 -1.7446 -1.0881  1.3306
 6503TIP3    H240925   3.513   2.060   5.711  1.0349 -1.3090 -1.7676
 6504TIP3   OH240926   5.049   1.935  11.187  0.0714  0.4833 -0.3925
 6504TIP3    H140927   5.074   1.903  11.274 -1.4449  1.4051  0.4523
 6504TIP3    H240928   4.954   1.924  11.185  0.0401  0.8653 -1.7871
 6505TIP3   OH240929   1.179   1.590  14.611 -0.3371  0.0070 -0.6769
 6505TIP3    H140930   1.272   1.606  14.598 -0.0441 -0.9621  0.1421
 6505TIP3    H240931   1.136   1.670  14.579  0.7703  0.5263 -0.9016
 6506TIP3   OH240932   4.282   4.358  15.758  0.0625  0.1166  0.1900
 6506TIP3    H140933   4.299   4.386  15.848  0.2288  0.6457 -0.0052
 6506TIP3    H240934   4.186   4.355  15.752  0.0487  0.2360  0.3382
 6507TIP3   OH240935   4.356   6.758   2.812  0.0956 -0.0461 -0.0896
 6507TIP3    H140936   4.273   6.752   2.860  1.1670  0.5444  1.9822
 6507TIP3    H240937   4.373   6.852   2.806  0.7839 -0.1737 -0.1857
 6508TIP3   OH240938   6.507   2.825  12.297 -0.2545  0.2310  0.4606
 6508TIP3    H140939   6.560   2.870  12.232 -0.3455 -0.8062 -0.3664
 6508TIP3    H240940   6.545   2.737  12.303 -2.2688 -0.7876 -0.6961
 6509TIP3   OH240941   0.459   6.054   2.051  0.0581  0.1549 -0.4075
 6509TIP3    H140942   0.499   6.112   2.116  1.8532  2.8903 -3.6204
 6509TIP3    H240943   0.527   5.990   2.031 -0.4228 -0.5661  0.2083
 6510TIP3   OH240944   1.127   4.624  15.701  0.2447 -0.0192 -0.0662
 6510TIP3    H140945   1.110   4.690  15.634 -0.0862  0.1391  0.1693
 6510TIP3    H240946   1.145   4.675  15.780 -1.6208 -0.1874  0.5155
 6511TIP3   OH240947   5.893   4.190  12.651  0.0342  0.4680  0.2679
 6511TIP3    H140948   5.836   4.115  12.672  0.6963  0.3363  1.7043
 6511TIP3    H240949   5.855   4.263  12.700  1.1244  0.3585  1.3069
 6512TIP3   OH240950   6.551   5.102  14.373 -0.3565  0.3924 -0.4113
 6512TIP3    H140951   6.573   5.194  14.385 -0.9399  0.5782 -0.6957
 6512TIP3    H240952   6.489   5.101  14.300 -1.2600 -0.0952  0.3369
 6513TIP3   OH240953   1.317   0.496  10.845  0.3896 -0.4370 -0.1119
 6513TIP3    H140954   1.312   0.494  10.750  0.0631  1.6806 -0.1695
 6513TIP3    H240955   1.273   0.577  10.871 -1.1839 -1.8347  1.9766
 6514TIP3   OH240956   5.240   3.304   6.124 -0.3796 -0.2517  0.5457
 6514TIP3    H140957   5.262   3.213   6.105  0.9821  0.0984  0.3507
 6514TIP3    H240958   5.146   3.302   6.145 -0.6096 -1.5248 -0.4774
 6515TIP3   OH240959   3.575   0.313   5.015  0.9945  0.6532 -0.2323
 6515TIP3    H140960   3.536   0.393   5.049  0.4592  0.2483  0.1250
 6515TIP3    H240961   3.562   0.248   5.085  1.0081  0.1323 -0.7046
 6516TIP3   OH240962   3.927   4.900  16.616 -0.0094 -0.4738 -0.0080
 6516TIP3    H140963   3.964   4.881  16.702  2.3420  1.2186 -0.5359
 6516TIP3    H240964   3.991   4.867  16.553 -0.8770 -0.1979 -1.0898
 6517TIP3   OH240965   4.736   4.255  11.321  0.1252  0.3620  0.1061
 6517TIP3    H140966   4.809   4.315  11.304  0.5250 -0.5919 -1.6662
 6517TIP3    H240967   4.757   4.176  11.272 -0.8520 -0.9323  1.6573
 6518TIP3   OH240968   4.101   3.085   2.881  0.0196 -0.0110 -0.5751
 6518TIP3    H140969   4.029   3.091   2.944  0.8770 -0.9634  0.5268
 6518TIP3    H240970   4.107   3.173   2.844 -1.5364  0.1490 -0.5151
 6519TIP3   OH240971   3.590   2.096   2.477  0.0394  0.4425 -0.0557
 6519TIP3    H140972   3.591   2.069   2.569 -2.4659  1.3397  0.3144
 6519TIP3    H240973   3.672   2.144   2.465  0.6729 -0.1710  1.5434
 6520TIP3   OH240974   6.417   1.795   0.376  0.1798  0.1863 -0.0563
 6520TIP3    H140975   6.431   1.700   0.376  1.3751  0.3318  1.6211
 6520TIP3    H240976   6.333   1.806   0.422  1.1437  0.0365  1.8126
 6521TIP3   OH240977   5.662   6.119  13.496 -0.3326 -0.6888  0.4593
 6521TIP3    H140978   5.661   6.024  13.507 -3.0563 -0.6771  1.1085
 6521TIP3    H240979   5.570   6.142  13.480  0.2116  1.8572  0.5669
 6522TIP3   OH240980   1.403   6.223  17.260  0.2598  0.0826  0.1184
 6522TIP3    H140981   1.322   6.254  17.300 -0.3090  1.0405 -1.6729
 6522TIP3    H240982   1.375   6.158  17.196  1.1721 -1.6208  1.3553
 6523TIP3   OH240983   6.632   4.756  11.717 -0.3193 -0.1120 -0.7977
 6523TIP3    H140984   6.670   4.758  11.629 -0.0916 -1.4888 -0.7640
 6523TIP3    H240985   6.604   4.665  11.729 -0.4037  0.0639  0.5286
 6524TIP3   OH240986   3.700   5.672   4.068 -0.5694  0.2064  0.0222
 6524TIP3    H140987   3.779   5.722   4.048  0.3911 -0.4348  1.9414
 6524TIP3    H240988   3.661   5.653   3.983 -0.6708  3.6257 -0.8311
 6525TIP3   OH240989   0.834   4.396   4.220  0.0436 -0.1746 -0.3760
 6525TIP3    H140990   0.929   4.399   4.229 -0.0955  2.2519  1.5115
 6525TIP3    H240991   0.806   4.328   4.282  0.4833  0.2073  0.2515
 6526TIP3   OH240992   5.786   2.842   3.547  0.2369 -0.2759  0.1831
 6526TIP3    H140993   5.691   2.850   3.556  0.0848 -1.2732 -0.4122
 6526TIP3    H240994   5.816   2.932   3.536 -0.6072  0.0745  0.6092
 6527TIP3   OH240995   1.327   2.354  13.954  0.5737  0.0491 -0.3197
 6527TIP3    H140996   1.293   2.273  13.916  0.4634 -0.1507  0.2056
 6527TIP3    H240997   1.381   2.392  13.884  1.5305 -1.0352 -0.2005
 6528TIP3   OH240998   0.772   0.099   4.850  0.1955 -0.8998 -0.2285
 6528TIP3    H140999   0.768   0.011   4.812  1.8347 -0.5706 -1.2907
 6528TIP3    H241000   0.756   0.158   4.776  1.4163 -0.2793 -0.0342
 6529TIP3   OH241001   3.153   5.196  11.490  0.2928 -0.3745  0.2921
 6529TIP3    H141002   3.126   5.104  11.494 -1.1580  0.0340  0.2964
 6529TIP3    H241003   3.101   5.239  11.557  1.0588  0.4513  0.3758
 6530TIP3   OH241004   0.748   3.153  12.695  0.0370  0.1260  0.5206
 6530TIP3    H141005   0.704   3.074  12.662 -0.8706 -0.5099  2.9909
 6530TIP3    H241006   0.678   3.219  12.700  0.5146  0.7121 -0.3368
 6531TIP3   OH241007   5.681   0.993   2.639 -0.4253 -0.0227  0.1229
 6531TIP3    H141008   5.597   1.024   2.671  0.2266  0.0395  1.9345
 6531TIP3    H241009   5.745   1.051   2.680  0.6238 -1.5747  0.8163
 6532TIP3   OH241010   3.116   6.631   5.763  0.4026  0.2240 -0.0586
 6532TIP3    H141011   3.115   6.604   5.672 -0.0185  0.4419 -0.1219
 6532TIP3    H241012   3.045   6.695   5.770  2.6775  2.9259 -0.3840
 6533TIP3   OH241013   6.694   3.821  11.600 -0.5291  0.0466 -0.4605
 6533TIP3    H141014   6.690   3.729  11.576 -0.2603 -0.4084  1.1261
 6533TIP3    H241015   6.636   3.829  11.675  1.6971  0.4931  1.3333
 6534TIP3   OH241016   4.595   6.494  15.118  0.3745  0.4487  0.0088
 6534TIP3    H141017   4.594   6.430  15.046 -0.1738 -0.1562  0.5395
 6534TIP3    H241018   4.523   6.553  15.097 -3.2734 -2.6019  2.5137
 6535TIP3   OH241019   1.735   5.048   5.512  0.3241 -0.5345 -0.2728
 6535TIP3    H141020   1.825   5.018   5.504  1.5035  2.3861  0.6704
 6535TIP3    H241021   1.708   5.023   5.600  0.5127 -0.6729 -0.2560
 6536TIP3   OH241022   0.241   1.849  11.649  0.2151 -0.1705 -0.1679
 6536TIP3    H141023   0.231   1.803  11.566 -1.5374  0.0535 -0.1297
 6536TIP3    H241024   0.151   1.868  11.676  0.8258  1.7951  0.6397
 6537TIP3   OH241025   2.500   0.887   2.562 -0.0903  0.1578  0.2136
 6537TIP3    H141026   2.593   0.897   2.579 -0.0843  0.8878 -0.2114
 6537TIP3    H241027   2.457   0.931   2.636 -0.0687  2.2356 -0.9416
 6538TIP3   OH241028   1.147   6.001   4.968  0.1130 -0.0193  0.0705
 6538TIP3    H141029   1.136   6.064   5.039  0.4938  0.1265  0.0024
 6538TIP3    H241030   1.227   6.029   4.924 -0.1675 -0.0592 -0.4669
 6539TIP3   OH241031   2.867   1.534   5.018 -0.2488  0.3920 -0.0867
 6539TIP3    H141032   2.883   1.527   4.924 -0.1385 -0.0195 -0.0385
 6539TIP3    H241033   2.849   1.444   5.046  0.0554  0.4595  0.3429
 6540TIP3   OH241034   3.957   6.018  14.486  0.1220  0.0094  0.0419
 6540TIP3    H141035   3.941   5.923  14.483 -0.8173  0.0725  1.5418
 6540TIP3    H241036   3.953   6.039  14.580 -2.2141  1.9136 -0.3810
 6541TIP3   OH241037   4.293   5.097   0.945 -0.4294  0.5303 -0.0229
 6541TIP3    H141038   4.272   5.151   0.870 -0.1897  2.1790  1.0507
 6541TIP3    H241039   4.209   5.086   0.991 -0.2733  1.0078  0.3882
 6542TIP3   OH241040   0.925   5.699   0.863  0.4063  0.1789 -0.8477
 6542TIP3    H141041   0.966   5.616   0.839  1.1391  0.5192 -0.7927
 6542TIP3    H241042   0.934   5.754   0.785 -1.3571 -0.2522 -1.3934
 6543TIP3   OH241043   2.626   6.039   6.057 -0.4263 -0.0930  0.1492
 6543TIP3    H141044   2.542   5.999   6.034  0.3378 -0.1105 -3.1341
 6543TIP3    H241045   2.603   6.125   6.094 -1.9463  0.5744 -2.1351
 6544TIP3   OH241046   2.156   5.137   4.817  0.0696  0.7297 -0.4249
 6544TIP3    H141047   2.180   5.200   4.885 -0.9458  1.3951 -0.6503
 6544TIP3    H241048   2.078   5.093   4.852 -0.6943  1.3554 -1.3132
 6545TIP3   OH241049   0.734   0.181  11.164  0.3661 -0.6649  0.0760
 6545TIP3    H141050   0.829   0.183  11.149  0.2151  0.5170 -0.9586
 6545TIP3    H241051   0.697   0.160  11.079 -0.3830  1.9202 -0.3347
 6546TIP3   OH241052   4.431   6.565   1.149  0.0100  0.3884  0.1472
 6546TIP3    H141053   4.348   6.583   1.105  0.3006  1.6258  0.0675
 6546TIP3    H241054   4.487   6.529   1.080 -0.4503 -0.4916  0.2109
 6547TIP3   OH241055   5.042   6.682   3.102  0.1906 -0.2393  0.5168
 6547TIP3    H141056   5.115   6.705   3.160 -0.6710 -0.4172  1.7145
 6547TIP3    H241057   5.047   6.587   3.095 -1.9921 -0.7523  3.6140
 6548TIP3   OH241058   6.238   1.834   2.809 -0.1614  0.3462 -0.7333
 6548TIP3    H141059   6.306   1.892   2.777 -0.6917  1.2987 -0.1806
 6548TIP3    H241060   6.281   1.749   2.818  1.2831  1.1821  0.7455
 6549TIP3   OH241061   4.519   6.018  17.137  0.1611  0.2582 -0.0460
 6549TIP3    H141062   4.492   6.050  17.051  1.4447 -0.1503 -0.6146
 6549TIP3    H241063   4.467   6.070  17.198 -1.0047  0.3385 -1.0580
 6550TIP3   OH241064   4.431   5.709  11.580 -0.2703  0.0325  0.0413
 6550TIP3    H141065   4.520   5.715  11.545 -0.8441 -0.1759 -1.5400
 6550TIP3    H241066   4.442   5.671  11.667  1.3727  2.0683  0.7999
 6551TIP3   OH241067   6.441   1.334  16.291 -0.1796 -0.0750  0.3158
 6551TIP3    H141068   6.462   1.397  16.360 -1.6807 -0.1556  0.8933
 6551TIP3    H241069   6.512   1.270  16.293  1.7181  1.8694 -0.6945
 6552TIP3   OH241070   1.462   3.763   5.716  0.3669 -0.2149  0.4561
 6552TIP3    H141071   1.501   3.797   5.796 -0.0849  1.4069  0.0234
 6552TIP3    H241072   1.534   3.758   5.654  0.2040  1.3702  0.0997
 6553TIP3   OH241073   1.570   1.978   5.583  0.2317  0.2306 -0.2298
 6553TIP3    H141074   1.571   1.887   5.553 -0.6571  0.3225 -0.5904
 6553TIP3    H241075   1.572   1.972   5.678  2.0047 -0.0968 -0.2521
 6554TIP3   OH241076   6.165   2.910   2.085  0.1157  0.1334 -0.7672
 6554TIP3    H141077   6.087   2.963   2.066 -0.7769 -0.8897 -0.0788
 6554TIP3    H241078   6.138   2.821   2.065  0.9051 -0.3177  0.1190
 6555TIP3   OH241079   0.938   3.393  13.499 -0.0667  0.0622 -0.3105
 6555TIP3    H141080   0.891   3.361  13.422  0.1046 -1.1896  0.0848
 6555TIP3    H241081   0.951   3.316  13.553  1.9848  0.4537 -0.1475
 6556TIP3   OH241082   3.893   0.471  11.342  0.1269  0.1975 -0.2583
 6556TIP3    H141083   3.877   0.518  11.260  0.6097  1.5168  0.3839
 6556TIP3    H241084   3.957   0.404  11.318 -1.2675 -0.8147 -1.3883
 6557TIP3   OH241085   4.130   5.402  15.115  0.6894 -0.9985  0.1067
 6557TIP3    H141086   4.201   5.375  15.173  1.2649  0.0058 -0.1010
 6557TIP3    H241087   4.160   5.378  15.028  2.2299  2.0798 -0.3720
 6558TIP3   OH241088   0.324   4.632  13.216  0.0484  0.1154 -0.1737
 6558TIP3    H141089   0.282   4.649  13.132  0.8721  1.1720 -0.3798
 6558TIP3    H241090   0.398   4.576  13.196 -0.5593 -0.7954  0.0467
 6559TIP3   OH241091   1.154   5.413   1.916 -0.2472  0.6646  0.3592
 6559TIP3    H141092   1.073   5.392   1.961 -0.2739  0.2060  0.1078
 6559TIP3    H241093   1.142   5.378   1.827  0.3276  0.3453  0.4024
 6560TIP3   OH241094   1.022   3.005  17.255 -0.1854 -0.7628  0.2175
 6560TIP3    H141095   0.949   2.948  17.280  0.6090 -1.1731  1.7269
 6560TIP3    H241096   1.098   2.967  17.299  0.6668  0.5514 -0.0653
 6561TIP3   OH241097   0.592   0.801  12.746  0.2590  0.4914  0.2572
 6561TIP3    H141098   0.542   0.871  12.787  1.0680  1.9700 -1.1567
 6561TIP3    H241099   0.526   0.741  12.711 -0.4647 -0.9035  3.6530
 6562TIP3   OH241100   3.051   0.534   1.272  0.1704  0.3879 -0.5447
 6562TIP3    H141101   3.038   0.510   1.364 -0.1891 -0.0799 -0.7137
 6562TIP3    H241102   3.083   0.625   1.275 -0.6594  0.6729  0.0067
 6563TIP3   OH241103   2.750   1.113  14.757 -0.4055 -0.0165 -0.4000
 6563TIP3    H141104   2.683   1.115  14.688 -0.8919 -2.0377 -0.0508
 6563TIP3    H241105   2.813   1.048  14.727  0.9668  1.2441 -0.3092
 6564TIP3   OH241106   2.273   5.356   4.453  0.6244 -0.0021 -0.1245
 6564TIP3    H141107   2.275   5.294   4.380 -1.2556  0.5707 -0.7143
 6564TIP3    H241108   2.313   5.309   4.525  4.5731  0.1085 -1.9505
 6565TIP3   OH241109   6.098   6.516   6.449  0.6376 -0.1153  0.5032
 6565TIP3    H141110   6.027   6.473   6.498 -1.9060  3.0157 -0.1350
 6565TIP3    H241111   6.126   6.588   6.505 -0.3499  1.7949 -1.3383
 6566TIP3   OH241112   2.466   4.985   6.532 -0.2081  0.1194 -0.1696
 6566TIP3    H141113   2.500   5.047   6.467 -0.3668  0.1397 -0.2334
 6566TIP3    H241114   2.388   4.949   6.491 -0.2756  0.0891 -0.0120
 6567TIP3   OH241115   1.316   2.075   5.556 -0.1173 -0.3656  0.3703
 6567TIP3    H141116   1.403   2.036   5.545  0.3371  0.8224 -0.5763
 6567TIP3    H241117   1.258   2.023   5.501  0.2609 -0.3895 -0.0100
 6568TIP3   OH241118   3.180   1.259  14.720 -0.2108  0.9107 -0.3748
 6568TIP3    H141119   3.244   1.278  14.652 -1.1753 -2.0709 -2.3107
 6568TIP3    H241120   3.096   1.288  14.683 -0.8477 -1.4037 -0.8927
 6569TIP3   OH241121   4.383   3.805   2.090 -0.0414  0.1139 -0.3632
 6569TIP3    H141122   4.348   3.888   2.125  0.0897 -0.2853  0.7585
 6569TIP3    H241123   4.378   3.744   2.164 -2.1016 -1.5034 -1.7179
 6570TIP3   OH241124   5.624   0.194   0.633  0.6040 -0.8631  0.0324
 6570TIP3    H141125   5.543   0.230   0.668  1.3358 -0.4017  1.3153
 6570TIP3    H241126   5.656   0.261   0.572  0.7369 -0.4023  0.5993
 6571TIP3   OH241127   2.625   0.245  17.159  0.3377 -0.5907 -0.2567
 6571TIP3    H141128   2.642   0.270  17.068 -0.4190  1.1962  0.0631
 6571TIP3    H241129   2.638   0.325  17.209 -0.0975 -1.3480  1.1145
 6572TIP3   OH241130   5.102   2.674  12.411 -0.1053  0.2219  0.4444
 6572TIP3    H141131   5.069   2.759  12.384 -1.9297 -0.3780  0.6595
 6572TIP3    H241132   5.053   2.611  12.359 -0.0319 -0.7521  1.5099
 6573TIP3   OH241133   3.739   1.452   5.684 -0.0970 -0.2918 -0.0140
 6573TIP3    H141134   3.782   1.530   5.649  0.8440 -0.8495 -0.1330
 6573TIP3    H241135   3.678   1.426   5.615 -1.0181  0.7919  0.3655
 6574TIP3   OH241136   1.091   2.591  12.758  0.6120 -0.0739 -0.3221
 6574TIP3    H141137   1.145   2.634  12.823  0.2813 -0.4537  0.2185
 6574TIP3    H241138   1.089   2.499  12.786 -1.4281  0.1583  0.4855
 6575TIP3   OH241139   4.147   5.508   3.542 -0.1297  0.0493 -0.7268
 6575TIP3    H141140   4.238   5.498   3.514 -0.4431 -0.9300 -1.4572
 6575TIP3    H241141   4.151   5.513   3.637  0.5833 -1.7377 -0.6185
 6576TIP3   OH241142   5.436   4.733  15.204 -0.0225 -0.4687 -0.9583
 6576TIP3    H141143   5.362   4.673  15.202  0.7610 -1.4792 -0.5204
 6576TIP3    H241144   5.513   4.676  15.211  0.7145  0.5920 -0.0331
 6577TIP3   OH241145   3.665   3.523  12.767 -0.6164  0.0739 -0.4781
 6577TIP3    H141146   3.620   3.472  12.834 -2.9783  0.0644 -1.9405
 6577TIP3    H241147   3.618   3.606  12.764  0.0086  0.4163 -1.4939
 6578TIP3   OH241148   3.066   3.778  14.065  0.7028 -0.0616 -0.4169
 6578TIP3    H141149   3.131   3.711  14.086  1.8996  1.9201  2.9160
 6578TIP3    H241150   3.065   3.836  14.141 -1.5691  2.7267 -2.3457
 6579TIP3   OH241151   1.728   0.751  16.752  0.2883 -0.2347  0.0039
 6579TIP3    H141152   1.635   0.754  16.731 -0.1231 -0.7884  1.6162
 6579TIP3    H241153   1.751   0.842  16.772 -0.2696 -0.2991  0.9990
 6580TIP3   OH241154   0.159   6.624  13.929 -0.1946 -0.2786  0.1558
 6580TIP3    H141155   0.137   6.566  14.002  0.9723 -0.3106  0.5069
 6580TIP3    H241156   0.228   6.680  13.963 -0.4164  0.4617 -0.5858
 6581TIP3   OH241157   5.938   3.433   6.198 -0.0600 -0.2679  0.1783
 6581TIP3    H141158   5.857   3.409   6.242  0.8328 -0.8228  1.6268
 6581TIP3    H241159   5.999   3.363   6.222  1.4798  1.2921  1.0706
 6582TIP3   OH241160   3.912   1.805   0.616 -0.3238 -0.3129 -0.1867
 6582TIP3    H141161   3.908   1.739   0.546  0.2525 -0.3120 -0.2205
 6582TIP3    H241162   4.005   1.819   0.631 -0.4452  0.1357  0.1658
 6583TIP3   OH241163   1.624   5.345  13.766 -0.7619 -0.7140 -0.5260
 6583TIP3    H141164   1.687   5.365  13.697  0.0414 -0.8439  0.1552
 6583TIP3    H241165   1.597   5.255  13.748  1.3931 -1.6941  0.7655
 6584TIP3   OH241166   1.911   1.718   2.069  0.5947 -0.4353 -0.0752
 6584TIP3    H141167   1.999   1.743   2.039  1.4473  0.7120  2.9686
 6584TIP3    H241168   1.852   1.775   2.020  1.7632  0.4574 -0.4919
 6585TIP3   OH241169   4.510   5.928   1.990 -0.0221 -0.5182  0.3706
 6585TIP3    H141170   4.531   5.975   2.071 -1.2317 -0.2127  0.5261
 6585TIP3    H241171   4.558   5.975   1.922 -1.0250  0.8344  0.5618
 6586TIP3   OH241172   1.453   0.221  12.513 -0.0816 -0.2174  0.0409
 6586TIP3    H141173   1.436   0.127  12.519  1.1454 -0.4809 -0.3885
 6586TIP3    H241174   1.378   0.256  12.465 -1.1452 -0.7821  1.2403
 6587TIP3   OH241175   1.381   4.161  13.944 -0.2937 -0.2261 -0.1208
 6587TIP3    H141176   1.290   4.164  13.973  0.0436  0.2862  0.9193
 6587TIP3    H241177   1.429   4.213  14.008  0.9607 -1.7104  0.2030
 6588TIP3   OH241178   1.261   0.975  12.703  0.8475  0.0788  0.7874
 6588TIP3    H141179   1.320   0.928  12.762 -0.0850 -0.3422  1.4127
 6588TIP3    H241180   1.173   0.951  12.733  0.3525  0.5478 -0.2324
 6589TIP3   OH241181   2.372   4.237  11.567 -0.4192 -0.1217  0.2334
 6589TIP3    H141182   2.385   4.243  11.661  0.7185 -0.4582  0.1152
 6589TIP3    H241183   2.334   4.322  11.542 -1.3090 -0.2635  1.0677
 6590TIP3   OH241184   5.243   4.556  14.757  0.2726  0.0451 -0.7738
 6590TIP3    H141185   5.198   4.630  14.716 -0.7662  1.0380  1.9314
 6590TIP3    H241186   5.332   4.587  14.773 -0.7000  1.7350  2.3197
 6591TIP3   OH241187   0.433   2.153  15.683  0.4731 -0.1827 -0.3612
 6591TIP3    H141188   0.500   2.084  15.684 -1.1377 -1.8307 -0.5774
 6591TIP3    H241189   0.393   2.146  15.596 -0.8110 -0.0904  0.2037
 6592TIP3   OH241190   5.129   1.725   3.971 -0.2376 -0.4196 -0.0526
 6592TIP3    H141191   5.215   1.683   3.975  0.2889  0.3645 -2.0059
 6592TIP3    H241192   5.097   1.705   3.884 -2.0320 -0.6136  0.6164
 6593TIP3   OH241193   5.332   0.927   5.228  0.0446 -0.3306 -0.1374
 6593TIP3    H141194   5.323   0.973   5.145  0.0717 -0.0651  0.0069
 6593TIP3    H241195   5.279   0.977   5.290  2.4758  1.3393  0.7683
 6594TIP3   OH241196   2.258   3.537  14.153  0.0507  0.0231 -0.7204
 6594TIP3    H141197   2.250   3.446  14.183  1.8643  0.4888  1.4229
 6594TIP3    H241198   2.298   3.583  14.226 -2.6537  3.0496 -0.9320
 6595TIP3   OH241199   4.947   3.551   6.053  0.3995  0.6303  0.5564
 6595TIP3    H141200   4.859   3.584   6.069  0.0723 -0.0542  0.2023
 6595TIP3    H241201   4.941   3.457   6.072  0.1205 -0.1798 -2.9476
 6596TIP3   OH241202   3.067   0.105   1.219 -0.0540 -0.8317  0.3119
 6596TIP3    H141203   3.036   0.090   1.129 -0.1000  1.0247 -0.0209
 6596TIP3    H241204   3.067   0.018   1.259  0.3748 -1.7837 -1.6128
 6597TIP3   OH241205   5.934   0.786  17.103  0.5732 -0.4452  0.3044
 6597TIP3    H141206   5.921   0.722  17.033  0.8082 -0.3552  0.1758
 6597TIP3    H241207   6.028   0.807  17.099  0.6194 -0.5521  0.7432
 6598TIP3   OH241208   6.200   4.737  11.072 -0.3828  0.4364  0.6785
 6598TIP3    H141209   6.239   4.652  11.095  0.9563  0.2315 -1.9203
 6598TIP3    H241210   6.244   4.800  11.128 -0.4490 -0.4063  1.7250
 6599TIP3   OH241211   0.374   1.303  11.691  0.1665 -0.1730 -0.2513
 6599TIP3    H141212   0.346   1.394  11.707 -0.4985 -0.3811 -0.1993
 6599TIP3    H241213   0.369   1.293  11.596 -0.6237 -0.4131 -0.1963
 6600TIP3   OH241214   2.979   0.346  16.503  0.0072 -0.0842  0.2758
 6600TIP3    H141215   2.950   0.299  16.581  0.3753 -0.2803  0.2991
 6600TIP3    H241216   3.011   0.430  16.537  1.7571 -0.8113  0.5708
 6601TIP3   OH241217   0.016   6.029  17.336  0.1484  0.1120 -0.3137
 6601TIP3    H141218   0.082   5.972  17.297  0.7208  0.0610  0.6999
 6601TIP3    H241219  -0.024   6.074  17.261  1.4934  0.3287 -0.9311
 6602TIP3   OH241220   2.598   2.226  10.887  0.1517  0.5102 -0.2041
 6602TIP3    H141221   2.623   2.316  10.866  0.3948  0.6015  0.4433
 6602TIP3    H241222   2.544   2.198  10.814  0.7800  0.8898 -0.8250
 6603TIP3   OH241223   0.421   5.813  13.852  0.4791  0.0698  0.2127
 6603TIP3    H141224   0.500   5.861  13.877  0.2614 -0.0757  1.2529
 6603TIP3    H241225   0.439   5.722  13.877  0.2788 -0.1054 -0.2649
 6604TIP3   OH241226   5.235   6.181  11.595 -0.0826 -0.5883 -0.2437
 6604TIP3    H141227   5.331   6.180  11.592 -0.0974 -1.1013 -0.8225
 6604TIP3    H241228   5.213   6.122  11.667  0.0322 -0.9836 -0.5247
 6605TIP3   OH241229   3.982   6.670  12.861  0.3724 -0.4770  0.2251
 6605TIP3    H141230   3.989   6.578  12.886  2.6499  0.1556  2.2965
 6605TIP3    H241231   4.068   6.691  12.824 -0.2337  0.7331 -0.5242
 6606TIP3   OH241232   4.398   2.597   5.648  0.1976 -0.0947 -0.8397
 6606TIP3    H141233   4.338   2.671   5.658  0.1420 -0.2859  0.2872
 6606TIP3    H241234   4.473   2.634   5.600 -0.1318  0.5196 -0.8924
 6607TIP3   OH241235   2.896   0.330  14.369 -0.2699 -0.2564  0.2252
 6607TIP3    H141236   2.954   0.393  14.327 -1.6192 -0.7250 -2.5877
 6607TIP3    H241237   2.812   0.376  14.376  0.0041 -0.0311  3.0178
 6608TIP3   OH241238   5.305   0.802   3.122  0.4346 -0.7297 -0.1614
 6608TIP3    H141239   5.355   0.759   3.053 -0.2282 -1.8995  0.0695
 6608TIP3    H241240   5.335   0.893   3.120  1.4750 -1.0748 -1.0129
 6609TIP3   OH241241   1.876   6.512   4.675  0.1285 -0.3495 -0.0278
 6609TIP3    H141242   1.961   6.511   4.631  0.6215  1.0878  0.8225
 6609TIP3    H241243   1.817   6.467   4.614  1.4991 -1.4558 -0.5942
 6610TIP3   OH241244   3.357   1.927   3.427 -0.0829  0.1922  0.3999
 6610TIP3    H141245   3.422   1.911   3.494  0.5507  0.7945 -0.0527
 6610TIP3    H241246   3.354   2.023   3.419 -0.5891  0.1495 -0.0048
 6611TIP3   OH241247   0.319   5.473  15.724 -0.0701 -0.2863  0.2237
 6611TIP3    H141248   0.349   5.470  15.814 -1.1711  1.7607  0.7329
 6611TIP3    H241249   0.318   5.566  15.702 -0.4042 -0.6980 -1.6990
 6612TIP3   OH241250   2.361   3.300  11.986 -0.3635 -0.2556 -0.1021
 6612TIP3    H141251   2.447   3.267  12.013 -0.3946 -0.6782 -0.5144
 6612TIP3    H241252   2.378   3.347  11.905 -0.1333  1.7218  1.0155
 6613TIP3   OH241253   5.616   5.968  10.522  0.5034 -0.0770 -0.0263
 6613TIP3    H141254   5.711   5.973  10.527  0.4148  0.7926  3.0673
 6613TIP3    H241255   5.586   6.058  10.533 -0.7178 -0.2675 -1.4371
 6614TIP3   OH241256   3.820   3.732   3.069  0.5883 -0.2530  0.2930
 6614TIP3    H141257   3.791   3.815   3.031 -2.6550 -0.5166  1.8297
 6614TIP3    H241258   3.883   3.697   3.006  0.1360  2.1815 -1.6600
 6615TIP3   OH241259   3.457   5.820  15.916 -0.0236  0.1072  0.4940
 6615TIP3    H141260   3.494   5.762  15.982  0.5461 -0.0876  0.0205
 6615TIP3    H241261   3.500   5.904  15.931 -1.4965  0.6880  1.7449
 6616TIP3   OH241262   6.455   2.470  16.103  0.4961 -0.2611 -0.0195
 6616TIP3    H141263   6.513   2.543  16.125  0.8472 -0.4901 -0.1603
 6616TIP3    H241264   6.511   2.393  16.111 -0.0838 -0.6009  0.9515
 6617TIP3   OH241265   3.302   3.626   0.285  0.1374 -0.2592  0.2664
 6617TIP3    H141266   3.242   3.650   0.214 -0.2488  1.5612  1.1486
 6617TIP3    H241267   3.295   3.698   0.348  2.3409 -0.5814  0.9819
 6618TIP3   OH241268   3.660   1.518  16.411  0.0683 -0.3750  0.4510
 6618TIP3    H141269   3.590   1.466  16.451 -1.1089  1.5261  1.0033
 6618TIP3    H241270   3.722   1.535  16.482  0.1431 -0.5207  0.4208
 6619TIP3   OH241271   6.484   2.211  12.524 -0.3109  0.0761 -0.1302
 6619TIP3    H141272   6.554   2.168  12.477  0.2985  0.3038  0.5547
 6619TIP3    H241273   6.528   2.264  12.590 -1.0462  1.5247 -0.7619
 6620TIP3   OH241274   2.186   4.053  12.002  0.3702 -0.3139  0.8217
 6620TIP3    H141275   2.120   4.117  11.977 -0.7178 -1.5682  0.3748
 6620TIP3    H241276   2.153   4.015  12.083  0.8942 -0.4692  0.9669
 6621TIP3   OH241277   1.766   5.631  15.009 -0.0528 -0.4839  0.3606
 6621TIP3    H141278   1.798   5.555  15.057  1.6488  0.6491  1.0928
 6621TIP3    H241279   1.838   5.656  14.952 -0.8365  0.2041 -0.3648
 6622TIP3   OH241280   4.463   4.248   3.393  0.1052  0.2207  0.0947
 6622TIP3    H141281   4.531   4.201   3.344 -0.8837 -0.8118 -0.3294
 6622TIP3    H241282   4.400   4.180   3.416 -0.1382  0.9452  1.6144
 6623TIP3   OH241283   5.025   5.196  17.102 -0.3561  0.2061 -0.6866
 6623TIP3    H141284   5.093   5.135  17.073 -1.6963 -2.6623  1.7163
 6623TIP3    H241285   5.072   5.261  17.155  0.6644 -1.1017  0.0545
 6624TIP3   OH241286   3.647   6.702  13.304 -0.2757  0.5524 -0.2865
 6624TIP3    H141287   3.654   6.759  13.380 -0.1838  0.2678 -0.0785
 6624TIP3    H241288   3.654   6.613  13.340  1.5650  0.4503 -0.7969
 6625TIP3   OH241289   5.539   3.346  15.674 -0.3825  0.2643  0.2735
 6625TIP3    H141290   5.612   3.405  15.695 -0.0042 -0.8570  2.3608
 6625TIP3    H241291   5.476   3.360  15.745 -0.1247 -2.0359  1.0435
 6626TIP3   OH241292   6.626   4.509  17.124 -0.0634 -0.1258  0.1024
 6626TIP3    H141293   6.674   4.577  17.077  0.6337 -0.5666  0.1708
 6626TIP3    H241294   6.676   4.494  17.203 -0.5091 -0.3420  0.3508
 6627TIP3   OH241295   6.574   3.682   4.749  0.1365  0.0563  0.0506
 6627TIP3    H141296   6.609   3.768   4.726 -0.8676  0.2629 -0.8011
 6627TIP3    H241297   6.603   3.668   4.839 -1.2302  2.1578  0.9214
 6628TIP3   OH241298   4.606   0.396   2.799  0.7573  0.8325  0.6902
 6628TIP3    H141299   4.627   0.488   2.815 -0.5913  1.1035  1.0618
 6628TIP3    H241300   4.575   0.363   2.883  0.6973  0.1981  0.4260
 6629TIP3   OH241301   4.134   0.882  16.734  0.5440 -0.6187  0.4856
 6629TIP3    H141302   4.158   0.817  16.668  0.5139 -0.6718  0.5268
 6629TIP3    H241303   4.047   0.857  16.763  0.0576  0.0922 -0.3075
 6630TIP3   OH241304   4.179   1.726  16.702  0.5658 -0.1877 -0.1308
 6630TIP3    H141305   4.236   1.739  16.778  1.4010 -0.0769 -0.7651
 6630TIP3    H241306   4.128   1.648  16.725  0.7958 -0.1498  0.5514
 6631TIP3   OH241307   3.049   4.387   3.053 -0.2032 -0.0924  0.2885
 6631TIP3    H141308   3.038   4.395   3.147 -0.7872 -1.7695  0.3932
 6631TIP3    H241309   2.964   4.410   3.016 -0.6314 -1.4891  0.3372
 6632TIP3   OH241310   6.262   4.252  13.737 -0.3822 -0.4254 -0.2354
 6632TIP3    H141311   6.243   4.343  13.760  1.0969 -0.2809  0.5679
 6632TIP3    H241312   6.232   4.202  13.813 -0.4809 -0.5142 -0.3346
 6633TIP3   OH241313   2.341   4.300  15.477 -0.6072  0.3703  0.0574
 6633TIP3    H141314   2.308   4.376  15.525 -0.8206  0.0587  0.4051
 6633TIP3    H241315   2.263   4.258  15.442 -0.4296  0.8268 -0.9250
 6634TIP3   OH241316   5.013   5.340  13.611 -0.2358  0.1167  0.1639
 6634TIP3    H141317   4.943   5.405  13.598 -1.3868 -0.9299  0.8178
 6634TIP3    H241318   4.966   5.259  13.634  1.1398 -0.9749 -0.6870
 6635TIP3   OH241319   5.527   3.894  16.648 -0.4114  0.2657 -0.4383
 6635TIP3    H141320   5.467   3.826  16.678  0.6532  0.0381  1.3404
 6635TIP3    H241321   5.602   3.888  16.707  1.2136  0.7951 -2.3427
 6636TIP3   OH241322   3.805   2.274   2.587 -0.0442  0.2490 -0.3281
 6636TIP3    H141323   3.756   2.244   2.663 -0.6283 -0.5312 -0.9895
 6636TIP3    H241324   3.773   2.363   2.571 -2.4679 -0.7743 -1.6688
 6637TIP3   OH241325   2.846   1.972   6.096  0.0451  0.1166 -0.7160
 6637TIP3    H141326   2.827   2.014   6.179  0.6189  0.9622 -0.9981
 6637TIP3    H241327   2.941   1.978   6.087  0.1508 -1.2629 -0.7610
 6638TIP3   OH241328   2.972   1.394   0.338  0.0655 -0.0965 -0.1833
 6638TIP3    H141329   2.929   1.451   0.274  2.5719  0.2569 -1.6731
 6638TIP3    H241330   2.997   1.317   0.287  0.4546 -0.6639  0.8432
 6639TIP3   OH241331   0.472   3.613  16.982  0.5209  0.0825  0.0019
 6639TIP3    H141332   0.536   3.545  16.964 -0.2456 -0.8319  0.6263
 6639TIP3    H241333   0.388   3.567  16.988  0.2132  0.7816  2.2433
 6640TIP3   OH241334   1.063   4.478   5.293 -0.1005  0.1952  0.4469
 6640TIP3    H141335   1.147   4.514   5.322 -0.1490  1.9810 -1.3747
 6640TIP3    H241336   1.053   4.511   5.203 -2.2828 -0.8325  0.2467
 6641TIP3   OH241337   0.822   5.496   5.982 -0.1999  0.1633 -0.2646
 6641TIP3    H141338   0.853   5.420   5.933 -0.9904 -1.3633  1.4543
 6641TIP3    H241339   0.873   5.569   5.948  2.6552 -1.5892 -0.0811
 6642TIP3   OH241340   0.191   1.833  12.233 -0.0165 -0.2331  0.7878
 6642TIP3    H141341   0.206   1.756  12.289  3.7123 -0.9010 -0.8295
 6642TIP3    H241342   0.252   1.899  12.267 -0.3000  0.5985 -0.2795
 6643TIP3   OH241343   2.637   5.257   6.171  0.5519 -0.0294 -0.2225
 6643TIP3    H141344   2.543   5.246   6.189  0.8382 -1.0848  0.7420
 6643TIP3    H241345   2.662   5.333   6.222  0.3935 -0.2745  0.2324
 6644TIP3   OH241346   3.783   3.685   2.273  0.2390 -0.1523 -0.3918
 6644TIP3    H141347   3.735   3.610   2.240  1.9367 -1.0592 -0.9153
 6644TIP3    H241348   3.875   3.661   2.263  0.8294  1.9168 -0.3728
 6645TIP3   OH241349   0.592   0.056  14.147  0.2093 -0.6109 -0.4173
 6645TIP3    H141350   0.627   0.060  14.058  0.5074  0.7404 -0.2632
 6645TIP3    H241351   0.615   0.141  14.185 -1.9270 -0.2630  0.1995
 6646TIP3   OH241352   6.251   2.347  15.649 -0.1441 -0.3563 -0.2502
 6646TIP3    H141353   6.311   2.363  15.577 -0.3147  0.6798 -0.1913
 6646TIP3    H241354   6.307   2.339  15.726 -0.0591  3.3549  0.2938
 6647TIP3   OH241355   2.211   6.064  13.839 -0.0890  0.8943  0.7504
 6647TIP3    H141356   2.302   6.093  13.832  0.5060 -1.0288 -0.1374
 6647TIP3    H241357   2.209   6.008  13.917  0.6337 -2.5685 -1.4838
 6648TIP3   OH241358   2.072   6.099   3.899  0.3672  0.2179 -0.5130
 6648TIP3    H141359   2.040   6.159   3.831  1.4308  2.4303  0.8246
 6648TIP3    H241360   2.157   6.070   3.867 -0.3988 -1.1468 -1.4368
 6649TIP3   OH241361   2.492   6.568  10.855  0.2472  0.1474 -0.3049
 6649TIP3    H141362   2.453   6.482  10.841 -0.6356  0.7435 -1.7310
 6649TIP3    H241363   2.423   6.618  10.898  0.4005  0.4289 -0.3859
 6650TIP3   OH241364   2.635   4.178  12.516  0.3164  0.9181  0.0735
 6650TIP3    H141365   2.652   4.187  12.422  2.1806  1.2316  0.3990
 6650TIP3    H241366   2.676   4.254  12.555 -0.1019  0.5827  1.1939
 6651TIP3   OH241367   2.801   0.553   4.589  0.4758 -0.0472  0.2363
 6651TIP3    H141368   2.875   0.607   4.615  0.1945 -1.0331  3.5543
 6651TIP3    H241369   2.839   0.466   4.576  0.0206 -0.5173  1.7816
 6652TIP3   OH241370   0.104   4.858   3.972 -0.3448  0.4081  0.3089
 6652TIP3    H141371   0.154   4.874   3.893  0.0386  3.0213  0.9824
 6652TIP3    H241372   0.139   4.921   4.036 -2.1401 -0.0723  1.8635
 6653TIP3   OH241373   5.815   6.680  11.396 -0.1051 -0.2364  0.2647
 6653TIP3    H141374   5.826   6.652  11.305  1.6767 -0.7380  0.5866
 6653TIP3    H241375   5.726   6.714  11.401 -0.8434 -1.8309 -1.2310
 6654TIP3   OH241376   0.897   0.970   2.930 -0.2587  0.2029  0.3503
 6654TIP3    H141377   0.805   0.978   2.907 -0.0333 -0.8396 -1.0756
 6654TIP3    H241378   0.897   0.930   3.017 -1.1399  0.8348  0.6511
 6655TIP3   OH241379   6.227   6.243   0.662  0.1280  0.0150 -0.2604
 6655TIP3    H141380   6.157   6.179   0.671 -0.1074  0.5351  2.5450
 6655TIP3    H241381   6.196   6.321   0.709  2.4782  0.2826  1.0689
 6656TIP3   OH241382   6.538   6.721   4.023  0.0480 -0.4045 -0.0343
 6656TIP3    H141383   6.586   6.804   4.022 -1.0834  0.2831  0.6871
 6656TIP3    H241384   6.557   6.684   4.109 -2.2367  0.8450  1.1046
 6657TIP3   OH241385   0.914   4.157  17.070 -0.0078  0.3356  0.7263
 6657TIP3    H141386   0.901   4.124  16.981 -1.2616  1.1640  0.5787
 6657TIP3    H241387   0.944   4.081  17.120  1.3285 -0.0056 -0.5188
 6658TIP3   OH241388   0.527   5.586   1.463  0.1861 -0.2986  0.1940
 6658TIP3    H141389   0.622   5.594   1.460  0.1055  2.0893  1.6838
 6658TIP3    H241390   0.508   5.547   1.548 -0.1924  0.1612  0.3254
 6659TIP3   OH241391   5.665   0.119   1.476  0.3017  0.4805 -0.5342
 6659TIP3    H141392   5.682   0.092   1.566  0.3690 -0.3534 -0.7908
 6659TIP3    H241393   5.748   0.157   1.446  0.3265  0.6100 -0.2978
 6660TIP3   OH241394   6.066   3.108  13.120 -0.4724 -0.4073  0.3745
 6660TIP3    H141395   6.115   3.184  13.088 -0.2835 -0.5679  0.2822
 6660TIP3    H241396   6.098   3.035  13.068 -2.7375 -0.0989 -1.6730
 6661TIP3   OH241397   2.201   6.541   2.847 -0.0080 -0.3141 -0.1202
 6661TIP3    H141398   2.262   6.523   2.776  0.7045 -0.2241  0.4570
 6661TIP3    H241399   2.201   6.636   2.856 -0.2080 -0.3153 -0.0960
 6662TIP3   OH241400   3.311   0.857   1.738  0.0571  0.5592  0.4562
 6662TIP3    H141401   3.325   0.868   1.644  2.6122 -2.4477  0.3177
 6662TIP3    H241402   3.272   0.771   1.747  0.2639  0.5999  2.1867
 6663TIP3   OH241403   0.132   5.998   4.496  0.2533  0.6344 -0.5454
 6663TIP3    H141404   0.183   6.079   4.486  0.2988  0.5562 -0.9884
 6663TIP3    H241405   0.043   6.027   4.514  0.1280  0.7919 -1.4094
 6664TIP3   OH241406   3.912   4.871   2.831 -0.5395 -0.0688  0.6326
 6664TIP3    H141407   3.851   4.930   2.875 -0.0000  1.4852 -0.5818
 6664TIP3    H241408   3.866   4.787   2.827 -1.2560  0.1948  2.5900
 6665TIP3   OH241409   1.976   5.083   0.269 -0.1559 -0.4007 -0.1699
 6665TIP3    H141410   2.008   5.166   0.235 -0.7791  0.3555  1.0055
 6665TIP3    H241411   1.997   5.086   0.362 -2.2506 -0.5182  0.3562
 6666TIP3   OH241412   3.856   1.111  11.880  0.7762 -0.4038 -0.1596
 6666TIP3    H141413   3.797   1.039  11.855  2.4414 -1.7040 -0.5194
 6666TIP3    H241414   3.837   1.127  11.972 -0.9497  0.0425 -0.5489
 6667TIP3   OH241415   3.430   3.837  13.876 -0.0638 -0.0993  0.2375
 6667TIP3    H141416   3.336   3.831  13.857 -0.5353 -0.8260  2.4974
 6667TIP3    H241417   3.454   3.750  13.907  0.9511  0.5366  1.3130
 6668TIP3   OH241418   6.311   0.654  13.102  0.2559  0.3969 -0.1017
 6668TIP3    H141419   6.247   0.693  13.161 -0.4443  1.1323 -1.3192
 6668TIP3    H241420   6.273   0.665  13.014  1.3609 -0.4869 -0.7138
 6669TIP3   OH241421   3.741   2.180  12.395  0.5654 -0.0914 -0.4563
 6669TIP3    H141422   3.788   2.263  12.394  0.6543 -0.1164  0.6067
 6669TIP3    H241423   3.809   2.114  12.385  0.5442 -0.0572 -0.8377
 6670TIP3   OH241424   0.499   5.127  14.554  0.3582 -0.3153  0.1365
 6670TIP3    H141425   0.545   5.194  14.603  2.0744 -1.0990 -0.3451
 6670TIP3    H241426   0.552   5.048  14.564 -2.3030 -2.0938  1.9070
 6671TIP3   OH241427   2.546   0.459  12.309 -0.1087  0.2163 -0.6027
 6671TIP3    H141428   2.518   0.524  12.246 -1.1325  0.2384 -0.1503
 6671TIP3    H241429   2.535   0.502  12.394 -0.3153 -0.3701 -0.3286
 6672TIP3   OH241430   2.029   2.282  16.472 -0.1309 -1.2122 -0.2215
 6672TIP3    H141431   2.083   2.304  16.548 -1.7489 -0.7425  0.8425
 6672TIP3    H241432   2.091   2.278  16.399  0.8941  3.0648  0.1728
 6673TIP3   OH241433   5.434   2.060  14.247 -0.1731  0.1977  0.1049
 6673TIP3    H141434   5.383   2.013  14.180  1.0388  1.1017 -1.5331
 6673TIP3    H241435   5.452   1.994  14.314 -1.4842 -0.7344 -0.4105
 6674TIP3   OH241436   1.679   0.578   4.927  0.1152 -0.1310  0.3356
 6674TIP3    H141437   1.673   0.530   5.010  0.0435 -0.8336 -0.0642
 6674TIP3    H241438   1.712   0.664   4.952  2.6172 -1.1287  0.8366
 6675TIP3   OH241439   0.559   5.886   4.990  0.1813 -0.0434  0.0119
 6675TIP3    H141440   0.523   5.848   5.070  0.3875  2.0593  1.1727
 6675TIP3    H241441   0.545   5.819   4.923 -1.1196 -1.3695  1.5312
 6676TIP3   OH241442   3.067   0.598  12.111  0.0896 -0.3461  0.6139
 6676TIP3    H141443   3.154   0.575  12.145  0.1520 -2.4202 -0.7296
 6676TIP3    H241444   3.061   0.550  12.028 -1.7810  0.9371 -0.0478
 6677TIP3   OH241445   3.130   5.419   0.429 -0.2889  0.3655  0.0002
 6677TIP3    H141446   3.196   5.351   0.415 -0.1211  0.3557  0.8001
 6677TIP3    H241447   3.165   5.496   0.384 -0.5276 -0.0920 -0.9979
 6678TIP3   OH241448   6.030   2.925  14.126 -0.4473  0.2011 -0.3366
 6678TIP3    H141449   6.000   2.840  14.158 -0.2541  0.1920 -0.1747
 6678TIP3    H241450   6.029   2.916  14.030  0.0100 -0.1442 -0.3161
 6679TIP3   OH241451   4.143   0.666   4.152 -0.3997 -0.2746  0.4485
 6679TIP3    H141452   4.233   0.650   4.182 -0.0433  0.5979 -0.1231
 6679TIP3    H241453   4.150   0.674   4.057 -0.4525  3.2993  0.5899
 6680TIP3   OH241454   0.461   1.048  14.839 -0.5787 -0.1489  0.3375
 6680TIP3    H141455   0.419   1.130  14.864 -0.2838  0.0046  0.3344
 6680TIP3    H241456   0.489   1.009  14.922 -1.8194 -0.8550  0.4510
 6681TIP3   OH241457   6.696   2.698  16.234 -0.3344 -0.0426 -0.1972
 6681TIP3    H141458   6.719   2.789  16.254 -2.1535  0.3005  0.5464
 6681TIP3    H241459   6.707   2.652  16.318  0.7469 -0.5746 -0.6093
 6682TIP3   OH241460   1.292   4.910  15.730 -0.1535  0.6669 -0.6298
 6682TIP3    H141461   1.276   4.921  15.636 -1.0004  0.0339 -0.5737
 6682TIP3    H241462   1.341   4.828  15.737  0.4985  1.0580 -0.5658
 6683TIP3   OH241463   3.816   5.731  11.099 -0.3162  0.7683 -0.2434
 6683TIP3    H141464   3.860   5.792  11.158 -0.7822  1.9363 -1.0549
 6683TIP3    H241465   3.866   5.736  11.018 -0.8460  0.7039 -0.5768
 6684TIP3   OH241466   6.034   2.742   3.266  0.2947 -0.4602 -0.4818
 6684TIP3    H141467   6.100   2.762   3.332 -0.1865 -1.6032  0.3986
 6684TIP3    H241468   6.054   2.799   3.192  0.5217  1.2665  0.8654
 6685TIP3   OH241469   3.683   3.711  12.382 -0.6336  0.0784  0.4648
 6685TIP3    H141470   3.642   3.704  12.295  0.4079  0.5527 -0.0850
 6685TIP3    H241471   3.636   3.783  12.425 -0.1443  0.8939 -0.3148
 6686TIP3   OH241472   4.962   5.208  15.371 -0.0059 -0.2624  0.2790
 6686TIP3    H141473   4.960   5.265  15.295  2.1964  1.1780  1.1834
 6686TIP3    H241474   4.942   5.265  15.445  1.3908 -0.7840  1.1159
 6687TIP3   OH241475   1.103   5.109  14.721  0.2392 -0.7130  0.0690
 6687TIP3    H141476   1.037   5.065  14.774  1.2364 -0.7231  1.3307
 6687TIP3    H241477   1.053   5.151  14.651 -1.1318 -0.5550  1.1102
 6688TIP3   OH241478   4.480   2.556  13.013 -0.3862  0.1752  0.4732
 6688TIP3    H141479   4.500   2.501  13.088 -1.4651 -0.0927  0.5800
 6688TIP3    H241480   4.565   2.579  12.977  0.1101 -0.7969  0.9813
 6689TIP3   OH241481   4.406   6.689   5.277 -0.3402 -0.0277 -0.3623
 6689TIP3    H141482   4.484   6.726   5.318 -0.0884 -1.8689  0.9422
 6689TIP3    H241483   4.333   6.720   5.330 -0.2576 -0.2494 -0.1156
 6690TIP3   OH241484   2.931   6.187  16.024  0.4203  0.0705  0.0982
 6690TIP3    H141485   2.869   6.257  16.003  1.6633  1.2504  0.2386
 6690TIP3    H241486   2.924   6.177  16.119 -0.0015 -0.2481  0.0377
 6691TIP3   OH241487   5.300   5.096  10.618 -0.6017  0.3293  0.3110
 6691TIP3    H141488   5.270   5.007  10.634 -0.1637  0.2801  0.8916
 6691TIP3    H241489   5.357   5.088  10.541  1.0623 -0.2689  1.5282
 6692TIP3   OH241490   4.014   3.739  15.298 -0.1025  0.1250  0.4763
 6692TIP3    H141491   4.017   3.692  15.381 -0.1909 -0.7266  0.0061
 6692TIP3    H241492   4.001   3.830  15.323 -1.6221 -0.2879  1.3518
 6693TIP3   OH241493   4.479   3.120   5.111 -0.2093 -0.2993  0.0205
 6693TIP3    H141494   4.419   3.159   5.048 -1.6746  1.0340  2.1640
 6693TIP3    H241495   4.427   3.055   5.158  0.0125  0.7438  1.7924
 6694TIP3   OH241496   4.129   1.079   4.373  0.1369 -0.3914  0.4592
 6694TIP3    H141497   4.173   1.044   4.296  2.2891  0.6005  1.1734
 6694TIP3    H241498   4.167   1.032   4.447 -0.0994  0.3884  1.0965
 6695TIP3   OH241499   1.939   1.414  10.915  0.2546 -0.0837  0.0228
 6695TIP3    H141500   1.925   1.320  10.904  0.4149 -0.0123 -0.8251
 6695TIP3    H241501   1.995   1.421  10.993  2.8349 -0.9122 -1.6152
 6696TIP3   OH241502   5.350   1.278   3.986  0.1657  0.3811 -0.2817
 6696TIP3    H141503   5.395   1.326   3.916  0.5036 -0.9158 -0.9909
 6696TIP3    H241504   5.333   1.192   3.949  0.8791 -0.5489  1.4307
 6697TIP3   OH241505   4.633   4.486  15.832 -0.5663  0.2714  0.0633
 6697TIP3    H141506   4.642   4.391  15.826 -0.4531  0.2237  0.8083
 6697TIP3    H241507   4.654   4.519  15.745  2.2898 -0.1872  0.4821
 6698TIP3   OH241508   0.553   1.038  16.168  0.3097 -0.3004 -0.0491
 6698TIP3    H141509   0.520   1.098  16.102 -0.1026  2.5825  2.5439
 6698TIP3    H241510   0.647   1.033  16.151 -0.0586 -1.3084 -2.0282
 6699TIP3   OH241511   3.332   2.568   2.876 -0.5552 -0.5805 -0.8373
 6699TIP3    H141512   3.277   2.527   2.810  1.0796 -0.3993 -2.3956
 6699TIP3    H241513   3.308   2.661   2.874 -0.6485 -0.6089 -1.0561
 6700TIP3   OH241514   0.485   0.488  13.520 -0.2920  0.2571  0.0243
 6700TIP3    H141515   0.558   0.533  13.477 -1.0132  1.7377  0.2816
 6700TIP3    H241516   0.420   0.557  13.535 -2.1186 -1.1575 -0.9526
 6701TIP3   OH241517   2.690   5.005  16.863 -0.0593 -0.0339  0.4366
 6701TIP3    H141518   2.613   5.023  16.809  0.5847  1.5718 -0.0074
 6701TIP3    H241519   2.668   5.041  16.948  1.7434  4.7482 -0.7867
 6702TIP3   OH241520   4.951   6.034   2.091 -0.6528 -0.0095 -0.1023
 6702TIP3    H141521   4.952   5.945   2.055  1.6103  1.0360 -2.9807
 6702TIP3    H241522   5.023   6.034   2.155  0.7958  0.2519 -1.6724
 6703TIP3   OH241523   0.047   0.208  14.514 -0.4901  0.0610  0.0002
 6703TIP3    H141524   0.038   0.183  14.422  0.6266 -1.0654  0.1766
 6703TIP3    H241525   0.097   0.290  14.512 -0.3500 -0.0330 -0.3782
 6704TIP3   OH241526   5.654   3.556  12.545 -0.1767  0.5369 -0.4764
 6704TIP3    H141527   5.595   3.631  12.554 -2.2528 -1.2203  1.8179
 6704TIP3    H241528   5.741   3.595  12.542 -1.0998  3.0574  1.5130
 6705TIP3   OH241529   3.859   3.614   4.707  0.0682 -0.2647  0.6395
 6705TIP3    H141530   3.837   3.590   4.798 -2.1625 -0.9342 -0.0097
 6705TIP3    H241531   3.935   3.559   4.686  1.1394  0.4766  2.3186
 6706TIP3   OH241532   1.807   3.265  11.088  0.3232 -0.5155  0.3499
 6706TIP3    H141533   1.895   3.302  11.093  0.8168 -1.8248  2.1434
 6706TIP3    H241534   1.793   3.250  10.994  0.7615  2.4530 -0.2912
 6707TIP3   OH241535   5.779   2.715  11.144 -0.6714 -0.8803  0.2341
 6707TIP3    H141536   5.688   2.685  11.147 -0.0041 -3.0875 -0.0979
 6707TIP3    H241537   5.827   2.642  11.106  0.9886  0.9254 -1.3505
 6708TIP3   OH241538   1.584   2.301  17.105 -0.3695  0.2231  0.1466
 6708TIP3    H141539   1.645   2.355  17.055  0.7431 -1.4123 -0.3531
 6708TIP3    H241540   1.637   2.262  17.174 -1.2116 -0.0127  0.6715
 6709TIP3   OH241541   5.517   5.179   2.635  0.0071 -1.3263  0.2000
 6709TIP3    H141542   5.509   5.273   2.653 -0.7414 -1.5441  1.1400
 6709TIP3    H241543   5.597   5.153   2.681  0.8146 -0.9661 -0.9589
 6710TIP3   OH241544   4.756   0.581   4.099  0.3058  0.1675  0.0161
 6710TIP3    H141545   4.805   0.570   4.180  0.3814 -1.0507 -0.1717
 6710TIP3    H241546   4.721   0.494   4.081 -0.1658  0.5509 -0.9700
 6711TIP3   OH241547   6.294   6.637  16.050  0.1071  0.0669  0.2003
 6711TIP3    H141548   6.291   6.705  16.117  0.4722  1.3726 -1.0595
 6711TIP3    H241549   6.255   6.678  15.973  0.4195 -1.1358 -0.6226
 6712TIP3   OH241550   0.274   4.069  16.393 -0.0818 -0.2172 -0.1177
 6712TIP3    H141551   0.258   4.148  16.445  1.0679 -0.1618  0.1794
 6712TIP3    H241552   0.346   4.092  16.335  1.4900 -1.5644  1.1994
 6713TIP3   OH241553   4.145   1.231  15.854 -0.5400 -0.8248 -0.6911
 6713TIP3    H141554   4.080   1.252  15.922  0.8625  0.5510  0.2936
 6713TIP3    H241555   4.209   1.176  15.898  0.9446  0.9353 -0.5349
 6714TIP3   OH241556   5.997   5.058  12.703  0.5281  0.2520  0.4659
 6714TIP3    H141557   5.961   5.145  12.722 -1.0456 -0.4610  0.8863
 6714TIP3    H241558   5.952   5.030  12.624 -0.7588 -1.1457  1.6485
 6715TIP3   OH241559   4.774   0.934  16.949  0.2050 -0.1499  0.3495
 6715TIP3    H141560   4.693   0.891  16.979 -0.5906 -0.1265 -1.6159
 6715TIP3    H241561   4.754   1.027  16.950 -0.6923 -0.2315 -2.3401
 6716TIP3   OH241562   6.049   6.511   5.120 -0.2625 -0.1487  0.5770
 6716TIP3    H141563   6.008   6.589   5.083  1.3821  0.2334 -0.5592
 6716TIP3    H241564   6.012   6.504   5.208 -1.1056  1.3884  0.3792
 6717TIP3   OH241565   4.752   2.356  14.276  0.3355 -0.0115 -0.5860
 6717TIP3    H141566   4.785   2.362  14.186 -1.8436 -0.2820 -1.4634
 6717TIP3    H241567   4.676   2.298  14.270 -1.7923  2.4436  0.8131
 6718TIP3   OH241568   6.035   6.743  12.259 -0.3524 -0.1053 -0.6109
 6718TIP3    H141569   6.062   6.835  12.255  0.7319 -0.3790  0.0079
 6718TIP3    H241570   6.073   6.704  12.180 -0.8325 -0.0220 -0.8860
 6719TIP3   OH241571   6.498   4.879  14.823  0.1218 -0.4069 -0.0827
 6719TIP3    H141572   6.432   4.829  14.872 -0.4189 -0.4951 -0.8778
 6719TIP3    H241573   6.447   4.933  14.762  0.7553  0.1634 -0.1248
 6720TIP3   OH241574   5.708   3.324  12.135  0.6838  0.1832  0.6598
 6720TIP3    H141575   5.688   3.350  12.225 -0.2396 -1.7115  1.0651
 6720TIP3    H241576   5.788   3.271  12.143  0.9845  0.5737  0.2622
 6721TIP3   OH241577   5.623   0.986  14.889  0.2805 -0.1671 -0.5017
 6721TIP3    H141578   5.532   0.991  14.919  0.7466  0.2725  0.9417
 6721TIP3    H241579   5.675   0.991  14.969  1.6479  2.0854 -1.4114
 6722TIP3   OH241580   1.301   5.341  14.305  0.0529 -0.2631 -0.0153
 6722TIP3    H141581   1.356   5.320  14.230  1.8034  1.3400  0.7314
 6722TIP3    H241582   1.277   5.433  14.293  1.8721  0.5894  2.1876
 6723TIP3   OH241583   3.130   3.132  14.657 -0.9233  0.0083  0.2761
 6723TIP3    H141584   3.046   3.094  14.683 -0.8867 -1.2289 -1.2558
 6723TIP3    H241585   3.129   3.130  14.561  1.8471 -2.5238  0.1488
 6724TIP3   OH241586   1.471   5.926   6.780 -0.3541  0.5707 -0.2621
 6724TIP3    H141587   1.531   5.853   6.763  0.0485  1.0211 -0.7913
 6724TIP3    H241588   1.398   5.912   6.718 -1.2856 -0.5044  1.0221
 6725TIP3   OH241589   2.958   1.395   0.857  0.0241 -0.0766  0.7202
 6725TIP3    H141590   3.046   1.416   0.888 -0.7255  0.4082  2.6903
 6725TIP3    H241591   2.902   1.409   0.933 -1.9695  0.9656 -0.8269
 6726TIP3   OH241592   3.700   3.057   4.891  0.1238 -0.0130  0.0245
 6726TIP3    H141593   3.628   3.120   4.881  0.8167  0.6015 -1.3588
 6726TIP3    H241594   3.725   3.035   4.801  0.7069 -1.3632  0.4828
 6727TIP3   OH241595   3.296   4.506   4.282  0.0307  0.1413  0.6898
 6727TIP3    H141596   3.291   4.537   4.372  2.0255  0.8015  0.6070
 6727TIP3    H241597   3.386   4.522   4.256 -0.5406  0.0597 -1.4788
 6728TIP3   OH241598   6.376   1.498   5.130 -0.5554  0.3228  0.1384
 6728TIP3    H141599   6.375   1.469   5.039 -0.8626  1.8429 -0.3730
 6728TIP3    H241600   6.420   1.583   5.128 -1.4679  0.8561  1.2503
 6729TIP3   OH241601   2.246   4.133  16.829  0.3581 -0.5478  0.0648
 6729TIP3    H141602   2.294   4.131  16.746 -1.0714 -2.1967 -0.8018
 6729TIP3    H241603   2.173   4.193  16.812 -0.7007 -1.8987 -0.3954
 6730TIP3   OH241604   4.107   1.488   4.487 -0.5540  0.7629  0.5442
 6730TIP3    H141605   4.104   1.396   4.464 -0.4069  0.9042 -0.0415
 6730TIP3    H241606   4.050   1.495   4.564 -0.1306  0.0940  0.9256
 6731TIP3   OH241607   6.034   2.107  12.513  0.0698 -0.6935  0.2830
 6731TIP3    H141608   6.005   2.166  12.444  0.4681 -0.2005  0.5295
 6731TIP3    H241609   6.037   2.021  12.471 -1.7323 -0.7807  0.2572
 6732TIP3   OH241610   2.187   4.621   1.070  0.3384  0.4278  0.1119
 6732TIP3    H141611   2.193   4.525   1.070  0.1330  0.4141  0.1088
 6732TIP3    H241612   2.278   4.651   1.072  0.4023  0.2198  1.4611
 6733TIP3   OH241613   6.267   3.104  12.642 -0.0812  0.3636 -0.3890
 6733TIP3    H141614   6.341   3.165  12.647  0.2755 -0.1550  2.6190
 6733TIP3    H241615   6.304   3.023  12.608  0.8916  0.0097  1.3959
 6734TIP3   OH241616   1.540   1.986  10.896 -0.1529  0.4042 -0.7339
 6734TIP3    H141617   1.563   2.073  10.929  0.6050 -0.7615  2.0882
 6734TIP3    H241618   1.623   1.940  10.889 -0.6626 -0.5618 -0.6483
 6735TIP3   OH241619   3.856   4.237   2.753  0.2953 -0.0489 -0.1308
 6735TIP3    H141620   3.867   4.152   2.711  1.3665 -0.2212  0.4532
 6735TIP3    H241621   3.887   4.301   2.689  0.5392 -0.1904 -0.1536
 6736TIP3   OH241622   4.163   4.441  11.766 -0.0102 -0.6378 -0.2909
 6736TIP3    H141623   4.255   4.466  11.779  0.7927 -2.1563 -2.4839
 6736TIP3    H241624   4.114   4.511  11.809  2.1367 -0.1652  1.6298
 6737TIP3   OH241625   3.616   3.422   2.731 -0.6243 -0.1370 -0.1432
 6737TIP3    H141626   3.658   3.483   2.670 -2.5521 -0.1527 -1.6054
 6737TIP3    H241627   3.524   3.448   2.730 -1.1937 -1.9664  0.5662
 6738TIP3   OH241628   1.999   2.345  14.323  0.2120  0.2108  0.0006
 6738TIP3    H141629   2.083   2.390  14.317 -0.5511  1.6333 -0.3410
 6738TIP3    H241630   1.941   2.408  14.367 -0.7134 -0.6926  0.1145
 6739TIP3   OH241631   1.951   6.661  11.734  0.9088  0.2540 -0.1247
 6739TIP3    H141632   1.952   6.570  11.766  0.5524  0.5660  0.7988
 6739TIP3    H241633   2.009   6.708  11.795 -0.7180  1.1023  0.8556
 6740TIP3   OH241634   6.421   1.750  15.390  0.2852  0.3171 -0.0283
 6740TIP3    H141635   6.392   1.761  15.300 -1.9219  0.4390  0.6574
 6740TIP3    H241636   6.411   1.836  15.430  2.8847  0.7139 -0.0386
 6741TIP3   OH241637   0.936   0.582  15.700  0.5111  0.0234  0.0616
 6741TIP3    H141638   0.842   0.571  15.693  0.4581  0.5301 -0.0276
 6741TIP3    H241639   0.949   0.646  15.770  0.7736  0.1440 -0.0903
 6742TIP3   OH241640   4.746   3.121  16.013 -0.5181 -0.7653  0.5161
 6742TIP3    H141641   4.732   3.207  15.973  2.1567 -0.1951  0.5862
 6742TIP3    H241642   4.667   3.105  16.065 -1.0490  1.7172  0.5985
 6743TIP3   OH241643   2.441   0.342   2.943  0.6887 -0.5570  0.0494
 6743TIP3    H141644   2.394   0.424   2.930  0.0800 -0.8680  0.2955
 6743TIP3    H241645   2.530   0.361   2.913  0.0440 -0.4184 -1.9286
 6744TIP3   OH241646   3.406   0.442  16.909 -0.1401 -0.7136  0.5395
 6744TIP3    H141647   3.444   0.472  16.826  0.1557 -0.6619  0.6919
 6744TIP3    H241648   3.399   0.347  16.898 -1.9498 -0.5360 -0.3060
 6745TIP3   OH241649   0.513   1.011   7.020  0.0827 -0.5392  0.0507
 6745TIP3    H141650   0.593   1.028   7.071 -0.7091 -0.5256  1.3318
 6745TIP3    H241651   0.527   0.924   6.983 -0.1774 -1.5349  2.0975
 6746TIP3   OH241652   4.181   4.602  14.926  0.2876 -0.2111 -0.0495
 6746TIP3    H141653   4.117   4.623  14.858  0.9811  1.4058 -0.2333
 6746TIP3    H241654   4.213   4.514  14.902 -1.5862 -0.9184 -0.1201
 6747TIP3   OH241655   1.545   5.507   3.289 -0.0100 -0.2936 -0.3818
 6747TIP3    H141656   1.560   5.438   3.224 -1.1361  0.2588 -1.2472
 6747TIP3    H241657   1.633   5.533   3.317  0.4455 -1.5550 -0.5926
 6748TIP3   OH241658   6.574   6.038  12.527 -0.1124  0.8289  0.0891
 6748TIP3    H141659   6.570   6.098  12.601 -0.0106  1.6114 -0.5232
 6748TIP3    H241660   6.505   6.067  12.468  0.1926  0.5962 -0.3953
 6749TIP3   OH241661   5.100   3.623  16.511  0.6477 -0.2981  0.4246
 6749TIP3    H141662   5.134   3.644  16.597  0.8408 -0.5377  0.4042
 6749TIP3    H241663   5.046   3.699  16.488 -0.1800 -0.6428  1.1583
 6750TIP3   OH241664   0.944   3.703  13.355 -0.5413  0.0259  0.5552
 6750TIP3    H141665   1.010   3.648  13.312 -0.7329  0.5914 -0.5006
 6750TIP3    H241666   0.995   3.769  13.401 -0.3455 -0.0710  0.4801
 6751TIP3   OH241667   4.121   3.225   3.362 -0.1631 -0.2880  0.8064
 6751TIP3    H141668   4.138   3.132   3.378  1.4555  0.1117  1.5586
 6751TIP3    H241669   4.207   3.262   3.341 -1.1699  0.4685 -2.7062
 6752TIP3   OH241670   3.950   3.599   6.548 -0.0732  0.3282 -0.7332
 6752TIP3    H141671   3.884   3.534   6.523 -0.3431 -0.1834  1.1431
 6752TIP3    H241672   3.983   3.634   6.465 -2.8066  0.7263 -1.7265
 6753TIP3   OH241673   2.907   3.991   4.458  0.0779 -0.1017 -0.0157
 6753TIP3    H141674   2.899   4.059   4.524 -0.9027 -1.4194  1.2768
 6753TIP3    H241675   2.998   3.961   4.465  1.0266  2.0373 -1.6795
 6754TIP3   OH241676   0.912   4.047  14.771  0.4471  0.1083  0.3765
 6754TIP3    H141677   0.965   4.110  14.820  0.9007  0.9846 -1.2051
 6754TIP3    H241678   0.859   4.100  14.712  1.0828 -0.9737 -1.2476
 6755TIP3   OH241679   5.383   0.440  15.709  0.1132  0.1678 -0.1035
 6755TIP3    H141680   5.390   0.399  15.795 -2.0736  2.3821  1.2901
 6755TIP3    H241681   5.438   0.518  15.716 -1.7152  1.5102  0.1690
 6756TIP3   OH241682   1.908   3.519  16.883  0.9375  0.7083  0.1193
 6756TIP3    H141683   1.896   3.425  16.874 -0.4202  0.9186 -0.5742
 6756TIP3    H241684   1.971   3.543  16.816  1.0015  0.3444  0.0519
 6757TIP3   OH241685   1.078   5.122   2.005 -0.2573 -0.0448 -0.2348
 6757TIP3    H141686   1.153   5.174   1.977 -0.1563 -0.5466 -0.9433
 6757TIP3    H241687   1.011   5.187   2.028  0.3562  0.4020  0.3106
 6758TIP3   OH241688   0.446   5.304   1.928  0.4271  0.3057  0.3003
 6758TIP3    H141689   0.450   5.209   1.926  2.0570  0.3381  0.6726
 6758TIP3    H241690   0.352   5.324   1.927  0.0632 -1.2407 -1.4773
 6759TIP3   OH241691   5.521   4.708  12.702  0.6711 -0.5431 -0.1320
 6759TIP3    H141692   5.511   4.767  12.627  1.6959  0.5532  0.5490
 6759TIP3    H241693   5.571   4.634  12.668  0.4745 -0.4213 -0.7005
 6760TIP3   OH241694   5.051   0.474   2.045  0.1562 -0.9322  0.4018
 6760TIP3    H141695   5.131   0.478   2.097  0.4708  0.5701 -0.1708
 6760TIP3    H241696   5.037   0.380   2.031  2.4212 -1.2259 -0.4054
 6761TIP3   OH241697   0.929   6.003  13.948 -0.1990 -0.4395 -0.3987
 6761TIP3    H141698   1.019   6.026  13.922 -0.6386  1.6597 -0.2174
 6761TIP3    H241699   0.936   5.977  14.040  0.1008  0.7585 -0.0634
 6762TIP3   OH241700   3.845   3.221   5.074  0.0905 -0.4520 -0.2721
 6762TIP3    H141701   3.940   3.208   5.070  0.2429  0.7508 -1.3040
 6762TIP3    H241702   3.809   3.143   5.031  0.6470 -0.6211 -0.4455
 6763TIP3   OH241703   4.492   3.083  15.406 -0.0170  0.1352 -0.0006
 6763TIP3    H141704   4.446   3.116  15.328  0.0887 -0.0859 -0.1561
 6763TIP3    H241705   4.449   3.000  15.426 -0.3862  0.4355  0.4861
 6764TIP3   OH241706   0.096   4.906  17.340  0.0756  0.3666  0.3108
 6764TIP3    H141707   0.102   4.974  17.406  1.3207 -0.0885  0.7114
 6764TIP3    H241708   0.183   4.864  17.341 -0.7519 -1.4451  0.3381
 6765TIP3   OH241709   1.412   6.432  15.817 -0.7025 -0.4605 -0.1333
 6765TIP3    H141710   1.489   6.379  15.838 -0.3401 -0.2527 -0.8943
 6765TIP3    H241711   1.446   6.503  15.763 -1.3438 -0.0321  0.0235
 6766TIP3   OH241712   2.422   5.886  10.652  0.3314  0.2061  0.5223
 6766TIP3    H141713   2.400   5.837  10.731 -0.9230  0.1761  0.1728
 6766TIP3    H241714   2.511   5.857  10.630 -0.3016 -1.8170  0.4155
 6767TIP3   OH241715   4.062   0.877   6.071 -0.0940  0.3486 -0.3786
 6767TIP3    H141716   4.120   0.953   6.069  1.1733 -0.5943 -1.5323
 6767TIP3    H241717   4.018   0.882   6.155  0.0856  2.2565 -0.3561
 6768TIP3   OH241718   3.325   5.249  15.789 -0.4014  0.5955 -0.2624
 6768TIP3    H141719   3.340   5.197  15.868 -1.3940  0.0681 -0.4110
 6768TIP3    H241720   3.391   5.217  15.726 -0.2619  0.3189  0.0235
 6769TIP3   OH241721   2.846   5.972  11.978  0.4591 -1.3676  0.2978
 6769TIP3    H141722   2.765   5.975  12.029  0.9369  1.0478  1.0543
 6769TIP3    H241723   2.912   5.943  12.040  0.7423 -0.0446  0.6425
 6770TIP3   OH241724   2.214   6.212  14.614  0.1832 -0.1988 -0.4901
 6770TIP3    H141725   2.266   6.175  14.543  0.6978 -2.3935  0.9394
 6770TIP3    H241726   2.279   6.236  14.681 -0.4509 -0.4184  0.2151
 6771TIP3   OH241727   0.826   1.939  16.458  0.8681  0.1679  0.4293
 6771TIP3    H141728   0.848   2.019  16.507  0.3209  0.2637  0.5230
 6771TIP3    H241729   0.746   1.907  16.499  0.0138  0.6176 -0.8105
 6772TIP3   OH241730   4.776   2.742  12.748  0.2833  0.4423 -0.6232
 6772TIP3    H141731   4.786   2.828  12.707 -0.9425  0.6521 -0.5271
 6772TIP3    H241732   4.736   2.688  12.680  1.2758 -0.1434 -0.7658
 6773TIP3   OH241733   0.677   1.829  13.904 -0.0963 -0.7249  0.2763
 6773TIP3    H141734   0.728   1.805  13.827  0.4120  1.3494 -0.0862
 6773TIP3    H241735   0.742   1.845  13.972 -0.4356 -0.6065  0.5786
 6774TIP3   OH241736   1.075   2.533   5.127 -0.4500  0.3326  0.2766
 6774TIP3    H141737   1.117   2.596   5.068  1.3902  0.7570  1.9556
 6774TIP3    H241738   1.140   2.515   5.194 -1.4333 -2.3400  0.6352
 6775TIP3   OH241739   1.221   1.751  15.079  0.0279  0.1111  0.1077
 6775TIP3    H141740   1.224   1.833  15.127 -0.1405 -0.6371  1.4644
 6775TIP3    H241741   1.264   1.688  15.136  0.4563 -0.6865 -1.0535
 6776TIP3   OH241742   3.763   2.529  16.912 -0.3745  0.1469 -0.5270
 6776TIP3    H141743   3.686   2.511  16.858 -0.6869 -0.4260  0.0934
 6776TIP3    H241744   3.805   2.444  16.922 -0.4534  0.2063  0.3282
 6777TIP3   OH241745   6.591   0.687   1.314 -0.6396  0.3801  0.1252
 6777TIP3    H141746   6.632   0.711   1.397  1.7221 -1.7150 -0.3482
 6777TIP3    H241747   6.540   0.765   1.290  0.1493  1.7584  2.5526
 6778TIP3   OH241748   0.082   3.760   4.037  0.1087 -0.5154 -0.3991
 6778TIP3    H141749   0.165   3.715   4.050  0.6339  0.1975 -1.2026
 6778TIP3    H241750   0.034   3.703   3.976 -0.3150 -1.2994  0.6310
 6779TIP3   OH241751   0.126   0.406   0.716  0.6828 -0.4861 -0.2568
 6779TIP3    H141752   0.159   0.396   0.626  0.0706  0.0961 -0.5549
 6779TIP3    H241753   0.118   0.501   0.728  1.7279 -0.5023  0.7786
 6780TIP3   OH241754   5.492   1.140  17.128  0.1483  0.3977  0.3164
 6780TIP3    H141755   5.515   1.141  17.035 -0.8879  1.1518  0.0486
 6780TIP3    H241756   5.532   1.220  17.163 -1.2994  1.2800  0.0266
 6781TIP3   OH241757   0.069   3.158   3.586  0.1629  0.4575 -0.0426
 6781TIP3    H141758   0.020   3.078   3.606  0.0471  0.8151  1.2588
 6781TIP3    H241759   0.031   3.223   3.645  0.3714  1.4289 -0.9613
 6782TIP3   OH241760   2.841   4.368   1.636 -0.4511  0.3307 -0.0954
 6782TIP3    H141761   2.795   4.295   1.677  0.2584  0.1173  0.3333
 6782TIP3    H241762   2.929   4.334   1.618 -0.7602  0.3687 -1.9004
 6783TIP3   OH241763   6.432   3.076   5.832  0.1828  0.0397 -0.3057
 6783TIP3    H141764   6.344   3.102   5.860 -0.9833 -3.8209  0.2360
 6783TIP3    H241765   6.424   3.062   5.738  1.2761  2.9704 -0.9313
 6784TIP3   OH241766   5.958   4.353  14.490 -0.1107 -0.1121 -0.1465
 6784TIP3    H141767   6.015   4.353  14.567 -1.0826  3.7065  0.7563
 6784TIP3    H241768   5.876   4.314  14.521 -1.0983  2.9221  1.4383
 6785TIP3   OH241769   4.245   4.791  17.302  0.2885  0.3381  0.2303
 6785TIP3    H141770   4.311   4.795  17.372  1.8985  1.0515 -1.2441
 6785TIP3    H241771   4.255   4.703  17.265  0.0755  0.2738  0.3291
 6786TIP3   OH241772   3.311   3.967  15.845 -0.1170 -0.5370  0.0616
 6786TIP3    H141773   3.321   3.885  15.893  1.0122 -1.1228 -1.1112
 6786TIP3    H241774   3.369   4.029  15.890  0.7306 -1.0077 -0.3562
 6787TIP3   OH241775   4.226   5.612   5.705 -0.1233 -0.2388  0.0946
 6787TIP3    H141776   4.277   5.636   5.783 -0.3142 -0.0302  0.1550
 6787TIP3    H241777   4.179   5.692   5.682 -0.0241 -0.2854 -0.2688
 6788TIP3   OH241778   2.204   2.307   3.914  0.1834  0.5661  0.5070
 6788TIP3    H141779   2.142   2.374   3.942  0.2175 -0.1410  2.4564
 6788TIP3    H241780   2.211   2.249   3.990 -0.5498 -2.1840 -1.3984
 6789TIP3   OH241781   1.655   1.604   1.264 -0.0135  0.7199  0.5109
 6789TIP3    H141782   1.591   1.533   1.271  0.6185  0.1303  0.3763
 6789TIP3    H241783   1.652   1.629   1.172  1.2358 -0.5344  0.1073
 6790TIP3   OH241784   0.496   1.929  15.937 -0.0413  0.3495  0.1285
 6790TIP3    H141785   0.469   1.838  15.931  1.1991 -0.2290  2.1985
 6790TIP3    H241786   0.549   1.944  15.860 -0.2950 -0.6645 -0.2560
 6791TIP3   OH241787   5.272   5.034  14.146  0.2943  0.6101 -0.2192
 6791TIP3    H141788   5.344   5.096  14.141  1.0356 -0.2423 -0.3943
 6791TIP3    H241789   5.299   4.970  14.212  0.4649 -0.6613 -1.4822
 6792TIP3   OH241790   5.793   3.108   1.767 -0.0790  0.4624  0.2180
 6792TIP3    H141791   5.743   3.027   1.758  0.9026 -0.2934  1.1877
 6792TIP3    H241792   5.812   3.135   1.677  0.0521 -0.7074 -0.1167
 6793TIP3   OH241793   2.083   1.877   6.044 -0.0612 -0.5008  0.0683
 6793TIP3    H141794   2.131   1.870   5.961  2.6875  0.2951  1.4703
 6793TIP3    H241795   2.070   1.786   6.071 -2.6140 -0.8655 -1.9865
 6794TIP3   OH241796   5.868   2.444  16.730  0.6779 -0.9989  0.6988
 6794TIP3    H141797   5.922   2.517  16.701 -2.2246  1.7699  1.7596
 6794TIP3    H241798   5.853   2.392  16.651  1.5460  0.4075 -0.4298
 6795TIP3   OH241799   5.635   0.632   0.198  0.2702 -0.6373 -0.3456
 6795TIP3    H141800   5.649   0.538   0.184  1.1713 -0.4400 -0.8776
 6795TIP3    H241801   5.646   0.671   0.111  1.0472  0.0803  0.0588
 6796TIP3   OH241802   4.410   5.172  11.113 -0.6607  0.1185  0.0252
 6796TIP3    H141803   4.353   5.176  11.036 -0.8878 -0.2209  0.1766
 6796TIP3    H241804   4.354   5.200  11.185 -0.8582 -0.9623  0.3000
 6797TIP3   OH241805   3.848   1.765  16.840  0.4893  0.1645 -0.8903
 6797TIP3    H141806   3.807   1.775  16.927  0.3951  0.6532 -0.9920
 6797TIP3    H241807   3.908   1.691  16.851 -0.4414 -0.6001 -0.7449
 6798TIP3   OH241808   2.689   3.679  13.252  0.7180 -0.1427 -0.0342
 6798TIP3    H141809   2.634   3.602  13.241  0.5771  0.0701 -0.9063
 6798TIP3    H241810   2.648   3.729  13.323  0.0658 -0.2267 -0.3463
 6799TIP3   OH241811   2.002   0.250   1.157  0.2402 -0.1056  0.0843
 6799TIP3    H141812   2.051   0.227   1.235 -0.2829  0.7896  0.6923
 6799TIP3    H241813   1.912   0.222   1.176  0.2106 -0.3541 -0.4058
 6800TIP3   OH241814   6.608   0.204   4.075  0.6194 -0.3351  0.1866
 6800TIP3    H141815   6.612   0.272   4.142 -0.0477  0.1407 -0.2359
 6800TIP3    H241816   6.696   0.166   4.073  0.3418 -1.1831  2.1535
 6801TIP3   OH241817   5.993   3.593  12.758 -0.3895 -0.0990  0.8705
 6801TIP3    H141818   6.089   3.587  12.756 -0.3534  0.4934 -0.7950
 6801TIP3    H241819   5.967   3.591  12.666 -2.0959 -1.6067  1.3221
 6802TIP3   OH241820   6.082   6.390   2.963 -0.1201  0.0695  0.1884
 6802TIP3    H141821   6.139   6.461   2.932  0.4998 -0.7531 -0.6336
 6802TIP3    H241822   6.138   6.339   3.021 -0.4676  0.0571  0.5183
 6803TIP3   OH241823   4.138   0.344   4.135 -0.0790  0.2946  0.8531
 6803TIP3    H141824   4.104   0.400   4.204 -0.9768  0.3067  0.4235
 6803TIP3    H241825   4.117   0.391   4.054 -1.8546 -1.1250  0.4162
 6804TIP3   OH241826   4.534   3.972   0.592  0.8830  0.2693  0.2615
 6804TIP3    H141827   4.532   4.024   0.512 -2.0314 -0.2084 -0.0871
 6804TIP3    H241828   4.554   3.883   0.563  0.0234  0.1340  0.0614
 6805TIP3   OH241829   0.333   5.321   6.010  0.7019  0.2524  0.4745
 6805TIP3    H141830   0.405   5.352   6.066  1.3034  0.4468 -0.3826
 6805TIP3    H241831   0.275   5.273   6.070  1.3326  0.4416  1.2588
 6806TIP3   OH241832   0.006   0.815   2.068  0.4908 -0.0630  0.3566
 6806TIP3    H141833  -0.013   0.822   1.974  0.9120 -0.0040  0.2739
 6806TIP3    H241834   0.089   0.768   2.072  0.0848 -0.7643  0.7301
 6807TIP3   OH241835   1.688   6.418  11.768  0.1787 -0.3180  0.3632
 6807TIP3    H141836   1.728   6.475  11.702  0.9434  0.6948  1.6490
 6807TIP3    H241837   1.667   6.337  11.721  1.7983 -0.0751 -0.8489
 6808TIP3   OH241838   3.763   4.662   6.062  0.1929 -0.1785  0.2129
 6808TIP3    H141839   3.842   4.678   6.011 -0.1597  0.6218 -0.0919
 6808TIP3    H241840   3.795   4.639   6.149  0.8107 -1.7390 -0.3718
 6809TIP3   OH241841   3.340   3.172  11.693 -0.1314 -0.2263 -0.3871
 6809TIP3    H141842   3.427   3.157  11.730  0.4612 -0.4048 -1.7720
 6809TIP3    H241843   3.288   3.096  11.720  0.5644 -0.8342 -0.7180
 6810TIP3   OH241844   3.590   3.705   2.042  0.2287 -0.0545 -0.3435
 6810TIP3    H141845   3.661   3.752   1.997 -0.2967 -1.6262 -3.0320
 6810TIP3    H241846   3.622   3.615   2.051 -0.8015 -0.4136 -0.0895
 6811TIP3   OH241847   5.907   0.043  11.051  0.1913  0.4722 -0.0348
 6811TIP3    H141848   5.839   0.058  10.985 -0.0078  0.6699  0.2154
 6811TIP3    H241849   5.961   0.122  11.048  0.0560  0.5730  0.1901
 6812TIP3   OH241850   2.133   0.175  15.702  0.0852 -0.2591 -0.1233
 6812TIP3    H141851   2.127   0.104  15.766 -0.3952 -0.3344 -0.2473
 6812TIP3    H241852   2.074   0.148  15.632  0.5690 -0.1543 -0.5774
 6813TIP3   OH241853   1.820   3.334   5.819  0.3524 -0.3747 -0.1451
 6813TIP3    H141854   1.909   3.368   5.808  0.3828 -0.1374  0.7567
 6813TIP3    H241855   1.777   3.397   5.876 -0.2715 -0.6981 -0.2550
 6814TIP3   OH241856   5.932   4.753   0.126  0.4126  0.3531 -0.2875
 6814TIP3    H141857   5.925   4.742   0.031  2.8151  1.1157 -0.6293
 6814TIP3    H241858   6.021   4.724   0.146  0.3321  1.2820  1.5624
 6815TIP3   OH241859   0.280   1.782  16.227 -0.3036  0.2431  0.2148
 6815TIP3    H141860   0.283   1.716  16.296 -0.1515 -1.2674 -1.1562
 6815TIP3    H241861   0.336   1.853  16.258 -1.5932  0.4060  2.3740
 6816TIP3   OH241862   0.679   3.413  15.757 -0.2718  0.0696 -0.6163
 6816TIP3    H141863   0.714   3.479  15.698  1.8586  0.1897  0.6675
 6816TIP3    H241864   0.595   3.388  15.718 -0.6591  2.7163 -1.7202
 6817TIP3   OH241865   4.007   0.738   5.020 -0.5099  0.5103 -0.4392
 6817TIP3    H141866   3.947   0.664   5.028  1.6289 -1.3125 -0.3574
 6817TIP3    H241867   4.090   0.699   4.992  1.1365  2.6657  1.0850
 6818TIP3   OH241868   3.175   1.057  12.402 -0.7292  0.5109  0.6041
 6818TIP3    H141869   3.140   0.980  12.448 -1.6976  0.8536  0.4631
 6818TIP3    H241870   3.098   1.101  12.366 -0.0039  0.2073 -1.4618
 6819TIP3   OH241871   0.470   4.222  12.736 -0.1017 -0.2276  0.1441
 6819TIP3    H141872   0.538   4.157  12.720  1.7567  1.8490 -0.9175
 6819TIP3    H241873   0.482   4.287  12.667 -2.9797  0.4436  0.1381
 6820TIP3   OH241874   2.708   4.777   3.458 -0.1377 -0.5047 -0.0203
 6820TIP3    H141875   2.765   4.804   3.529  0.3778  0.4688 -0.7865
 6820TIP3    H241876   2.766   4.769   3.382 -0.5627 -2.1286 -0.2171
 6821TIP3   OH241877   3.090   0.871  16.108  0.0095  0.1228  0.0359
 6821TIP3    H141878   3.140   0.916  16.176  0.6874  0.1956 -0.4968
 6821TIP3    H241879   3.157   0.830  16.053 -0.4319  1.1981 -1.3737
 6822TIP3   OH241880   6.231   4.682   0.075 -0.2911  0.0829 -0.3469
 6822TIP3    H141881   6.279   4.698   0.156 -0.8048 -2.0916  0.4537
 6822TIP3    H241882   6.278   4.610   0.033 -0.0810  1.1237 -1.9754
 6823TIP3   OH241883   5.403   3.755  12.457  0.1546 -0.9239 -0.0156
 6823TIP3    H141884   5.444   3.837  12.429  0.3146 -0.5742  1.1948
 6823TIP3    H241885   5.395   3.704  12.377 -2.9289  1.5140 -1.4801
 6824TIP3   OH241886   2.959   3.939  17.205 -0.2893  0.0591  0.6386
 6824TIP3    H141887   2.895   4.008  17.190 -1.4586 -0.9048  0.9970
 6824TIP3    H241888   2.946   3.878  17.132  2.7215  1.5577 -1.3538
 6825TIP3   OH241889   4.055   5.205  12.909  0.4745 -0.3358  0.0427
 6825TIP3    H141890   4.008   5.272  12.861  1.9581 -0.1555 -1.2632
 6825TIP3    H241891   4.133   5.250  12.943  0.4975 -0.9540  0.8383
 6826TIP3   OH241892   3.723   5.446   2.095  0.1520  0.0211  0.3961
 6826TIP3    H141893   3.681   5.506   2.157 -1.7110 -0.8104  0.0093
 6826TIP3    H241894   3.736   5.366   2.145  0.7295  0.0756  0.3346
 6827TIP3   OH241895   1.281   5.332   5.373 -0.4459  0.1032  0.1031
 6827TIP3    H141896   1.277   5.297   5.284 -0.6834  1.0673 -0.2819
 6827TIP3    H241897   1.350   5.281   5.415  1.5664  1.3709 -1.4545
 6828TIP3   OH241898   0.958   1.113  11.725 -0.1999 -0.0888 -0.2245
 6828TIP3    H141899   0.887   1.063  11.686 -0.1904 -0.1914 -0.1097
 6828TIP3    H241900   0.920   1.200  11.742 -1.0418 -0.8394  2.0732
 6829TIP3   OH241901   3.029   4.123  11.976 -0.6028 -0.7057 -0.5198
 6829TIP3    H141902   2.998   4.177  11.904 -0.6238  0.5434  0.3844
 6829TIP3    H241903   3.021   4.033  11.944 -1.8983 -0.2577 -1.5568
 6830TIP3   OH241904   5.479   3.391   1.647 -0.2908 -0.9058  0.0279
 6830TIP3    H141905   5.546   3.459   1.654 -1.2468  0.2125 -1.0367
 6830TIP3    H241906   5.524   3.317   1.607  0.6573 -0.7281  0.7404
 6831TIP3   OH241907   1.958   6.037  13.387 -0.1143 -0.0841 -0.2540
 6831TIP3    H141908   1.874   6.018  13.428 -0.5867 -2.0079 -1.9706
 6831TIP3    H241909   1.940   6.036  13.293  1.6987  0.1814 -0.6380
 6832TIP3   OH241910   2.676   0.518   2.874  0.0837 -0.2491 -0.3198
 6832TIP3    H141911   2.618   0.587   2.907 -0.6758 -1.0989  0.1804
 6832TIP3    H241912   2.762   0.541   2.908 -0.2612  0.1840  0.2759
 6833TIP3   OH241913   1.943   5.589   0.359 -0.0402  0.0789  0.2308
 6833TIP3    H141914   1.903   5.675   0.377 -2.4944 -1.1207  0.9028
 6833TIP3    H241915   2.000   5.605   0.284  0.3366  2.4994  0.9256
 6834TIP3   OH241916   4.122   2.665  17.225 -0.4911 -0.1253  0.0412
 6834TIP3    H141917   4.068   2.685  17.149 -0.6005  2.2862  0.6866
 6834TIP3    H241918   4.208   2.700  17.203 -0.6190  0.9516  1.1232
 6835TIP3   OH241919   1.480   5.041  13.068  0.9288  0.4902 -0.1141
 6835TIP3    H141920   1.493   4.993  12.986 -0.1810  1.1392 -0.6897
 6835TIP3    H241921   1.533   5.120  13.058  0.3513  0.8436 -0.4634
 6836TIP3   OH241922   2.029   5.063  13.015  0.0738 -0.0949  0.4230
 6836TIP3    H141923   2.028   5.004  12.940 -2.2792 -1.1644  1.2084
 6836TIP3    H241924   2.121   5.087  13.025  0.7590 -1.6821 -1.4201
 6837TIP3   OH241925   6.558   0.475  13.738 -0.5723  0.4030 -0.2278
 6837TIP3    H141926   6.592   0.394  13.701 -1.2550  0.2162 -0.4560
 6837TIP3    H241927   6.471   0.485  13.699 -1.1831  0.3664  1.0526
 6838TIP3   OH241928   5.415   6.706  15.391 -0.3910 -0.2125  0.4290
 6838TIP3    H141929   5.403   6.761  15.469  0.1721  2.8851 -1.5328
 6838TIP3    H241930   5.509   6.689  15.387 -0.0919  1.5595 -0.7412
 6839TIP3   OH241931   2.543   5.705   5.033  0.6106  0.7501  0.5868
 6839TIP3    H141932   2.540   5.722   5.127 -2.1047  2.3177  0.3232
 6839TIP3    H241933   2.472   5.642   5.017  0.0737  1.5967 -0.5406
 6840TIP3   OH241934   2.322   5.019  14.315  0.0635 -0.5239 -0.0077
 6840TIP3    H141935   2.369   5.098  14.287  1.4756 -0.8370  1.3156
 6840TIP3    H241936   2.388   4.949  14.309 -0.4813 -1.1501  1.0560
 6841TIP3   OH241937   0.096   1.766  16.030  0.7968  0.0967 -0.1613
 6841TIP3    H141938   0.039   1.711  16.083  1.2020 -0.5623 -0.3968
 6841TIP3    H241939   0.167   1.791  16.090  0.3794  0.7366  0.0702
 6842TIP3   OH241940   5.736   6.636  12.548  0.2348  0.4809 -0.3980
 6842TIP3    H141941   5.683   6.670  12.620  2.3029  1.0737  0.9377
 6842TIP3    H241942   5.682   6.650  12.470 -1.9644  0.0656  0.9592
 6843TIP3   OH241943   3.867   3.683   5.430  0.0362 -0.3259  0.1583
 6843TIP3    H141944   3.857   3.591   5.407 -1.9905 -0.1239  0.0392
 6843TIP3    H241945   3.847   3.688   5.523  0.8335 -0.0933  0.3246
 6844TIP3   OH241946   6.527   3.037  12.903  0.0050  0.0913  0.2358
 6844TIP3    H141947   6.554   2.959  12.952  0.8328  0.0541 -0.2733
 6844TIP3    H241948   6.551   3.018  12.813 -2.8806 -0.4911 -0.5133
 6845TIP3   OH241949   0.551   1.625   2.542 -0.0605 -0.4387  0.8145
 6845TIP3    H141950   0.641   1.609   2.514 -0.2057  0.4149 -0.2006
 6845TIP3    H241951   0.502   1.551   2.508  0.2784 -0.9958  1.5202
 6846TIP3   OH241952   5.340   2.338   0.131 -0.2387 -0.8472 -0.5563
 6846TIP3    H141953   5.338   2.402   0.060 -1.2387 -0.7886 -0.4838
 6846TIP3    H241954   5.342   2.253   0.087 -0.5120 -0.8031 -0.6552
 6847TIP3   OH241955   4.743   5.875  17.159  0.3203  0.4805  0.0025
 6847TIP3    H141956   4.670   5.936  17.158 -0.5243 -0.4624 -2.0585
 6847TIP3    H241957   4.721   5.812  17.228 -0.6842  0.3512 -0.4296
 6848TIP3   OH241958   1.589   1.733   5.496 -0.4051 -0.5885  0.3045
 6848TIP3    H141959   1.521   1.695   5.440 -0.0345 -1.7638  0.6092
 6848TIP3    H241960   1.670   1.695   5.462  0.0796  0.5334  0.1575
 6849TIP3   OH241961   2.227   6.428   3.557 -0.2283  0.3356 -0.3554
 6849TIP3    H141962   2.232   6.467   3.470 -0.6755  0.0476 -0.5173
 6849TIP3    H241963   2.302   6.464   3.605  1.3225 -1.1488 -1.5339
 6850TIP3   OH241964   5.951   2.220  12.262  0.4629 -0.5932  0.4148
 6850TIP3    H141965   5.986   2.283  12.199 -2.1286  1.7841  1.1575
 6850TIP3    H241966   5.957   2.135  12.217  1.0442  0.6302 -1.9691
 6851TIP3   OH241967   3.615   6.298  14.839  0.1893 -0.2236 -0.1120
 6851TIP3    H141968   3.683   6.250  14.886  0.7162  0.5569 -0.0624
 6851TIP3    H241969   3.599   6.246  14.761  0.9594 -0.3358 -0.2032
 6852TIP3   OH241970   2.127   3.707   2.498  0.3014 -0.3800  0.0255
 6852TIP3    H141971   2.176   3.671   2.425 -0.0505  1.7014 -1.3280
 6852TIP3    H241972   2.036   3.709   2.468 -0.0494 -0.7096  1.0307
 6853TIP3   OH241973   5.387   4.089  13.250  0.0243 -0.3767 -0.5034
 6853TIP3    H141974   5.298   4.065  13.226 -0.9021  0.8389  1.5334
 6853TIP3    H241975   5.397   4.179  13.218  0.0703 -0.0781  0.3212
 6854TIP3   OH241976   3.332   2.815  17.064 -0.2498  0.3404 -0.0634
 6854TIP3    H141977   3.246   2.801  17.024  0.3292 -2.2367 -0.5707
 6854TIP3    H241978   3.341   2.910  17.068 -3.4519  0.7203  0.7783
 6855TIP3   OH241979   4.424   6.031   2.795  0.1031  0.6386 -0.5653
 6855TIP3    H141980   4.383   5.952   2.760 -1.6612  1.3871 -0.2752
 6855TIP3    H241981   4.351   6.089   2.818  1.3345  2.2832 -0.5686
 6856TIP3   OH241982   3.604   1.859   1.643  0.0322  0.9374 -0.5640
 6856TIP3    H141983   3.522   1.878   1.597  0.1361  2.9407  0.0088
 6856TIP3    H241984   3.665   1.836   1.573 -0.9811 -0.6973 -0.9932
 6857TIP3   OH241985   4.039   2.927  16.686 -0.3040 -0.2863  0.3608
 6857TIP3    H141986   4.052   2.997  16.622  0.5540  0.1034  0.9373
 6857TIP3    H241987   4.096   2.856  16.655  2.0652  0.7817  1.9391
 6858TIP3   OH241988   4.556   6.565   1.987 -0.1200 -0.3444  0.0666
 6858TIP3    H141989   4.569   6.621   2.064  0.2947  1.2859 -1.1240
 6858TIP3    H241990   4.476   6.599   1.946 -0.7551 -1.6764  0.1503
 6859TIP3   OH241991   4.093   0.565  11.527 -0.4193  0.4958  0.4458
 6859TIP3    H141992   4.004   0.532  11.517 -1.4767  3.2486 -0.3579
 6859TIP3    H241993   4.095   0.605  11.614  0.3701 -0.4065  0.8561
 6860TIP3   OH241994   5.387   6.755  12.449  0.3065  0.0800 -0.4999
 6860TIP3    H141995   5.407   6.756  12.356 -2.0367 -3.0328 -1.1776
 6860TIP3    H241996   5.328   6.829  12.461  1.1059  0.8794 -1.3097
 6861TIP3   OH241997   3.884   6.685   3.487  0.3684  0.0580 -0.8625
 6861TIP3    H141998   3.966   6.717   3.450  1.3872 -0.3955  0.8517
 6861TIP3    H241999   3.904   6.596   3.517 -0.0235  0.7071  1.5841
 6862TIP3   OH242000   2.607   1.155  11.139 -0.3756  0.1950 -0.0244
 6862TIP3    H142001   2.649   1.099  11.073 -0.1221  0.0961  0.2218
 6862TIP3    H242002   2.513   1.148  11.120 -0.2622  0.7578 -0.8488
 6863TIP3   OH242003   4.448   1.163  12.507  0.0023 -0.7450 -0.1723
 6863TIP3    H142004   4.356   1.137  12.495 -0.2491 -0.2301  0.5653
 6863TIP3    H242005   4.445   1.258  12.519  0.6718 -0.6797 -0.4719
 6864TIP3   OH242006   3.564   5.267   4.472 -0.2846  0.3841  0.1437
 6864TIP3    H142007   3.512   5.209   4.528 -0.7766  0.6881  0.0050
 6864TIP3    H242008   3.534   5.355   4.494  0.9881  0.6602  0.9030
 6865TIP3   OH242009   4.787   3.759  13.461 -0.3777  0.6384  0.2772
 6865TIP3    H142010   4.811   3.695  13.527 -0.7964  0.2912  0.0988
 6865TIP3    H242011   4.714   3.808  13.501  0.8661  1.9919  1.0056
 6866TIP3   OH242012   6.237   5.978  15.697 -0.0890 -0.5693  0.0589
 6866TIP3    H142013   6.174   5.908  15.713  0.0547 -0.6470  0.2867
 6866TIP3    H242014   6.280   5.992  15.782  2.0020 -2.2492 -0.6278
 6867TIP3   OH242015   4.229   4.591   3.822  0.5797  0.3745 -0.1936
 6867TIP3    H142016   4.165   4.575   3.892  0.5196 -0.0577 -0.3449
 6867TIP3    H242017   4.176   4.604   3.744  0.6761 -2.4545 -0.8503
 6868TIP3   OH242018   4.687   3.331   5.205 -0.1004 -0.3267  0.1396
 6868TIP3    H142019   4.620   3.274   5.167 -1.6144  3.1218 -2.9340
 6868TIP3    H242020   4.769   3.284   5.192 -1.2759 -1.9733 -1.8733
 6869TIP3   OH242021   2.712   4.712  13.729 -0.2490 -0.0999 -0.4607
 6869TIP3    H142022   2.699   4.759  13.811  4.0434 -0.4689  0.6487
 6869TIP3    H242023   2.685   4.623  13.747 -0.1838  0.0295  0.2806
 6870TIP3   OH242024   4.773   3.868   4.526 -0.2047 -0.1961  0.0255
 6870TIP3    H142025   4.866   3.844   4.521 -0.3052 -0.6752  0.4023
 6870TIP3    H242026   4.728   3.794   4.486 -0.3423  0.7526 -1.7033
 6871TIP3   OH242027   6.186   1.726   1.049  0.7395 -0.5634  0.2703
 6871TIP3    H142028   6.211   1.726   1.141 -0.2611  0.4519  0.5564
 6871TIP3    H242029   6.096   1.693   1.048  0.7737 -0.6589 -0.3594
 6872TIP3   OH242030   5.661   5.639  15.460  0.6154 -0.5475  0.3115
 6872TIP3    H142031   5.642   5.567  15.520  1.2259 -0.4975  0.5724
 6872TIP3    H242032   5.645   5.718  15.511  1.1080 -0.5046  0.4021
 6873TIP3   OH242033   5.167   1.875   3.644 -0.3611  0.2301 -0.2592
 6873TIP3    H142034   5.074   1.854   3.633 -0.4124  0.4306 -0.2101
 6873TIP3    H242035   5.191   1.921   3.563  0.2773 -1.8354 -1.2996
 6874TIP3   OH242036   4.132   4.266  13.504 -0.0009 -0.1163 -0.3249
 6874TIP3    H142037   4.095   4.329  13.442 -0.4992 -2.0797 -2.1348
 6874TIP3    H242038   4.078   4.274  13.582  0.2551  1.9886 -0.3064
 6875TIP3   OH242039   3.814   2.885  14.959 -0.0345  0.3777 -0.8030
 6875TIP3    H142040   3.741   2.864  14.901  0.0948 -0.6097 -0.6167
 6875TIP3    H242041   3.892   2.866  14.907  0.0907 -1.7282  0.0915
 6876TIP3   OH242042   2.706   6.675  13.739 -0.5205 -0.4199 -0.8768
 6876TIP3    H142043   2.717   6.591  13.695  2.6514 -0.3031 -0.5167
 6876TIP3    H242044   2.758   6.737  13.688 -0.9799  0.8548  0.1325
 6877TIP3   OH242045   1.837   2.225  10.426 -0.7389  0.2239  0.1876
 6877TIP3    H142046   1.818   2.282  10.352  2.6356  0.2532 -0.8100
 6877TIP3    H242047   1.832   2.283  10.502  1.2700  1.6351 -0.6738
 6878TIP3   OH242048   5.578   0.001  12.706  0.1319 -0.2877  0.1097
 6878TIP3    H142049   5.503  -0.026  12.759 -0.3725 -0.7736 -0.8352
 6878TIP3    H242050   5.612   0.079  12.751 -0.4736 -0.4949  0.9608
 6879TIP3   OH242051   5.539   4.543   5.230 -0.2788 -0.0635  0.6801
 6879TIP3    H142052   5.621   4.533   5.278  1.1028  0.2635 -1.4463
 6879TIP3    H242053   5.541   4.473   5.165 -0.6529  1.1879 -0.7455
 6880TIP3   OH242054   6.422   3.662  15.208 -0.0600 -0.4353 -0.4797
 6880TIP3    H142055   6.353   3.684  15.271  1.6103 -1.9446  2.0558
 6880TIP3    H242056   6.450   3.574  15.233  1.8855 -0.3953 -2.2612
 6881TIP3   OH242057   6.673   4.272   1.086 -0.4146  0.6544  0.1070
 6881TIP3    H142058   6.673   4.363   1.057  1.1010  0.6143 -0.0874
 6881TIP3    H242059   6.656   4.222   1.006 -1.8104  0.7608  0.3086
 6882TIP3   OH242060   2.287   3.411  17.059  0.1262  0.4864 -0.1572
 6882TIP3    H142061   2.372   3.452  17.046  0.1477  1.0539  1.5776
 6882TIP3    H242062   2.307   3.323  17.090  0.0709  0.1312 -1.1063
 6883TIP3   OH242063   5.471   5.547  11.412  0.2567  0.1442 -0.2985
 6883TIP3    H142064   5.446   5.544  11.504 -0.7466  1.3489 -0.5056
 6883TIP3    H242065   5.566   5.555  11.413  0.3445 -0.7726  0.5913
 6884TIP3   OH242066   6.666   0.822   3.487 -0.0760  0.4501  0.3082
 6884TIP3    H142067   6.628   0.800   3.572  2.3778  1.4012  1.7500
 6884TIP3    H242068   6.660   0.918   3.483  0.5557  0.4689 -0.2422
 6885TIP3   OH242069   1.024   5.527   5.451 -0.1283 -0.2316 -0.4073
 6885TIP3    H142070   0.959   5.552   5.384 -0.1235  0.3320 -0.2028
 6885TIP3    H242071   1.082   5.466   5.405  0.1434  0.4968 -1.0600
 6886TIP3   OH242072   0.111   5.007  12.427 -0.8472  0.5843  0.1310
 6886TIP3    H142073   0.113   5.103  12.424  1.2174  0.5902 -0.0737
 6886TIP3    H242074   0.095   4.987  12.520 -2.6860  1.0673 -0.0364
 6887TIP3   OH242075   2.251   0.860   4.724 -0.2837 -0.7426 -0.4376
 6887TIP3    H142076   2.303   0.835   4.648 -0.0706 -3.3109  0.4429
 6887TIP3    H242077   2.314   0.896   4.786  0.1212 -1.8165 -0.2098
 6888TIP3   OH242078   0.585   5.076  14.971  0.2681  0.0199  0.2879
 6888TIP3    H142079   0.672   5.108  14.947  0.2185 -0.8206 -1.1347
 6888TIP3    H242080   0.525   5.145  14.943  0.4046  0.2984  0.6568
 6889TIP3   OH242081   0.853   2.130  14.406 -0.2774 -0.6571  0.1077
 6889TIP3    H142082   0.917   2.083  14.460 -1.1823 -0.4990  1.3572
 6889TIP3    H242083   0.769   2.117  14.451 -0.7720  0.9623 -0.2777
 6890TIP3   OH242084   6.061   3.815   4.582  0.1586 -0.2721  0.3364
 6890TIP3    H142085   6.062   3.761   4.661  1.6950  0.8707  1.1648
 6890TIP3    H242086   6.039   3.903   4.612  2.2154  0.4981 -0.2101
 6891TIP3   OH242087   2.810   5.997   4.722  0.3821 -0.5285  0.3315
 6891TIP3    H142088   2.749   5.928   4.695  1.6771 -1.5306 -0.0913
 6891TIP3    H242089   2.872   5.953   4.780  0.6906  0.4951  0.8008
 6892TIP3   OH242090   2.788   6.496   5.037  0.0417 -0.1043 -0.3478
 6892TIP3    H142091   2.723   6.440   5.080 -0.7281  0.2897 -0.9782
 6892TIP3    H242092   2.738   6.572   5.007  0.9488  0.6079 -0.0999
 6893TIP3   OH242093   0.458   0.422   4.229 -0.3627  0.5138  0.2020
 6893TIP3    H142094   0.445   0.446   4.138 -0.2523 -1.5012 -0.3848
 6893TIP3    H242095   0.410   0.489   4.279 -2.8646  0.0177 -1.4232
 6894TIP3   OH242096   2.041   6.610  15.350  0.2090  0.3737 -0.7001
 6894TIP3    H142097   2.069   6.528  15.309  0.5186  1.2107 -2.2476
 6894TIP3    H242098   2.109   6.630  15.413  0.7947  0.0909 -1.2366
 6895TIP3   OH242099   2.490   5.347   1.430  0.5014  0.1284  0.0922
 6895TIP3    H142100   2.457   5.261   1.402  0.5069  0.0444  0.3344
 6895TIP3    H242101   2.440   5.410   1.378  2.2582 -0.0559 -1.9519
 6896TIP3   OH242102   1.841   6.652  16.414  0.8879  0.2515 -0.0813
 6896TIP3    H142103   1.747   6.640  16.421  0.9197 -0.2038 -0.3808
 6896TIP3    H242104   1.854   6.746  16.412  0.4245  0.3127 -0.2040
 6897TIP3   OH242105   4.474   4.729   4.017 -0.0340 -0.0744 -0.2564
 6897TIP3    H142106   4.479   4.668   3.944  0.5291 -0.0343 -0.2554
 6897TIP3    H242107   4.532   4.691   4.084  0.6456  0.6662 -0.4115
 6898TIP3   OH242108   6.722   6.426   0.555 -1.0354  0.2976  0.6626
 6898TIP3    H142109   6.628   6.414   0.549 -0.8934 -0.7144  0.1795
 6898TIP3    H242110   6.743   6.410   0.647 -1.3822  0.9650  0.8639
 6899TIP3   OH242111   4.186   2.033   2.571  0.1878  0.6772 -0.3491
 6899TIP3    H142112   4.208   1.973   2.500  1.9084 -1.6180  1.9401
 6899TIP3    H242113   4.095   2.012   2.592  0.3885 -0.3112 -0.3979
 6900TIP3   OH242114   1.023   3.469  15.974  0.1587  0.0398 -0.1064
 6900TIP3    H142115   1.076   3.461  16.053 -0.8519 -1.0457  0.4884
 6900TIP3    H242116   0.940   3.504  16.005  0.3534  1.3359 -0.9700
 6901TIP3   OH242117   0.331   2.087  12.299  0.1328  0.2035 -0.1342
 6901TIP3    H142118   0.253   2.141  12.313 -0.7268 -0.6409 -1.4176
 6901TIP3    H242119   0.365   2.115  12.214 -0.4453 -1.3398 -0.9205
 6902TIP3   OH242120   5.211   1.393   5.145 -0.1426 -0.1384 -0.1233
 6902TIP3    H142121   5.144   1.445   5.100 -2.8521 -1.2675  2.3051
 6902TIP3    H242122   5.280   1.456   5.166 -0.8302  1.2966 -1.8885
 6903TIP3   OH242123   4.144   1.086   3.540 -0.1961  0.1507 -0.1365
 6903TIP3    H142124   4.156   1.068   3.633  0.0713 -0.4436 -0.2758
 6903TIP3    H242125   4.143   1.181   3.533  1.3926  0.2301  0.2929
 6904TIP3   OH242126   1.202   3.480   2.863  0.2144 -0.2860  0.1249
 6904TIP3    H142127   1.206   3.413   2.932  0.8198 -1.0193 -0.6135
 6904TIP3    H242128   1.262   3.549   2.894 -0.0420 -0.2899  0.6524
 6905TIP3   OH242129   6.197   4.105   0.938  0.1826 -0.0110  0.1028
 6905TIP3    H142130   6.204   4.139   1.027 -0.8832  0.7421 -0.0676
 6905TIP3    H242131   6.251   4.164   0.885 -0.3405  0.4382  0.0538
 6906TIP3   OH242132   2.212   1.226   3.324  0.2924  0.3749 -0.2356
 6906TIP3    H142133   2.261   1.151   3.357 -0.2730 -0.1939 -0.6662
 6906TIP3    H242134   2.208   1.287   3.397 -0.1317 -0.4654  0.4538
 6907TIP3   OH242135   6.195   6.227   1.066  0.8554 -0.1194 -0.3282
 6907TIP3    H142136   6.109   6.217   1.026  0.0636  0.3468  1.2187
 6907TIP3    H242137   6.238   6.295   1.013 -0.6442  1.3967  0.3261
 6908TIP3   OH242138   2.768   0.744   1.626  0.1899  0.2263 -0.0445
 6908TIP3    H142139   2.815   0.796   1.690 -1.0339  0.4971  0.6636
 6908TIP3    H242140   2.821   0.751   1.546  0.6626  1.5637  0.3579
 6909TIP3   OH242141   6.553   4.345  13.631  0.3723 -0.0037  0.0197
 6909TIP3    H142142   6.551   4.436  13.601 -2.4630 -0.0942 -0.3064
 6909TIP3    H242143   6.526   4.349  13.723 -0.6798 -0.5656 -0.2499
 6910TIP3   OH242144   6.048   5.903  14.164 -0.1215 -0.3451  0.8302
 6910TIP3    H142145   6.087   5.973  14.113  0.0998 -0.0527  1.3964
 6910TIP3    H242146   6.070   5.823  14.116  2.7145 -0.3811  2.0238
 6911TIP3   OH242147   6.112   2.000  11.768 -0.2407 -0.0107  0.0180
 6911TIP3    H142148   6.144   1.914  11.743  0.0879  0.2242 -0.3933
 6911TIP3    H242149   6.037   2.016  11.712 -1.1912 -0.6222  1.0851
 6912TIP3   OH242150   5.454   0.892   5.623  0.0018  0.0369  0.2669
 6912TIP3    H142151   5.432   0.843   5.543 -1.9000 -0.1973  0.8651
 6912TIP3    H242152   5.470   0.825   5.689  1.6722  0.2287  0.0952
 6913TIP3   OH242153   0.807   0.806  16.539  0.4840  0.1892  0.2391
 6913TIP3    H142154   0.733   0.831  16.482  1.6654 -0.3460 -1.6322
 6913TIP3    H242155   0.840   0.888  16.572  0.0269  0.5661 -0.2100
 6914TIP3   OH242156   0.716   0.130   2.698  0.2993 -0.1968 -0.0318
 6914TIP3    H142157   0.800   0.085   2.697  0.1362 -0.5849  1.4807
 6914TIP3    H242158   0.701   0.150   2.790 -0.6901  0.9707 -0.4254
 6915TIP3   OH242159   5.334   1.128   3.744  0.2785  0.2969 -0.1568
 6915TIP3    H142160   5.310   1.108   3.653 -1.0563 -1.4321  0.5206
 6915TIP3    H242161   5.407   1.190   3.736 -1.5519  2.3618 -2.3642
 6916TIP3   OH242162   4.410   4.467  16.019  0.0866 -0.6810  0.1166
 6916TIP3    H142163   4.486   4.477  15.962  0.2605  0.2949  0.5071
 6916TIP3    H242164   4.437   4.507  16.102 -1.5625  1.6313 -0.3660
 6917TIP3   OH242165   2.175   0.015  13.204 -0.1852  0.0146  0.2951
 6917TIP3    H142166   2.183  -0.041  13.281  1.0465 -1.9162 -1.1419
 6917TIP3    H242167   2.082   0.040  13.202 -0.3147 -0.1767  2.1763
 6918TIP3   OH242168   6.301   4.306  11.707  0.0403 -0.3063 -0.1893
 6918TIP3    H142169   6.322   4.260  11.788  1.5228 -0.9088 -0.8918
 6918TIP3    H242170   6.206   4.297  11.698  0.3062 -3.7510 -0.5848
 6919TIP3   OH242171   2.204   2.855   5.069 -0.1473 -0.0767  0.0769
 6919TIP3    H142172   2.277   2.867   5.130  0.4893 -0.0088 -0.6885
 6919TIP3    H242173   2.142   2.800   5.117  0.0308  0.5358  1.0428
 6920TIP3   OH242174   6.595   1.031   3.659 -0.2835 -0.2543  0.0196
 6920TIP3    H142175   6.503   1.011   3.672 -0.3461  0.3641  0.5606
 6920TIP3    H242176   6.639   0.998   3.737 -0.2712  0.8665  0.5116
 6921TIP3   OH242177   5.888   4.247  12.379  0.3835  0.7474 -0.5663
 6921TIP3    H142178   5.964   4.200  12.345 -0.0711  1.3658 -2.6156
 6921TIP3    H242179   5.890   4.231  12.473  1.0352 -2.1829 -0.9638
 6922TIP3   OH242180   0.226   3.698  14.664  0.4418  0.3412  0.2599
 6922TIP3    H142181   0.159   3.764  14.685 -0.6201 -0.6492  0.1212
 6922TIP3    H242182   0.309   3.745  14.670 -0.3069  1.7997 -0.2879
 6923TIP3   OH242183   6.586   1.392  14.045  0.3476  0.2077 -0.6728
 6923TIP3    H142184   6.652   1.361  14.107  1.6414  1.0048 -1.5696
 6923TIP3    H242185   6.636   1.409  13.965 -0.6962  2.1333 -0.9831
 6924TIP3   OH242186   6.718   1.187  17.258 -0.4021 -0.2919  0.6751
 6924TIP3    H142187   6.793   1.135  17.230  0.4956  1.5448 -0.4829
 6924TIP3    H242188   6.664   1.196  17.180 -1.2313 -0.5708  1.1988
 6925TIP3   OH242189   0.679   0.790   0.552 -0.3208 -0.0502  0.1088
 6925TIP3    H142190   0.750   0.764   0.612 -0.2751 -0.6584 -0.1987
 6925TIP3    H242191   0.649   0.874   0.585 -1.8314 -1.3759  2.4071
 6926TIP3   OH242192   4.277   1.495  11.921 -0.0407  0.0909 -0.7090
 6926TIP3    H142193   4.208   1.432  11.939 -0.6771  0.9391 -0.1263
 6926TIP3    H242194   4.357   1.453  11.954 -0.6407  0.1038  0.8329
 6927TIP3   OH242195   0.993   3.159   5.473  0.4538 -0.4396 -0.0411
 6927TIP3    H142196   0.938   3.204   5.409 -1.3825 -1.0929  0.9919
 6927TIP3    H242197   1.052   3.227   5.506 -1.1020  0.8552  0.2540
 6928TIP3   OH242198   5.357   4.126   4.803  0.9611  1.1504  0.2968
 6928TIP3    H142199   5.312   4.075   4.735  0.9888 -0.2032  1.2426
 6928TIP3    H242200   5.439   4.154   4.762  1.9414 -1.3651  0.3213
 6929TIP3   OH242201   1.019   4.591   3.915 -0.4358  0.1980 -0.3728
 6929TIP3    H142202   1.000   4.653   3.844  0.2950  1.7989  0.7554
 6929TIP3    H242203   1.098   4.627   3.957 -0.3302 -1.1992  0.6906
 6930TIP3   OH242204   2.306   2.366  14.136 -0.2507  0.0159 -0.3808
 6930TIP3    H142205   2.261   2.441  14.176 -1.5184 -1.0002  0.1862
 6930TIP3    H242206   2.334   2.313  14.211  0.6713 -0.0761 -0.7785
 6931TIP3   OH242207   1.694   0.916  13.594  0.5190  0.6802 -0.5651
 6931TIP3    H142208   1.753   0.937  13.521  0.2239 -0.7909 -1.2626
 6931TIP3    H242209   1.661   1.001  13.623  0.3456  1.2843 -2.3968
 6932TIP3   OH242210   0.453   3.691  12.257 -0.5589  0.0993 -0.6288
 6932TIP3    H142211   0.523   3.745  12.292  1.2137 -1.6668 -1.2542
 6932TIP3    H242212   0.373   3.726  12.297  0.9069  0.6617  2.0373
 6933TIP3   OH242213   1.346   3.799   1.220 -0.2506 -0.3163 -0.1146
 6933TIP3    H142214   1.330   3.769   1.310  2.1975  0.6096  0.7098
 6933TIP3    H242215   1.325   3.723   1.166 -0.5415 -1.3355  1.3628
 6934TIP3   OH242216   6.410   3.314  13.124 -0.4089  0.0262 -0.0226
 6934TIP3    H142217   6.392   3.326  13.217 -1.1762  0.2497 -0.1894
 6934TIP3    H242218   6.441   3.223  13.117  2.1769  0.7763  0.7867
 6935TIP3   OH242219   2.422   5.658  13.376  0.4531 -0.6134  0.4272
 6935TIP3    H142220   2.344   5.699  13.413 -0.9816 -0.6789 -2.2873
 6935TIP3    H242221   2.415   5.566  13.400 -0.5802 -0.6979 -0.1490
 6936TIP3   OH242222   0.399   5.285   5.740  0.0919 -0.4158  0.6133
 6936TIP3    H142223   0.472   5.224   5.742  0.1744 -0.3750 -0.7555
 6936TIP3    H242224   0.389   5.314   5.831  3.0170  1.0285  0.5793
 6937TIP3   OH242225   2.035   3.226  16.634 -0.3225  0.0055 -0.4295
 6937TIP3    H142226   2.107   3.169  16.608 -0.2767  0.0101 -0.3134
 6937TIP3    H242227   2.061   3.260  16.720 -0.7790 -0.5290 -0.0771
 6938TIP3   OH242228   4.459   5.362  14.320  0.6429 -0.4332  0.9524
 6938TIP3    H142229   4.510   5.413  14.257  0.4087 -0.9150  0.3689
 6938TIP3    H242230   4.429   5.427  14.384 -1.0927  0.5175 -0.6985
 6939TIP3   OH242231   6.477   0.078   5.269 -0.0571  0.1963 -0.2720
 6939TIP3    H142232   6.485  -0.017   5.265  0.5624  0.2989 -2.6181
 6939TIP3    H242233   6.537   0.104   5.339 -0.3196 -1.1106  0.4813
 6940TIP3   OH242234   0.719   6.058  12.253  0.2552  0.3017  0.3474
 6940TIP3    H142235   0.690   6.140  12.215  0.7506 -0.1071 -0.9891
 6940TIP3    H242236   0.814   6.058  12.241  0.0686 -1.3369 -1.5669
 6941TIP3   OH242237   3.976   0.710  13.648  0.9796  0.3765 -0.4449
 6941TIP3    H142238   4.029   0.706  13.568  1.2056  2.4751 -0.4750
 6941TIP3    H242239   3.886   0.711  13.616  0.9569 -1.2785 -0.5013
 6942TIP3   OH242240   2.289   1.523  11.477 -0.4832 -0.2128  0.1386
 6942TIP3    H142241   2.321   1.590  11.537  1.4928 -0.7788 -0.2293
 6942TIP3    H242242   2.365   1.469  11.458 -1.3124 -0.7299 -2.0119
 6943TIP3   OH242243   1.265   2.830   0.032 -0.2816 -0.5985  1.0852
 6943TIP3    H142244   1.356   2.861   0.026 -0.7358  0.6843  0.5950
 6943TIP3    H242245   1.274   2.735   0.047  1.1543 -1.0993 -2.1238
 6944TIP3   OH242246   1.724   2.742  12.735  0.1224  0.2776  0.9543
 6944TIP3    H142247   1.750   2.823  12.690 -0.7736  0.6587  1.0942
 6944TIP3    H242248   1.643   2.716  12.691  0.7082 -0.8791  0.5260
 6945TIP3   OH242249   5.957   0.507  16.705 -0.7153  0.2285  0.0226
 6945TIP3    H142250   5.980   0.448  16.634 -1.4276 -1.5399  1.1964
 6945TIP3    H242251   6.037   0.517  16.756 -0.4147  0.8610 -0.5566
 6946TIP3   OH242252   5.669   6.432  13.953  0.4876  0.2196  0.0608
 6946TIP3    H142253   5.607   6.390  13.893  0.1405  2.2236 -1.0470
 6946TIP3    H242254   5.750   6.382  13.942  0.2262  0.1021 -1.5545
 6947TIP3   OH242255   5.947   3.686  16.051 -0.8126 -0.2798  0.0647
 6947TIP3    H142256   5.951   3.593  16.030  0.0151  0.2983 -2.6916
 6947TIP3    H242257   5.923   3.729  15.969 -1.6679  1.9439  1.3589
 6948TIP3   OH242258   1.306   0.291   0.654  0.0120  0.1132  0.3413
 6948TIP3    H142259   1.231   0.233   0.636  0.6338 -0.2334 -1.2832
 6948TIP3    H242260   1.319   0.339   0.573  1.4163  0.3234  0.6684
 6949TIP3   OH242261   1.470   2.644   1.038 -0.4786  0.3702  0.4779
 6949TIP3    H142262   1.453   2.606   1.124  1.1631 -2.6240 -0.3712
 6949TIP3    H242263   1.533   2.715   1.056  0.1858 -0.4912  1.7186
 6950TIP3   OH242264   1.653   0.610   6.139  0.1538  0.3245 -0.4421
 6950TIP3    H142265   1.719   0.570   6.082 -0.2473 -0.6066 -0.2579
 6950TIP3    H242266   1.702   0.675   6.190  0.6854  0.5468 -1.2131
 6951TIP3   OH242267   3.645   3.934  13.704 -0.4486  0.4225 -0.0366
 6951TIP3    H142268   3.596   3.935  13.622 -0.5738 -1.5390 -0.0303
 6951TIP3    H242269   3.582   3.900  13.769  0.0130  0.7865  0.6130
 6952TIP3   OH242270   1.059   3.542  13.181 -0.5468  0.4834  0.3248
 6952TIP3    H142271   1.010   3.529  13.100 -2.6169 -0.6895  1.6607
 6952TIP3    H242272   1.091   3.455  13.204 -0.3012  0.7350  0.9539
 6953TIP3   OH242273   6.517   2.737   4.188  0.3775  0.4817  0.0807
 6953TIP3    H142274   6.510   2.698   4.275  0.1065 -0.7570 -0.4774
 6953TIP3    H242275   6.576   2.811   4.200 -0.2848  0.8257  1.4805
 6954TIP3   OH242276   3.087   0.933   4.542  0.0868  0.8731  0.0895
 6954TIP3    H142277   3.067   1.022   4.513 -0.1072  1.3622  1.6201
 6954TIP3    H242278   3.178   0.937   4.571 -0.6596  1.3112  2.6288
 6955TIP3   OH242279   2.210   3.693  14.535 -0.5839  0.3017  0.0703
 6955TIP3    H142280   2.133   3.742  14.508 -1.9559 -2.1357 -0.6730
 6955TIP3    H242281   2.205   3.692  14.631 -1.2633  0.4387  0.0376
 6956TIP3   OH242282   4.961   1.141   1.994  0.1727 -0.1735  0.7286
 6956TIP3    H142283   5.057   1.141   1.993  0.1698 -0.4023 -0.9589
 6956TIP3    H242284   4.936   1.218   1.943 -0.5552  0.0740  1.4410
 6957TIP3   OH242285   6.538   5.332   1.044  0.2004  0.0687 -0.0288
 6957TIP3    H142286   6.512   5.241   1.027 -0.6514  0.5583 -1.4711
 6957TIP3    H242287   6.604   5.351   0.978 -0.1886  0.7341 -0.2320
 6958TIP3   OH242288   2.185   4.583  12.214 -0.3602  0.2867  0.1151
 6958TIP3    H142289   2.190   4.521  12.287  1.5282 -0.1953 -0.3570
 6958TIP3    H242290   2.100   4.566  12.174  0.1182 -2.1253 -0.0563
 6959TIP3   OH242291   2.053   0.881   4.492 -0.0395  0.0995 -0.3645
 6959TIP3    H142292   1.963   0.863   4.518  0.4540 -1.9802  0.0764
 6959TIP3    H242293   2.102   0.883   4.574  0.2051  2.2545 -0.5031
 6960TIP3   OH242294   6.218   3.222  16.214 -0.3247  0.2431  0.1534
 6960TIP3    H142295   6.303   3.184  16.238  0.6595  1.5252 -1.1539
 6960TIP3    H242296   6.223   3.231  16.118 -2.3810 -0.6630 -0.0794
 6961TIP3   OH242297   5.631   5.601  13.635  0.3181  0.0216  0.9526
 6961TIP3    H142298   5.654   5.534  13.571  1.1712  2.3011 -1.3055
 6961TIP3    H242299   5.714   5.621  13.679  0.2254  0.1177  1.0841
 6962TIP3   OH242300   0.071   2.462  11.047  0.1502  0.4835 -0.0626
 6962TIP3    H142301   0.038   2.377  11.077  1.6849  0.1003  0.6538
 6962TIP3    H242302   0.118   2.442  10.966 -1.6210  1.0817 -1.2855
 6963TIP3   OH242303   0.918   2.533  15.907 -0.5280 -0.2685 -0.4628
 6963TIP3    H142304   0.980   2.467  15.877  0.3416  0.9327 -1.4107
 6963TIP3    H242305   0.959   2.570  15.985 -0.2730  0.1984 -0.8157
 6964TIP3   OH242306   3.798   2.226  14.596  0.0628 -0.4391 -0.3430
 6964TIP3    H142307   3.800   2.317  14.624 -0.4503 -0.1518 -1.1839
 6964TIP3    H242308   3.821   2.175  14.674 -2.1802  0.2535  0.8466
 6965TIP3   OH242309   4.726   1.045  11.518 -0.5556 -0.0040 -0.1271
 6965TIP3    H142310   4.763   1.082  11.438  0.0493 -0.1762  0.0637
 6965TIP3    H242311   4.640   1.011  11.492 -0.2580 -0.2942 -0.7605
 6966TIP3   OH242312   4.003   1.314  11.777 -0.1659  0.0281 -0.3937
 6966TIP3    H142313   3.924   1.369  11.776 -0.3744 -0.2556 -1.3749
 6966TIP3    H242314   3.971   1.228  11.802 -0.3500 -0.3003 -1.6572
 6967TIP3   OH242315   2.162   2.588  15.041 -0.3726 -0.2581  0.1480
 6967TIP3    H142316   2.244   2.584  15.090 -0.2978 -1.2633 -0.0451
 6967TIP3    H242317   2.119   2.668  15.072  0.5376  0.1135  0.4705
 6968TIP3   OH242318   2.053   0.561  10.769  0.0567  0.1436  0.3046
 6968TIP3    H142319   1.994   0.584  10.697  0.4254  0.2212  0.0265
 6968TIP3    H242320   2.045   0.465  10.776  0.6309  0.0372 -0.3777
 6969TIP3   OH242321   1.419   0.229  11.495 -0.0781  0.3261 -0.2758
 6969TIP3    H142322   1.340   0.277  11.469 -0.1727 -1.4225 -3.8324
 6969TIP3    H242323   1.386   0.148  11.534  0.0279  0.6812  0.5724
 6970TIP3   OH242324   6.620   1.175   2.816  0.4168  0.5663 -0.3133
 6970TIP3    H142325   6.586   1.089   2.789 -2.8548  1.9678 -1.2425
 6970TIP3    H242326   6.683   1.198   2.748  1.5657 -1.1495  0.0975
 6971TIP3   OH242327   3.486   1.637   5.809 -0.3724 -0.5274  0.0762
 6971TIP3    H142328   3.424   1.585   5.859  0.7093 -3.3737 -1.2884
 6971TIP3    H242329   3.557   1.656   5.870 -0.5385 -1.1185  0.4560
 6972TIP3   OH242330   4.289   2.521   0.608  0.2600  0.8266 -0.3595
 6972TIP3    H142331   4.291   2.472   0.690  0.3040 -0.0803 -0.8865
 6972TIP3    H242332   4.229   2.594   0.624 -0.3693  0.1932  0.2204
 6973TIP3   OH242333   4.937   0.990  11.684  1.1722  0.4754 -0.6164
 6973TIP3    H142334   4.867   1.002  11.619  1.6367 -0.3731 -1.2945
 6973TIP3    H242335   4.996   1.063  11.668  1.1101  0.4626 -0.9274
 6974TIP3   OH242336   6.363   1.486  11.937  0.3777 -0.3558  0.1937
 6974TIP3    H142337   6.381   1.392  11.950  0.9281 -0.3518 -0.4968
 6974TIP3    H242338   6.448   1.528  11.951 -0.2128  0.2412  2.2514
 6975TIP3   OH242339   5.409   5.786   0.775 -0.0731 -0.4684  0.1450
 6975TIP3    H142340   5.382   5.716   0.834  2.0816 -2.4775 -1.0946
 6975TIP3    H242341   5.439   5.856   0.833 -0.9538 -1.1127  1.4155
 6976TIP3   OH242342   0.987   6.310  11.636  0.5365  0.4714  0.1916
 6976TIP3    H142343   0.900   6.328  11.602  0.0650 -2.0210 -0.1219
 6976TIP3    H242344   1.030   6.259  11.567  0.7790 -1.7616  1.8424
 6977TIP3   OH242345   6.071   2.238   1.005 -0.0449  0.3061 -0.4216
 6977TIP3    H142346   6.123   2.158   0.999  0.3107  0.5939 -1.3612
 6977TIP3    H242347   6.080   2.266   1.096  0.8807 -0.0236 -0.4060
 6978TIP3   OH242348   1.444   5.650  14.745 -0.0018 -0.3740 -0.2458
 6978TIP3    H142349   1.525   5.636  14.695 -0.6057 -2.0481 -0.8018
 6978TIP3    H242350   1.468   5.633  14.836  0.5433  0.3374 -0.2467
 6979TIP3   OH242351   3.735   0.010  14.067  0.3166 -0.8327  0.1389
 6979TIP3    H142352   3.727   0.012  14.163 -2.1766 -1.2417  0.0052
 6979TIP3    H242353   3.702  -0.076  14.042 -4.9615  1.1752 -1.3211
 6980TIP3   OH242354   6.404   6.724   3.030  0.1019  0.2404 -0.1270
 6980TIP3    H142355   6.458   6.731   3.108  0.0775  3.4906 -0.2560
 6980TIP3    H242356   6.330   6.669   3.056  1.0851 -0.3618  1.4928
 6981TIP3   OH242357   0.070   1.874  14.493 -0.3240  0.6796  0.0875
 6981TIP3    H142358   0.067   1.783  14.520 -0.4429  0.5603 -0.3375
 6981TIP3    H242359  -0.002   1.885  14.432 -0.6593  1.1993  0.5592
 6982TIP3   OH242360   1.920   1.690  12.872  0.3332  0.0331  0.3522
 6982TIP3    H142361   1.878   1.649  12.947 -0.7950  0.9591  0.2658
 6982TIP3    H242362   1.924   1.621  12.805 -1.1990 -0.0721  0.3252
 6983TIP3   OH242363   4.240   2.009   1.070 -0.2513  0.5188 -0.3839
 6983TIP3    H142364   4.305   1.969   1.013  1.6753  0.9058  1.4515
 6983TIP3    H242365   4.165   1.949   1.066  1.0206 -1.1128 -0.8502
 6984TIP3   OH242366   0.336   6.216   4.564 -0.3650  0.2609  0.3833
 6984TIP3    H142367   0.292   6.300   4.579  0.3057  0.2632  2.6117
 6984TIP3    H242368   0.371   6.191   4.649 -1.2646 -2.7432 -0.0236
 6985TIP3   OH242369   5.017   3.367   0.475  0.5430  0.0465 -0.0519
 6985TIP3    H142370   5.097   3.317   0.493  1.2331  1.2890  0.4190
 6985TIP3    H242371   5.009   3.367   0.379  2.0933  1.3791 -0.2166
 6986TIP3   OH242372   0.376   2.852   1.254  0.2491 -0.1785 -0.8472
 6986TIP3    H142373   0.354   2.932   1.303 -0.2444  0.4539 -2.0547
 6986TIP3    H242374   0.293   2.806   1.245 -0.5078  1.4919 -4.1398
 6987TIP3   OH242375   4.140   0.436   0.950  0.4929 -0.6354 -0.3596
 6987TIP3    H142376   4.065   0.436   0.890 -1.1108 -1.3646  1.5333
 6987TIP3    H242377   4.127   0.515   1.003  0.6795 -1.1263  0.4271
 6988TIP3   OH242378   1.351   4.498   3.219  0.5293 -0.0907 -0.2809
 6988TIP3    H142379   1.398   4.565   3.170 -0.4414  0.1877 -0.8678
 6988TIP3    H242380   1.385   4.415   3.185  0.2001  0.1021 -1.1222
 6989TIP3   OH242381   5.055   3.217  11.367  0.3806  0.5121 -0.6366
 6989TIP3    H142382   5.095   3.174  11.443 -1.4646  0.9623  0.6631
 6989TIP3    H242383   4.972   3.170  11.354 -0.1441  1.5843 -1.2748
 6990TIP3   OH242384   5.727   6.213  15.492  0.2507 -0.3806  0.0973
 6990TIP3    H142385   5.690   6.297  15.522  1.1541 -0.3285  1.1246
 6990TIP3    H242386   5.651   6.156  15.484 -0.6669  1.0605 -2.6250
 6991TIP3   OH242387   2.066   3.455   5.088 -0.6616 -0.0062  0.0680
 6991TIP3    H142388   2.151   3.428   5.121 -2.2589 -1.9020  3.1251
 6991TIP3    H242389   2.041   3.386   5.027  0.2836  1.0063 -1.5198
 6992TIP3   OH242390   6.384   1.944  14.093  0.1837 -0.6613 -0.1707
 6992TIP3    H142391   6.431   1.868  14.058 -0.2594 -0.8318 -0.4186
 6992TIP3    H242392   6.365   1.998  14.016 -1.3215 -1.3298 -0.3098
 6993TIP3   OH242393   3.291   5.140   0.873 -0.3210 -0.0521  0.0257
 6993TIP3    H142394   3.205   5.127   0.833  0.1950  1.0140 -1.5256
 6993TIP3    H242395   3.310   5.233   0.860  0.2852  0.1423  2.0024
 6994TIP3   OH242396   1.537   6.719   0.023  0.1983  0.3612  0.5122
 6994TIP3    H142397   1.479   6.739   0.097  0.8002  1.0088  0.8281
 6994TIP3    H242398   1.536   6.624   0.017  1.3611  0.1813  2.3826
 6995TIP3   OH242399   6.681   3.415  15.037  0.4073 -0.4460  0.1105
 6995TIP3    H142400   6.734   3.370  14.970  0.4772 -2.5267  1.4833
 6995TIP3    H242401   6.737   3.488  15.065  0.5315  0.2516 -1.7794
 6996TIP3   OH242402   2.218   2.334  16.657 -0.1045  0.3427 -0.2872
 6996TIP3    H142403   2.311   2.311  16.660 -0.0523  0.0577 -2.4077
 6996TIP3    H242404   2.214   2.427  16.679  0.1804 -0.4735  3.8787
 6997TIP3   OH242405   1.230   0.936  15.077  0.5254 -0.1303  0.5272
 6997TIP3    H142406   1.307   0.991  15.089  1.1777 -0.9660  0.3011
 6997TIP3    H242407   1.157   0.991  15.103  0.9178  1.5790 -1.6843
 6998TIP3   OH242408   3.495   2.390  15.448 -0.1132  0.2992 -0.3819
 6998TIP3    H142409   3.532   2.478  15.461  0.6842  0.0281 -0.7983
 6998TIP3    H242410   3.412   2.392  15.496  0.8392  0.6396  1.3021
 6999TIP3   OH242411   3.097   4.703   1.935  0.5576  0.2047 -0.3144
 6999TIP3    H142412   3.060   4.667   1.854 -1.7290 -0.1489  0.8086
 6999TIP3    H242413   3.107   4.627   1.993  0.4680  0.6849  0.3474
 7000TIP3   OH242414   6.331   3.031  11.137 -0.3577  0.4836  0.2754
 7000TIP3    H142415   6.352   2.940  11.156 -0.5703  0.3820  0.0366
 7000TIP3    H242416   6.363   3.045  11.048  1.3199  1.1754  0.9539
 7001TIP3   OH242417   4.090   4.587   2.404 -0.0712  0.1822  0.1566
 7001TIP3    H142418   4.092   4.492   2.417  0.8153  0.3959  1.9615
 7001TIP3    H242419   4.179   4.616   2.425 -0.3277  1.4078 -0.3655
 7002TIP3   OH242420   1.204   2.160  12.723  0.4512  0.2993  0.3862
 7002TIP3    H142421   1.288   2.165  12.676  0.0218  0.4689 -0.3712
 7002TIP3    H242422   1.145   2.116  12.661  0.0418 -0.0461  1.0123
 7003TIP3   OH242423   2.604   3.878  13.440 -0.2480 -0.0510 -0.1715
 7003TIP3    H142424   2.511   3.892  13.422 -0.3584 -0.5817 -0.0085
 7003TIP3    H242425   2.615   3.905  13.531 -0.9431 -3.0900  0.9370
 7004TIP3   OH242426   6.047   4.762   0.869  0.1207 -0.0023  0.2062
 7004TIP3    H142427   5.986   4.790   0.938  1.2892 -0.8749  1.6616
 7004TIP3    H242428   6.132   4.760   0.913  0.7176 -1.7838 -0.9535
 7005TIP3   OH242429   6.388   2.895   2.267 -0.2091 -0.7989 -0.3322
 7005TIP3    H142430   6.477   2.875   2.236  0.4635  1.0953  0.2344
 7005TIP3    H242431   6.345   2.937   2.193 -0.1185 -0.3555 -0.1366
 7006TIP3   OH242432   3.453   3.545  15.080 -0.4943  0.4162  0.6390
 7006TIP3    H142433   3.512   3.474  15.104 -1.2154 -0.8149 -1.0679
 7006TIP3    H242434   3.470   3.613  15.145 -0.7583 -1.7964  3.2292
 7007TIP3   OH242435   2.541   4.521  13.011 -0.6452  0.4226  0.3342
 7007TIP3    H142436   2.465   4.472  12.978  0.3575 -0.7006 -0.4405
 7007TIP3    H242437   2.568   4.575  12.937  0.2974 -0.4581  0.0035
 7008TIP3   OH242438   6.638   3.801  16.919 -0.7585  0.2866  0.0413
 7008TIP3    H142439   6.594   3.877  16.959 -1.6307 -1.1918  2.0892
 7008TIP3    H242440   6.575   3.730  16.927  0.8288 -1.1690  0.1528
 7009TIP3   OH242441   4.919   3.121   3.623 -0.0040 -0.0725  0.1988
 7009TIP3    H142442   4.855   3.056   3.596  0.5806 -1.5586  2.1518
 7009TIP3    H242443   4.985   3.071   3.672  2.8451  1.3209 -1.9366
 7010TIP3   OH242444   4.863   3.412  16.189 -0.0227 -0.0199  0.0920
 7010TIP3    H142445   4.920   3.340  16.162  1.7738  0.8640  1.3152
 7010TIP3    H242446   4.837   3.390  16.279 -1.6021 -0.3713 -0.4205
 7011TIP3   OH242447   5.125   4.063  11.678 -0.4060  0.2003 -0.0309
 7011TIP3    H142448   5.123   4.068  11.582  0.6495  1.6982 -0.0049
 7011TIP3    H242449   5.215   4.086  11.701 -0.7428  0.1983  1.3472
 7012TIP3   OH242450   0.423   2.608  10.777  0.7242 -0.5761 -0.2623
 7012TIP3    H142451   0.451   2.631  10.866  0.2238  0.1649 -0.2802
 7012TIP3    H242452   0.330   2.585  10.787  0.0473  1.5726 -0.8642
 7013TIP3   OH242453   4.013   3.140   1.100 -0.2211  0.0197 -0.0301
 7013TIP3    H142454   4.062   3.136   1.182 -1.0858  1.3223  0.5947
 7013TIP3    H242455   3.927   3.174   1.126 -0.6616  0.0182 -1.4122
 7014TIP3   OH242456   1.120   1.428  10.923  0.5486 -0.2124  0.3702
 7014TIP3    H142457   1.203   1.412  10.968  1.5288  0.2846 -1.2058
 7014TIP3    H242458   1.065   1.470  10.989  0.6844 -2.6469  2.1716
 7015TIP3   OH242459   5.493   4.067  15.515  0.5044  0.5931 -0.2940
 7015TIP3    H142460   5.410   4.070  15.561  0.5685  2.1787 -0.2131
 7015TIP3    H242461   5.495   4.148  15.463  0.8006 -0.7160 -2.4638
 7016TIP3   OH242462   5.631   3.441  12.794 -0.0806 -0.3433  0.1214
 7016TIP3    H142463   5.710   3.483  12.827 -0.5025  0.3250  0.3008
 7016TIP3    H242464   5.636   3.449  12.699 -0.8631  1.4555  0.2016
 7017TIP3   OH242465   1.003   0.901  16.778 -0.3234  0.1397 -0.2853
 7017TIP3    H142466   0.911   0.905  16.751 -0.6044  0.1766  0.6244
 7017TIP3    H242467   1.024   0.991  16.803 -0.5600 -0.1669  1.1036
 7018TIP3   OH242468   5.182   0.941  15.295 -0.0983  0.1914  0.4211
 7018TIP3    H142469   5.197   1.018  15.350  0.2847  0.6013 -0.2469
 7018TIP3    H242470   5.096   0.955  15.257  0.6607  1.1131 -1.0050
 7019TIP3   OH242471   6.460   0.419   6.036 -0.1501  0.8784 -0.3111
 7019TIP3    H142472   6.494   0.478   6.103  0.2501  1.3089 -0.8767
 7019TIP3    H242473   6.531   0.412   5.972 -0.4647  0.3571 -0.6099
 7020TIP3   OH242474   5.010   0.869   2.267 -0.1271 -0.1910  0.1334
 7020TIP3    H142475   5.040   0.879   2.177  0.3390  0.6578  0.3743
 7020TIP3    H242476   4.931   0.923   2.273  0.4053  0.5694  0.4894
 7021TIP3   OH242477   6.039   5.199   0.713 -0.5585  0.0569  0.1187
 7021TIP3    H142478   6.007   5.176   0.800 -1.1566 -0.7223 -0.3002
 7021TIP3    H242479   5.974   5.261   0.679 -0.1738  0.5859  0.3292
 7022TIP3   OH242480   4.709   1.667  16.460  0.5781 -0.0181 -0.7981
 7022TIP3    H142481   4.646   1.726  16.500  0.5146  0.0196 -0.9517
 7022TIP3    H242482   4.794   1.696  16.493  0.4389 -0.6783  0.1795
 7023TIP3   OH242483   2.108   2.119  14.198 -0.4487 -0.3613  0.1245
 7023TIP3    H142484   2.013   2.110  14.208 -0.9340  2.1884 -1.3289
 7023TIP3    H242485   2.132   2.186  14.262  0.3666 -0.8104  0.3024
 7024TIP3   OH242486   3.961   3.214  14.250 -0.2346  0.5979 -0.3636
 7024TIP3    H142487   3.877   3.260  14.254 -1.0350 -0.8501  0.8588
 7024TIP3    H242488   3.938   3.128  14.214  0.7596  0.2707 -0.2321
 7025TIP3   OH242489   4.368   1.757  16.898 -0.1542 -0.2856  0.2263
 7025TIP3    H142490   4.371   1.662  16.907  1.3884 -0.6101 -2.4398
 7025TIP3    H242491   4.454   1.787  16.929  0.7030 -0.2151 -2.0441
 7026TIP3   OH242492   5.633   2.630  12.129  0.0547  0.0334  0.1449
 7026TIP3    H142493   5.703   2.609  12.191  0.4429 -0.0758 -0.3196
 7026TIP3    H242494   5.661   2.712  12.089  0.1370 -0.2439 -0.3678
 7027TIP3   OH242495   4.679   4.174  15.227  0.1661  0.1499 -0.4745
 7027TIP3    H142496   4.633   4.257  15.239  0.9022  0.6447 -0.9877
 7027TIP3    H242497   4.770   4.199  15.211  1.3673 -0.8697  3.6097
 7028TIP3   OH242498   1.271   1.108  13.995  0.4919 -0.4072  0.0923
 7028TIP3    H142499   1.322   1.043  13.947  0.7482 -2.1502  2.5812
 7028TIP3    H242500   1.327   1.134  14.068  0.2260  2.4025 -0.5608
 7029TIP3   OH242501   6.600   6.677  10.899 -0.0258  0.2633 -0.0318
 7029TIP3    H142502   6.598   6.659  10.805 -0.6512 -0.3847  0.1035
 7029TIP3    H242503   6.616   6.771  10.904 -0.9876  0.4835 -0.8061
 7030TIP3   OH242504   5.745   2.106  10.990  0.1468  0.0651 -0.2686
 7030TIP3    H142505   5.666   2.160  11.000 -0.9979 -1.0706 -2.5006
 7030TIP3    H242506   5.711   2.018  10.970  1.9828 -0.7212 -0.0781
 7031TIP3   OH242507   2.290   2.797  17.291 -0.3926  0.4142  0.1025
 7031TIP3    H142508   2.380   2.802  17.258  0.2077  0.3624  1.6435
 7031TIP3    H242509   2.283   2.870  17.353 -0.6407 -0.9485  1.7350
 7032TIP3   OH242510   0.764   4.364   4.803 -0.1052 -0.0248  0.3772
 7032TIP3    H142511   0.767   4.395   4.894 -0.8551 -0.1716  0.4573
 7032TIP3    H242512   0.837   4.303   4.796 -1.3390 -1.7401  1.5460
 7033TIP3   OH242513   6.274   4.962   3.806 -0.3585 -0.2534  0.3980
 7033TIP3    H142514   6.324   4.892   3.764  0.6506  0.0837  1.0039
 7033TIP3    H242515   6.341   5.021   3.842 -1.1953  0.5273  0.7018
 7034TIP3   OH242516   4.588   1.961   0.234  0.4091 -0.4789  0.3400
 7034TIP3    H142517   4.551   1.940   0.148  0.3402 -1.3193  0.5659
 7034TIP3    H242518   4.678   1.928   0.230  0.7635  0.4651  0.2207
 7035TIP3   OH242519   1.530   4.751   4.513  0.2877 -0.1013 -0.0640
 7035TIP3    H142520   1.513   4.688   4.443  1.9431  0.7659 -1.3243
 7035TIP3    H242521   1.444   4.767   4.552 -0.7826 -0.2956 -2.1899
 7036TIP3   OH242522   5.892   4.149   3.566  0.3975  0.0156  0.8583
 7036TIP3    H142523   5.802   4.126   3.545  1.2074 -0.8511 -2.2042
 7036TIP3    H242524   5.891   4.169   3.660 -2.8497 -0.3582  1.0056
 7037TIP3   OH242525   6.186   3.620   0.369 -0.6089 -0.1570  0.2112
 7037TIP3    H142526   6.190   3.611   0.274 -1.2874  0.5740  0.1059
 7037TIP3    H242527   6.156   3.535   0.400 -1.7525  0.0345 -0.3431
 7038TIP3   OH242528   1.647   2.640   1.675 -0.0261  0.0212 -0.1768
 7038TIP3    H142529   1.564   2.592   1.681 -0.3611  0.3235 -1.8749
 7038TIP3    H242530   1.707   2.591   1.730 -1.4826  0.1525  1.6247
 7039TIP3   OH242531   5.341   0.561  12.619 -0.1112  0.0359  0.2492
 7039TIP3    H142532   5.326   0.646  12.660 -0.0956 -0.4376  1.2802
 7039TIP3    H242533   5.428   0.567  12.581  0.0903  0.3191  0.7507
 7040TIP3   OH242534   1.508   0.741   4.321 -0.0785  0.7865  0.2643
 7040TIP3    H142535   1.491   0.814   4.262  1.3579  2.2788  1.5804
 7040TIP3    H242536   1.440   0.748   4.388  0.4946  1.4034  0.7948
 7041TIP3   OH242537   1.726   1.702  12.007  0.4836 -0.4797  0.8451
 7041TIP3    H142538   1.734   1.689  12.102 -1.4725 -0.2889  1.0875
 7041TIP3    H242539   1.763   1.623  11.968 -1.3706 -1.9473  1.8956
 7042TIP3   OH242540   0.562   3.258  12.404 -0.3508  0.1638 -0.0268
 7042TIP3    H142541   0.549   3.322  12.334 -2.0014  1.4951  1.4223
 7042TIP3    H242542   0.559   3.309  12.485  0.0050 -1.5264  1.1067
 7043TIP3   OH242543   1.214   4.699  15.980  0.5710 -0.2981  0.0692
 7043TIP3    H142544   1.229   4.679  16.073  0.7055  1.0319  0.3533
 7043TIP3    H242545   1.132   4.749  15.979  2.3270  2.8500 -0.0405
 7044TIP3   OH242546   0.362   2.122  11.489 -0.0967 -0.2162 -0.8004
 7044TIP3    H142547   0.354   2.157  11.400 -2.1584 -0.5290 -0.7836
 7044TIP3    H242548   0.285   2.154  11.534  0.7112 -0.4142  0.7784
 7045TIP3   OH242549   6.436   1.391   4.905 -0.2511 -0.3327 -0.1296
 7045TIP3    H142550   6.522   1.350   4.900  0.5957  1.0789  1.6995
 7045TIP3    H242551   6.385   1.348   4.836  1.1387 -2.9902  0.3440
 7046TIP3   OH242552   6.512   5.041   0.376 -0.1541  0.1115 -0.4495
 7046TIP3    H142553   6.519   5.100   0.301 -0.7236  0.2935 -0.3637
 7046TIP3    H242554   6.419   5.019   0.381  0.1474 -1.4095 -0.9544
 7047TIP3   OH242555   6.085   2.907   3.065  0.1379 -0.4882 -0.4880
 7047TIP3    H142556   6.155   2.971   3.079  0.2656 -0.7030 -0.1339
 7047TIP3    H242557   6.111   2.861   2.985 -0.2878  0.3390 -1.1121
 7048TIP3   OH242558   6.431   2.505  11.751 -0.5266 -0.4517 -0.5223
 7048TIP3    H142559   6.440   2.600  11.751 -1.6789 -0.3307 -0.2944
 7048TIP3    H242560   6.481   2.476  11.828  1.1975 -0.1974 -1.5042
 7049TIP3   OH242561   6.672   5.667  12.803 -0.3705 -0.1721  0.5101
 7049TIP3    H142562   6.749   5.620  12.772 -0.1536  0.3535  0.2203
 7049TIP3    H242563   6.705   5.754  12.827 -0.7870 -0.1055  0.8518
 7050TIP3   OH242564   1.661   5.867   3.051 -0.0309 -0.7230  0.4945
 7050TIP3    H142565   1.615   5.924   3.112  0.9297 -0.0384  0.5917
 7050TIP3    H242566   1.753   5.877   3.073  0.1513 -2.5755  0.7361
 7051TIP3   OH242567   1.069   4.234  12.637  0.1323  0.1711 -0.1764
 7051TIP3    H142568   1.116   4.153  12.619  0.0467 -0.0789  0.6936
 7051TIP3    H242569   1.074   4.283  12.555 -0.9420 -1.2645 -1.1321
 7052TIP3   OH242570   0.602   5.133   4.382  0.4107 -0.3695  0.5645
 7052TIP3    H142571   0.673   5.069   4.381 -0.8811 -1.9110  1.8011
 7052TIP3    H242572   0.631   5.200   4.444  1.2190 -0.4359  0.2690
 7053TIP3   OH242573   5.728   5.836  16.080  0.0632  0.2759  0.4358
 7053TIP3    H142574   5.695   5.915  16.124 -0.5911 -1.0686  2.5080
 7053TIP3    H242575   5.791   5.799  16.142  0.0683 -1.0601 -0.3344
 7054TIP3   OH242576   4.846   3.076   0.294  0.4695  0.2829 -0.1019
 7054TIP3    H142577   4.794   3.156   0.301 -1.7836 -1.1109 -0.0407
 7054TIP3    H242578   4.851   3.058   0.200 -1.4434 -0.9242 -0.0298
 7055TIP3   OH242579   3.131   3.384  15.553  0.0982  0.1130 -0.0990
 7055TIP3    H142580   3.194   3.432  15.499 -0.5453  1.6568  0.4677
 7055TIP3    H242581   3.046   3.420  15.529 -0.3222 -0.1270  0.9765
 7056TIP3   OH242582   2.004   1.067   3.908 -0.2167 -0.1404  0.6276
 7056TIP3    H142583   2.012   0.972   3.922  1.4158  0.0284  1.0390
 7056TIP3    H242584   2.072   1.105   3.964 -1.7649  1.3798  1.5332
 7057TIP3   OH242585   5.638   4.349   5.037 -0.4142 -0.3542  0.2649
 7057TIP3    H142586   5.616   4.273   4.983 -1.2743 -0.1049  0.2577
 7057TIP3    H242587   5.732   4.361   5.023 -0.3023 -1.2890  0.1085
 7058TIP3   OH242588   3.111   5.790   0.267 -0.2277  0.5906 -0.4214
 7058TIP3    H142589   3.170   5.856   0.231 -0.8294  0.3365 -1.9852
 7058TIP3    H242590   3.099   5.727   0.195  2.4731 -2.7914  1.7686
 7059TIP3   OH242591   6.594   4.406   5.644 -0.1434  0.0029  1.0069
 7059TIP3    H142592   6.657   4.365   5.702 -0.3450 -0.6099  0.7990
 7059TIP3    H242593   6.564   4.336   5.586  1.3770  0.9490 -1.0530
 7060TIP3   OH242594   5.912   5.632   4.340  0.2618  0.0302 -0.0586
 7060TIP3    H142595   5.843   5.584   4.385 -1.4182  1.0499 -1.4086
 7060TIP3    H242596   5.953   5.686   4.408 -0.3938 -0.4586  0.7356
 7061TIP3   OH242597   5.761   3.478   4.177 -0.1649 -0.5751  0.0493
 7061TIP3    H142598   5.790   3.565   4.150 -0.1730 -0.1953  1.2054
 7061TIP3    H242599   5.810   3.417   4.122 -0.7365  0.1671 -1.3145
 7062TIP3   OH242600   3.052   1.111   2.306  0.0342 -0.2981 -0.0142
 7062TIP3    H142601   3.018   1.159   2.231  0.5389 -0.2685 -0.2247
 7062TIP3    H242602   3.103   1.040   2.268  0.6641 -0.0164  0.3038
 7063TIP3   OH242603   3.019   5.268  12.763  0.0012  0.0385  0.2824
 7063TIP3    H142604   2.974   5.189  12.793 -0.9412  1.2626  2.3463
 7063TIP3    H242605   3.070   5.296  12.838  1.4862  0.6199 -0.8974
 7064TIP3   OH242606   4.150   0.750   6.702 -0.5688 -0.4475  0.8847
 7064TIP3    H142607   4.103   0.772   6.622  1.6285 -0.1711 -0.4240
 7064TIP3    H242608   4.220   0.815   6.708 -0.3659 -0.7799  2.7650
 7065TIP3   OH242609   1.152   2.210   3.747  0.1373  0.4273  0.2264
 7065TIP3    H142610   1.247   2.201   3.752  0.2918  1.3670 -0.6537
 7065TIP3    H242611   1.122   2.129   3.704  0.9279  1.5466 -2.6670
 7066TIP3   OH242612   5.497   2.003   2.049  0.7690  0.4644  0.0651
 7066TIP3    H142613   5.415   2.018   2.097  0.3831  2.2135 -1.0367
 7066TIP3    H242614   5.488   1.915   2.014 -1.6131  1.3123 -1.7248
 7067TIP3   OH242615   4.771   1.470  17.038  0.2996 -0.1440 -0.2276
 7067TIP3    H142616   4.700   1.521  17.001  0.5007  1.4571  1.4642
 7067TIP3    H242617   4.849   1.525  17.028  1.0521 -1.2652 -0.7680
 7068TIP3   OH242618   4.255   4.876   4.127  0.3017  0.1428 -0.4416
 7068TIP3    H142619   4.334   4.828   4.104 -0.3479 -0.4123 -1.5962
 7068TIP3    H242620   4.193   4.857   4.056 -1.4059 -0.6864  1.1866
 7069TIP3   OH242621   0.380   6.126  16.335  0.0635  0.2713  0.8439
 7069TIP3    H142622   0.347   6.142  16.247 -0.1775 -0.3814  0.8059
 7069TIP3    H242623   0.373   6.211  16.379  1.0271  0.8230 -0.0207
 7070TIP3   OH242624   6.259   1.443  13.186  0.6575  0.3070  0.7711
 7070TIP3    H142625   6.326   1.400  13.240 -0.1032  0.2547  1.6984
 7070TIP3    H242626   6.180   1.391  13.200  0.5595 -0.0322 -0.8393
 7071TIP3   OH242627   0.863   2.827   0.535  0.2621  0.4229  0.3179
 7071TIP3    H142628   0.955   2.848   0.523  0.2300  0.4557  0.1087
 7071TIP3    H242629   0.834   2.883   0.607  0.5505 -0.0234  0.7884
 7072TIP3   OH242630   1.666   4.650  12.594  0.1066 -0.3775  0.3482
 7072TIP3    H142631   1.593   4.593  12.615 -0.3727 -0.1183 -0.5699
 7072TIP3    H242632   1.714   4.660  12.677 -0.9607 -0.4366  0.9818
 7073TIP3   OH242633   5.905   4.823   4.884 -0.0975  0.5601  0.0597
 7073TIP3    H142634   5.843   4.827   4.812 -0.4531  3.9036  0.3561
 7073TIP3    H242635   5.897   4.909   4.927  1.7628 -0.4159  2.6536
 7074TIP3   OH242636   5.862   4.829   1.827 -0.0521  0.2214 -0.3367
 7074TIP3    H142637   5.858   4.897   1.894 -1.6370  1.2794 -1.4378
 7074TIP3    H242638   5.864   4.876   1.744  2.2072 -1.0593 -1.1059
 7075TIP3   OH242639   0.859   0.975  11.508 -0.1600 -0.2372  0.5898
 7075TIP3    H142640   0.877   0.916  11.435 -0.3318  1.4945 -0.9294
 7075TIP3    H242641   0.921   1.047  11.497 -1.7702  1.2477  0.6960
 7076TIP3   OH242642   1.051   4.299  16.012  0.1143  0.6303 -0.2740
 7076TIP3    H142643   0.972   4.351  15.996 -0.5420 -0.2325  0.0306
 7076TIP3    H242644   1.046   4.276  16.104 -0.9803 -2.0498 -0.8937
 7077TIP3   OH242645   2.160   3.330   3.384  0.3034 -0.1794  0.0184
 7077TIP3    H142646   2.191   3.342   3.294  1.7199  2.5895  0.7445
 7077TIP3    H242647   2.225   3.273   3.424  1.7470  1.4879  0.1725
 7078TIP3   OH242648   0.803   1.253  11.946 -0.5223  0.4430 -0.3385
 7078TIP3    H142649   0.715   1.215  11.941 -1.7197  2.9244  0.4737
 7078TIP3    H242650   0.794   1.339  11.905  1.5337  0.7895 -0.1637
 7079TIP3   OH242651   1.866   0.278  15.072 -0.1457  0.3821 -0.3256
 7079TIP3    H142652   1.794   0.251  15.129  0.4466 -1.2971 -0.3053
 7079TIP3    H242653   1.831   0.266  14.983 -0.1187  0.1824 -0.3113
 7080TIP3   OH242654   2.978   2.186  10.873  0.7180 -0.3158  0.4148
 7080TIP3    H142655   2.921   2.136  10.932 -0.6921  0.8407  0.0993
 7080TIP3    H242656   2.942   2.275  10.875  2.0917  0.2907 -0.3808
 7081TIP3   OH242657   3.287   5.628  16.977 -0.5925  0.0926 -0.0283
 7081TIP3    H142658   3.259   5.612  16.887 -1.4891  0.2336  0.2173
 7081TIP3    H242659   3.365   5.683  16.969  0.1585 -1.0263 -0.7563
 7082TIP3   OH242660   6.061   1.310   1.956  0.0596 -0.2795  0.1029
 7082TIP3    H142661   6.142   1.340   1.915 -1.3664  1.0750 -1.9168
 7082TIP3    H242662   6.061   1.215   1.941  0.5132 -0.0736 -1.3865
 7083TIP3   OH242663   6.114   3.694  12.291  0.2720 -0.1527  0.0164
 7083TIP3    H142664   6.196   3.661  12.328  0.8552  0.1879 -0.9392
 7083TIP3    H242665   6.076   3.618  12.248  1.4190  0.2489 -1.8349
 7084TIP3   OH242666   0.414   5.343   3.236 -0.0050 -0.2799 -0.0979
 7084TIP3    H142667   0.386   5.268   3.289  0.9159 -1.7392 -1.5561
 7084TIP3    H242668   0.399   5.315   3.146  1.4614  0.8268 -0.7286
 7085TIP3   OH242669   0.159   0.779  12.431 -0.5156  0.1386 -0.6623
 7085TIP3    H142670   0.241   0.827  12.422 -1.2990  1.5319 -0.5739
 7085TIP3    H242671   0.112   0.824  12.501 -0.8914 -1.3569  0.0945
 7086TIP3   OH242672   3.715   6.624  13.643 -0.3315 -0.1636  0.5376
 7086TIP3    H142673   3.670   6.705  13.667 -0.3390 -0.1701  0.5452
 7086TIP3    H242674   3.807   6.642  13.662 -0.5000 -0.6690  1.9412
 7087TIP3   OH242675   4.358   3.543   5.157 -0.2621  0.0630 -0.4562
 7087TIP3    H142676   4.411   3.541   5.236 -0.4146 -0.0820 -0.3578
 7087TIP3    H242677   4.271   3.515   5.185  0.0801 -1.6796 -0.9740
 7088TIP3   OH242678   1.256   5.825   2.013 -0.0374 -0.0914 -0.3338
 7088TIP3    H142679   1.277   5.750   1.957  1.0068 -0.1223  0.0828
 7088TIP3    H242680   1.332   5.835   2.069 -0.1401  1.3250 -0.4184
 7089TIP3   OH242681   3.357   1.709   0.019  0.3945  0.3205  0.1685
 7089TIP3    H142682   3.359   1.794   0.063  0.1410  0.6758 -0.5026
 7089TIP3    H242683   3.317   1.726  -0.066 -0.7605 -0.6801  0.4701
 7090TIP3   OH242684   5.081   0.218  11.796 -0.3913  0.0162 -0.1909
 7090TIP3    H142685   5.028   0.139  11.782 -0.7066  0.2133 -0.1263
 7090TIP3    H242686   5.137   0.223  11.719 -0.6783 -0.0341 -0.4051
 7091TIP3   OH242687   0.727   1.277   5.837 -0.0329 -0.1863  0.2751
 7091TIP3    H142688   0.649   1.329   5.856 -0.3530  0.1207 -1.6916
 7091TIP3    H242689   0.711   1.238   5.751  0.8925 -2.2596  0.9507
 7092TIP3   OH242690   2.216   0.244   2.201 -0.2427  0.1283  0.3355
 7092TIP3    H142691   2.200   0.298   2.279 -1.3993 -0.5251  0.5665
 7092TIP3    H242692   2.177   0.294   2.130 -0.1818  0.1880  0.3428
 7093TIP3   OH242693   0.830   3.508  14.328 -0.2110 -0.4032 -0.4877
 7093TIP3    H142694   0.770   3.508  14.403  0.3127 -0.2537 -0.0586
 7093TIP3    H242695   0.873   3.423  14.333 -1.6822 -1.2713 -1.8698
 7094TIP3   OH242696   1.224   3.752   2.308 -0.3583 -0.5360  0.1770
 7094TIP3    H142697   1.263   3.665   2.302 -0.2187 -0.3932 -1.3701
 7094TIP3    H242698   1.286   3.802   2.361 -1.2729 -1.7788  2.5473
 7095TIP3   OH242699   4.388   0.378  13.981  0.2867 -0.3461 -0.2571
 7095TIP3    H142700   4.310   0.365  13.927 -0.9457  1.5591  0.9404
 7095TIP3    H242701   4.454   0.411  13.920  0.7261 -3.3056 -1.5750
 7096TIP3   OH242702   0.445   1.173   5.416  0.2936 -0.1479  0.2296
 7096TIP3    H142703   0.365   1.137   5.454  0.4937 -0.2611  0.5525
 7096TIP3    H242704   0.484   1.100   5.368  0.0260  0.0032 -0.2140
 7097TIP3   OH242705   2.428   4.832  12.991  0.0191  0.1651 -0.2083
 7097TIP3    H142706   2.405   4.823  12.898 -1.3291  1.1312  0.0074
 7097TIP3    H242707   2.510   4.882  12.991  0.5034 -0.5953 -0.8938
 7098TIP3   OH242708   1.206   1.062  11.619 -0.1801  0.5603 -0.1823
 7098TIP3    H142709   1.131   1.096  11.668 -0.7642 -0.8168 -0.0576
 7098TIP3    H242710   1.268   1.135  11.616 -2.0508  2.2018 -1.4730
 7099TIP3   OH242711   6.028   4.392   1.943 -0.1346 -0.1593  0.1111
 7099TIP3    H142712   6.061   4.475   1.910 -1.1509 -0.0318 -0.6000
 7099TIP3    H242713   6.104   4.353   1.987  1.1359 -0.0883 -1.8690
 7100TIP3   OH242714   0.226   3.463  11.018  0.2198  0.1160 -0.3551
 7100TIP3    H142715   0.237   3.368  11.017 -1.9258 -0.2455  1.4291
 7100TIP3    H242716   0.202   3.485  10.928  0.6282 -1.0443 -0.7705
 7101TIP3   OH242717   1.625   0.545   2.725  0.0768 -0.0944  0.1880
 7101TIP3    H142718   1.598   0.502   2.644  0.0538  2.1555 -1.0884
 7101TIP3    H242719   1.543   0.557   2.774 -0.7568  2.7744 -1.6828
 7102TIP3   OH242720   0.281   2.462  15.349 -0.8893 -0.2888  0.6710
 7102TIP3    H142721   0.203   2.423  15.388 -2.5022 -0.4145 -2.3959
 7102TIP3    H242722   0.262   2.555  15.342  0.2333  0.0759  1.9165
 7103TIP3   OH242723   2.758   6.547   0.697 -0.0243  0.0026  0.9366
 7103TIP3    H142724   2.799   6.602   0.631 -0.6368  0.5018  0.9593
 7103TIP3    H242725   2.831   6.514   0.750  0.5159 -0.7727 -0.2468
 7104TIP3   OH242726   0.825   6.280   5.008 -0.2726  0.2310 -0.0810
 7104TIP3    H142727   0.773   6.246   5.081 -1.0039 -0.3810 -0.8568
 7104TIP3    H242728   0.818   6.375   5.015 -0.9213  0.1633  0.2454
 7105TIP3   OH242729   5.923   6.689  16.896  0.1222  0.3183  0.8601
 7105TIP3    H142730   5.855   6.731  16.949 -1.1539  0.1224 -0.5679
 7105TIP3    H242731   5.921   6.597  16.923  0.1511  0.3930  1.1273
 7106TIP3   OH242732   5.812   1.465  15.308 -0.1412  0.8258 -0.1858
 7106TIP3    H142733   5.806   1.388  15.251  2.1350 -0.2011  0.8305
 7106TIP3    H242734   5.880   1.519  15.267 -0.0274  1.1245  0.3941
 7107TIP3   OH242735   3.048   5.507   2.376  0.1061 -0.0200  0.0148
 7107TIP3    H142736   2.975   5.482   2.319 -0.7806 -0.5855  1.3271
 7107TIP3    H242737   3.031   5.458   2.457  1.2783  0.8112  0.7774
 7108TIP3   OH242738   4.626   0.921   1.833 -0.4186 -0.9995 -0.5061
 7108TIP3    H142739   4.674   0.917   1.915 -1.3120  2.3760  0.3586
 7108TIP3    H242740   4.565   0.847   1.836  0.6561 -1.8512  1.1174
 7109TIP3   OH242741   5.549   2.107   5.817  0.3452  0.5126  0.9813
 7109TIP3    H142742   5.496   2.035   5.853  1.0225 -0.5504 -0.0481
 7109TIP3    H242743   5.535   2.180   5.877 -0.5069 -0.4260  1.9706
 7110TIP3   OH242744   0.322   0.853  14.157 -0.0454  0.1197 -0.4167
 7110TIP3    H142745   0.380   0.813  14.092 -0.1095 -0.5202 -0.0872
 7110TIP3    H242746   0.380   0.904  14.213  0.2225 -0.6540  0.0147
 7111TIP3   OH242747   6.264   4.476  11.203  0.3305 -0.1617 -0.2040
 7111TIP3    H142748   6.243   4.392  11.162  0.1158 -0.1624 -0.0931
 7111TIP3    H242749   6.291   4.454  11.292  0.0589 -0.0930 -0.1050
 7112TIP3   OH242750   6.773   1.735   3.099 -0.2085  0.1349 -0.2216
 7112TIP3    H142751   6.857   1.781   3.097 -0.3836  0.4317 -0.8195
 7112TIP3    H242752   6.707   1.804   3.092 -0.4541 -0.2723 -2.5858
 7113TIP3   OH242753   5.092   2.065  13.029 -0.2934 -0.1062 -0.4028
 7113TIP3    H142754   5.057   1.977  13.043  0.9681 -0.3673  1.4240
 7113TIP3    H242755   5.020   2.124  13.052  0.0195 -0.6393  2.2709
 7114TIP3   OH242756   3.844   4.847   5.586  0.1545 -0.4786 -0.1487
 7114TIP3    H142757   3.919   4.871   5.531 -0.0303 -0.2115 -0.2920
 7114TIP3    H242758   3.827   4.926   5.637  0.1451 -0.6319  0.0840
 7115TIP3   OH242759   2.816   4.740  14.722 -0.1392  0.1969 -0.0269
 7115TIP3    H142760   2.887   4.804  14.713 -0.9192  1.2886  1.1384
 7115TIP3    H242761   2.750   4.786  14.774 -1.8661 -0.6507 -1.3646
 7116TIP3   OH242762   1.011   3.812  12.457  0.0075 -0.0026 -0.4630
 7116TIP3    H142763   0.948   3.881  12.480 -0.6768 -0.9550  0.6123
 7116TIP3    H242764   0.992   3.741  12.517 -0.1765 -1.6533 -2.3606
 7117TIP3   OH242765   3.756   5.233  10.934 -0.2168  0.0667  0.1619
 7117TIP3    H142766   3.780   5.146  10.904  0.7765 -0.4111  2.1768
 7117TIP3    H242767   3.838   5.283  10.934 -0.7376  0.9795 -0.7906
 7118TIP3   OH242768   4.228   5.676  15.106 -0.1957  0.2122 -0.0569
 7118TIP3    H142769   4.238   5.711  15.194 -0.8952  1.5329 -0.4618
 7118TIP3    H242770   4.166   5.604  15.115  0.0447  0.0847  0.5830
 7119TIP3   OH242771   5.316   5.901   3.298  0.2555  0.2853  0.3883
 7119TIP3    H142772   5.360   5.896   3.213 -1.2052 -1.0294 -0.3339
 7119TIP3    H242773   5.274   5.987   3.298 -0.4799 -0.0543 -0.6324
 7120TIP3   OH242774   2.511   5.240   2.784  0.3427 -0.0522 -0.4090
 7120TIP3    H142775   2.530   5.155   2.824  0.6106  0.1421 -0.1216
 7120TIP3    H242776   2.432   5.224   2.732  1.5891 -1.0311 -2.1011
 7121TIP3   OH242777   0.701   2.527   3.386  0.1714 -0.1611  0.1722
 7121TIP3    H142778   0.662   2.547   3.301  0.7613 -2.7223 -0.8175
 7121TIP3    H242779   0.629   2.487   3.436  0.0278  0.6176  0.5962
 7122TIP3   OH242780   3.130   6.584   6.384  0.5414  0.0719 -0.1894
 7122TIP3    H142781   3.046   6.630   6.387  0.2414 -0.4338 -0.7431
 7122TIP3    H242782   3.151   6.568   6.476 -0.8371 -1.3538 -0.0736
 7123TIP3   OH242783   3.669   3.587  14.432  0.0421 -0.0189  0.2290
 7123TIP3    H142784   3.755   3.605  14.394 -1.0481  2.5516 -1.2509
 7123TIP3    H242785   3.675   3.619  14.522  0.9964 -1.1473  0.6000
 7124TIP3   OH242786   5.352   6.582   6.003  0.5078  0.2541 -0.1016
 7124TIP3    H142787   5.300   6.501   6.006 -0.8746  1.1254  0.1689
 7124TIP3    H242788   5.425   6.565   6.063 -0.7245 -0.1582  1.3418
 7125TIP3   OH242789   5.636   3.652   5.181  0.1081  0.5905 -0.6662
 7125TIP3    H142790   5.674   3.703   5.253 -0.8380 -0.5620  0.7190
 7125TIP3    H242791   5.646   3.561   5.209 -1.7804  0.1830 -1.2126
 7126TIP3   OH242792   1.189   3.845  17.337  0.6532 -0.3050 -0.1087
 7126TIP3    H142793   1.186   3.893  17.254 -0.5124  0.7348  0.4898
 7126TIP3    H242794   1.142   3.764  17.320 -1.3775  0.7745  0.0068
 7127TIP3   OH242795   3.544   2.901   4.145 -0.1168  0.9832  0.0470
 7127TIP3    H142796   3.500   2.836   4.200  0.4261  0.4962 -0.0783
 7127TIP3    H242797   3.634   2.904   4.179  0.1228  0.9528 -0.5664
 7128TIP3   OH242798   6.283   2.661  14.712 -0.4017 -0.0453  0.5854
 7128TIP3    H142799   6.217   2.594  14.698  0.6679 -1.1178  0.5508
 7128TIP3    H242800   6.237   2.731  14.758 -1.6815 -0.5237  0.0685
 7129TIP3   OH242801   5.686   0.107  15.370  0.7899 -0.0722  0.7146
 7129TIP3    H142802   5.777   0.109  15.340  0.2714 -0.5680 -0.9551
 7129TIP3    H242803   5.690   0.060  15.454  2.1245  0.3459  0.9131
 7130TIP3   OH242804   1.340   2.750   2.334 -0.3808  0.0181 -0.6071
 7130TIP3    H142805   1.399   2.825   2.325 -1.3312  1.2084  2.0284
 7130TIP3    H242806   1.394   2.681   2.372 -0.3343  0.7190  0.6823
 7131TIP3   OH242807   4.472   3.169   1.161  0.0556  0.4146  0.4475
 7131TIP3    H142808   4.413   3.244   1.151 -0.3900 -0.1109 -1.0492
 7131TIP3    H242809   4.464   3.120   1.080  1.5912 -0.3824  0.7264
 7132TIP3   OH242810   1.423   2.436   3.626  0.2999 -0.7330 -0.0550
 7132TIP3    H142811   1.428   2.358   3.681  0.0364 -1.2761 -0.7741
 7132TIP3    H242812   1.495   2.427   3.564 -0.4699 -1.0564 -0.9397
 7133TIP3   OH242813   2.087   1.130   5.108  0.2634  0.0431 -0.3642
 7133TIP3    H142814   2.060   1.160   5.021 -0.1205 -1.5727 -0.8300
 7133TIP3    H242815   2.042   1.047   5.121  2.7480 -1.3677  0.0164
 7134TIP3   OH242816   4.204   4.975  17.081 -0.5276 -0.2255  0.4709
 7134TIP3    H142817   4.247   4.927  17.152  0.0321  0.6502  0.7475
 7134TIP3    H242818   4.270   5.037  17.051 -1.2076  0.3229  0.0809
 7135TIP3   OH242819   0.083   5.238  11.160  0.2577 -0.0694  0.3872
 7135TIP3    H142820   0.063   5.251  11.252  1.4085 -0.4931  0.7217
 7135TIP3    H242821   0.081   5.326  11.122 -0.4085  0.0844  0.7723
 7136TIP3   OH242822   3.675   1.945   6.210 -0.5815  0.0869 -0.4693
 7136TIP3    H142823   3.644   1.922   6.298  0.1957  0.8832  0.0361
 7136TIP3    H242824   3.770   1.945   6.218 -0.5243  1.6011 -0.9241
 7137TIP3   OH242825   1.004   1.584   5.228  0.3974  0.0307 -0.2895
 7137TIP3    H142826   1.097   1.565   5.242 -0.0084 -2.1744 -0.1751
 7137TIP3    H242827   0.967   1.500   5.202 -1.6992  0.7194  0.3199
 7138TIP3   OH242828   1.329   2.751  14.936 -0.4257 -0.0133 -0.2693
 7138TIP3    H142829   1.390   2.790  14.874 -1.5159  3.5430  0.6205
 7138TIP3    H242830   1.376   2.752  15.020 -1.1258  1.4094  0.1417
 7139TIP3   OH242831   4.089   0.363   1.400 -0.2473  0.5285  0.6530
 7139TIP3    H142832   4.175   0.328   1.423 -0.6231 -0.6572  0.3116
 7139TIP3    H242833   4.104   0.457   1.390  1.0598  0.3150  0.3565
 7140TIP3   OH242834   5.228   0.484  17.094  0.0093 -0.5695 -0.3117
 7140TIP3    H142835   5.265   0.404  17.057  0.6378  0.0179 -0.9955
 7140TIP3    H242836   5.163   0.454  17.156  1.8226 -1.6691  1.1708
 7141TIP3   OH242837   2.945   1.228  11.775 -0.1933  0.4818 -0.6402
 7141TIP3    H142838   2.949   1.150  11.721 -3.1177 -1.7122  1.9325
 7141TIP3    H242839   2.877   1.282  11.734 -1.2685 -0.4344 -0.1270
 7142TIP3   OH242840   3.396   0.828  17.157  0.2196  0.0136  0.1963
 7142TIP3    H142841   3.406   0.918  17.190  0.4278  0.7302 -1.6782
 7142TIP3    H242842   3.460   0.777  17.206  1.0253  1.1593  0.3892
 7143TIP3   OH242843   5.582   2.938   4.469 -0.0658 -0.2272 -0.0709
 7143TIP3    H142844   5.656   2.994   4.491 -0.6398  0.9151 -0.8906
 7143TIP3    H242845   5.506   2.996   4.476 -0.3968  0.0888 -3.9959
 7144TIP3   OH242846   1.132   4.578  11.078 -0.6521 -0.5461  0.1078
 7144TIP3    H142847   1.085   4.498  11.054  1.7069 -1.7894 -0.6705
 7144TIP3    H242848   1.150   4.621  10.994  0.2373 -0.4736  0.3317
 7145TIP3   OH242849   3.140   3.682   0.545 -0.2354  0.2481 -0.4314
 7145TIP3    H142850   3.119   3.592   0.567 -0.1850  0.7881  2.1424
 7145TIP3    H242851   3.132   3.730   0.628  0.5115  2.4660 -1.5469
 7146TIP3   OH242852   2.523   1.584   4.156  0.1966 -0.5265  0.0973
 7146TIP3    H142853   2.548   1.546   4.240 -0.8921 -1.3501  0.0773
 7146TIP3    H242854   2.583   1.544   4.093 -0.0392 -1.1830  0.2735
 7147TIP3   OH242855   1.852   3.906  16.695  0.0947  0.1737 -0.2992
 7147TIP3    H142856   1.866   3.859  16.777  0.0362 -0.6662 -0.7618
 7147TIP3    H242857   1.759   3.891  16.674  0.4031 -0.6702 -1.1452
 7148TIP3   OH242858   4.031   0.133  15.194 -0.3047  0.3289 -0.1162
 7148TIP3    H142859   4.005   0.139  15.286  0.4650  0.2819  0.1122
 7148TIP3    H242860   4.117   0.091  15.197 -0.2381  0.4097 -0.8544
 7149TIP3   OH242861   4.183   3.711   5.369 -0.0404  0.5190  0.5964
 7149TIP3    H142862   4.101   3.692   5.416 -0.8220 -0.0222 -0.9274
 7149TIP3    H242863   4.155   3.748   5.285  1.1955 -1.1036 -0.5952
 7150TIP3   OH242864   2.423   5.604  11.365 -0.1278 -0.4254  0.2202
 7150TIP3    H142865   2.511   5.642  11.372 -1.0219  1.9977 -0.5566
 7150TIP3    H242866   2.411   5.589  11.271 -0.5578 -0.7450  0.3224
 7151TIP3   OH242867   5.753   2.461   5.201 -0.1311 -0.5001  0.0431
 7151TIP3    H142868   5.770   2.391   5.138  0.8323  0.2196 -0.5336
 7151TIP3    H242869   5.726   2.416   5.281  0.2646 -1.5081 -0.3746
 7152TIP3   OH242870   2.229   1.536   5.553  0.3436  0.2617  0.4036
 7152TIP3    H142871   2.234   1.487   5.471 -0.2502  0.2942  0.3423
 7152TIP3    H242872   2.319   1.562   5.571  0.5052  0.0871 -0.1363
 7153TIP3   OH242873   6.432   2.240   0.832  0.4736 -0.0826 -0.6080
 7153TIP3    H142874   6.483   2.317   0.858 -1.0878  1.9875 -3.1855
 7153TIP3    H242875   6.430   2.244   0.737 -0.9640 -2.4853 -0.7500
 7154TIP3   OH242876   0.417   1.807   1.567 -0.1011  0.0364 -0.0632
 7154TIP3    H142877   0.462   1.888   1.594 -1.1021  1.2075 -1.7362
 7154TIP3    H242878   0.354   1.791   1.637  0.5664  0.3030  0.6198
 7155TIP3   OH242879   5.836   5.408   4.770 -0.3920  0.1267  0.0205
 7155TIP3    H142880   5.915   5.459   4.751 -0.8457  0.1621 -1.9177
 7155TIP3    H242881   5.856   5.319   4.741  0.0360 -0.6596  2.4788
 7156TIP3   OH242882   5.500   0.774   5.054 -0.1875  0.6647  0.0401
 7156TIP3    H142883   5.432   0.837   5.078 -1.5004 -1.1129  1.2186
 7156TIP3    H242884   5.472   0.692   5.094  2.2373 -0.3457 -0.1707
 7157TIP3   OH242885   1.210   2.030  11.706 -0.0678  0.8546 -0.1027
 7157TIP3    H142886   1.258   2.066  11.781 -0.7864  1.4559  0.0820
 7157TIP3    H242887   1.256   1.949  11.685 -0.5114  0.0877  1.6947
 7158TIP3   OH242888   4.968   0.344   3.478  0.4095 -0.0097  0.0799
 7158TIP3    H142889   5.007   0.392   3.405 -0.2652 -1.0335 -0.9949
 7158TIP3    H242890   4.875   0.368   3.476  0.5560  0.7340  1.2566
 7159TIP3   OH242891   5.739   5.520   3.195 -0.1554 -0.2276 -0.8296
 7159TIP3    H142892   5.658   5.549   3.153 -0.6107  1.6157  1.1378
 7159TIP3    H242893   5.757   5.588   3.260  2.3153 -1.2358 -0.3696
 7160TIP3   OH242894   0.188   2.748  14.730  0.5931 -0.0401 -0.2512
 7160TIP3    H142895   0.272   2.711  14.704  1.5658  0.5236  1.8414
 7160TIP3    H242896   0.136   2.671  14.757  0.9940 -0.2741 -0.1306
 7161TIP3   OH242897   2.232   0.860   2.505 -0.5005  0.0065  0.1309
 7161TIP3    H142898   2.243   0.948   2.470 -0.9574  0.3428  0.8229
 7161TIP3    H242899   2.319   0.820   2.496 -0.0758  0.8077  0.5789
 7162TIP3   OH242900   3.210   0.792  14.599 -0.0673 -0.4437 -0.4031
 7162TIP3    H142901   3.142   0.740  14.555  0.6142 -2.3256  0.6510
 7162TIP3    H242902   3.161   0.848  14.660 -0.7525 -3.2230  1.8695
 7163TIP3   OH242903   5.301   6.383   1.194  0.0422 -0.6085 -0.1323
 7163TIP3    H142904   5.213   6.417   1.179  0.5926  0.9697  0.0153
 7163TIP3    H242905   5.330   6.425   1.275  1.6231  0.4290 -1.1808
 7164TIP3   OH242906   1.434   3.396   0.637 -0.3016  0.1628  0.3143
 7164TIP3    H142907   1.376   3.406   0.561 -0.4546 -0.8408  0.2867
 7164TIP3    H242908   1.388   3.440   0.708 -0.4851  0.4992 -0.0067
 7165TIP3   OH242909   3.311   4.482  11.346 -0.5205  0.1891 -0.6102
 7165TIP3    H142910   3.285   4.526  11.265 -2.4455  1.3574  0.5737
 7165TIP3    H242911   3.405   4.498  11.352 -0.6456  1.6047 -1.7385
 7166TIP3   OH242912   4.311   0.908  17.307 -0.2661  0.3190  0.0480
 7166TIP3    H142913   4.335   0.838  17.367  0.2669  0.1350 -0.3790
 7166TIP3    H242914   4.332   0.874  17.221 -1.5555  0.3620 -0.3030
 7167TIP3   OH242915   1.499   1.285  16.276 -0.4864  0.3011  0.3327
 7167TIP3    H142916   1.522   1.303  16.185  1.0190  1.1535  0.8528
 7167TIP3    H242917   1.445   1.360  16.301 -0.8948  0.0702  0.1656
 7168TIP3   OH242918   5.306   6.602  12.197 -0.1114 -0.2801 -0.0457
 7168TIP3    H142919   5.235   6.661  12.173 -0.8285 -0.4613  1.4753
 7168TIP3    H242920   5.376   6.622  12.136 -1.2720  0.2973 -1.2299
 7169TIP3   OH242921   3.083   3.922   5.124 -0.3144 -0.0781 -0.2237
 7169TIP3    H142922   3.164   3.881   5.155 -0.1562  0.2977 -0.1399
 7169TIP3    H242923   3.025   3.922   5.200 -0.5781 -0.8119 -0.4205
 7170TIP3   OH242924   1.648   1.706  15.536 -0.0272  0.1904 -0.0211
 7170TIP3    H142925   1.637   1.774  15.470  1.9759  0.5978 -0.0033
 7170TIP3    H242926   1.682   1.630  15.488  0.3762  0.1212  0.3657
 7171TIP3   OH242927   5.576   5.766  17.036 -1.2068 -0.4707 -0.0905
 7171TIP3    H142928   5.515   5.835  17.062 -0.4327  0.1563  0.0966
 7171TIP3    H242929   5.520   5.691  17.016 -2.0094 -0.0475  0.5050
 7172TIP3   OH242930   1.175   2.388   6.197  0.3833 -0.1909 -0.3708
 7172TIP3    H142931   1.224   2.469   6.185 -0.5421  0.4026 -0.3155
 7172TIP3    H242932   1.238   2.318   6.182  1.1206  0.5447 -0.7431
 7173TIP3   OH242933   6.541   5.642  16.512 -0.3458 -0.4165 -0.1422
 7173TIP3    H142934   6.496   5.559  16.497 -1.6777  0.5802 -2.1619
 7173TIP3    H242935   6.507   5.674  16.595 -1.1387 -1.0819 -0.2023
 7174TIP3   OH242936   2.671   4.140  14.454 -0.2736  0.1636  0.3027
 7174TIP3    H142937   2.705   4.219  14.411 -0.7960  0.3559  0.2328
 7174TIP3    H242938   2.734   4.072  14.432  0.0018  0.4873  0.0763
 7175TIP3   OH242939   6.625   0.317  14.792 -0.4054  0.3720 -0.2903
 7175TIP3    H142940   6.615   0.254  14.864  1.9173 -0.4498 -0.5955
 7175TIP3    H242941   6.714   0.350  14.802  0.1097 -0.0089 -2.9341
 7176TIP3   OH242942   2.235   4.306  13.889  0.3476  0.1259 -0.1294
 7176TIP3    H142943   2.186   4.243  13.836  0.2990 -0.2778  0.3905
 7176TIP3    H242944   2.171   4.341  13.950  0.5577  0.0808  0.1167
 7177TIP3   OH242945   1.604   6.684   0.593  0.1073  0.1999  0.3551
 7177TIP3    H142946   1.686   6.686   0.642  0.4064 -0.1717 -0.1155
 7177TIP3    H242947   1.620   6.620   0.523 -0.9675 -0.7452  0.9479
 7178TIP3   OH242948   1.625   5.415  15.620  0.0074  0.2741  0.8679
 7178TIP3    H142949   1.703   5.427  15.674  0.9802 -2.4638  0.2602
 7178TIP3    H242950   1.655   5.432  15.531  0.8154 -3.3589  0.2788
 7179TIP3   OH242951   4.685   2.895   1.316 -0.4185 -0.5134  0.0915
 7179TIP3    H142952   4.627   2.929   1.247 -1.1365  0.6985  1.2549
 7179TIP3    H242953   4.773   2.918   1.286 -0.7765  0.8065 -0.0442
 7180TIP3   OH242954   4.783   2.569   4.143 -0.2816 -0.6583 -0.3581
 7180TIP3    H142955   4.857   2.629   4.149 -2.4441  2.2637 -0.3648
 7180TIP3    H242956   4.785   2.519   4.224 -1.0355  2.9926  2.1746
 7181TIP3   OH242957   4.290   0.025  14.251 -0.0120 -0.3631 -0.2989
 7181TIP3    H142958   4.332  -0.039  14.309  1.3567 -1.2119 -2.1029
 7181TIP3    H242959   4.300   0.109  14.296  0.4902 -1.0653  0.9414
 7182TIP3   OH242960   5.160   2.450   4.282  0.5861  0.0498  0.4999
 7182TIP3    H142961   5.234   2.458   4.342  1.1578  1.0365 -0.2927
 7182TIP3    H242962   5.200   2.437   4.196  0.0613  3.7020 -0.4808
 7183TIP3   OH242963   2.330   0.537  14.733  0.4633 -0.8875  0.2112
 7183TIP3    H142964   2.280   0.510  14.810  1.0371 -0.8363  0.6063
 7183TIP3    H242965   2.421   0.539  14.763  0.4875  1.3514  0.1734
 7184TIP3   OH242966   5.733   3.343  16.885 -0.3806  0.1699 -0.7665
 7184TIP3    H142967   5.737   3.395  16.965 -0.9556 -0.5670 -0.2365
 7184TIP3    H242968   5.643   3.353  16.854 -0.7840 -1.1945 -0.1498
 7185TIP3   OH242969   3.806   3.139  12.584  0.1019 -0.1746  0.7587
 7185TIP3    H142970   3.839   3.195  12.654  0.7478  1.1000 -0.5119
 7185TIP3    H242971   3.767   3.200  12.521  0.7427 -1.1596 -0.6341
 7186TIP3   OH242972   4.053   1.138   0.278  0.2268  0.5442  0.5366
 7186TIP3    H142973   4.075   1.122   0.187  3.2199  0.3757  1.1827
 7186TIP3    H242974   4.063   1.053   0.321 -0.0367  0.8535  1.2257
 7187TIP3   OH242975   0.986   4.286  11.695 -0.4772 -0.0865  0.0385
 7187TIP3    H142976   0.933   4.234  11.756 -1.0843 -1.0738 -1.2891
 7187TIP3    H242977   0.933   4.291  11.615  1.3397 -0.9645 -1.2827
 7188TIP3   OH242978   5.498   5.008   0.074 -0.2541  0.1691  0.1368
 7188TIP3    H142979   5.516   5.062  -0.003  1.6635 -0.3555  0.1587
 7188TIP3    H242980   5.546   4.927   0.057 -3.3144 -1.7690 -0.0859
 7189TIP3   OH242981   3.228   0.179  14.957  0.8292 -0.3176 -0.0436
 7189TIP3    H142982   3.304   0.161  14.901 -0.1048 -1.3146 -1.0561
 7189TIP3    H242983   3.187   0.093  14.970 -0.0602  0.1831  0.5724
 7190TIP3   OH242984   5.496   1.582  12.702 -0.2076  0.4913 -0.5266
 7190TIP3    H142985   5.553   1.535  12.641  0.0310 -1.0750  0.8437
 7190TIP3    H242986   5.407   1.558  12.676 -0.1009 -0.3204 -0.1587
 7191TIP3   OH242987   3.997   5.587  15.366 -0.0454 -0.5131  0.5914
 7191TIP3    H142988   3.991   5.525  15.294  0.0992 -0.6544  0.7005
 7191TIP3    H242989   4.071   5.557  15.418 -0.6691 -0.9132  1.2620
 7192TIP3   OH242990   1.185   2.591   1.143 -0.4747 -0.5979  0.0393
 7192TIP3    H142991   1.178   2.496   1.135 -1.3513 -0.5059 -0.2958
 7192TIP3    H242992   1.251   2.604   1.212 -0.8658 -1.4528  0.5927
 7193TIP3   OH242993   3.942   3.996  15.327 -0.3761  0.8164  0.5345
 7193TIP3    H142994   3.861   4.034  15.359  0.2874  1.9086  0.9578
 7193TIP3    H242995   3.941   4.012  15.232 -0.9396  0.2502  0.4375
 7194TIP3   OH242996   2.545   5.000  15.736  0.2151 -0.4615  0.6047
 7194TIP3    H142997   2.526   5.070  15.673 -1.0611  0.9484  2.4445
 7194TIP3    H242998   2.507   4.922  15.697 -1.3841  0.5666  0.0033
 7195TIP3   OH242999   4.631   2.667  15.073 -0.6642 -0.0969  0.3579
 7195TIP3    H143000   4.668   2.677  15.160  1.8681  1.1051 -0.7634
 7195TIP3    H243001   4.641   2.574  15.052  0.7877  0.0163  0.5002
 7196TIP3   OH243002   0.510   0.314  11.596  0.0895 -0.9602 -0.0080
 7196TIP3    H143003   0.554   0.357  11.522  1.3647 -1.9767  0.1231
 7196TIP3    H243004   0.546   0.226  11.597 -0.9302 -1.3857  1.0102
 7197TIP3   OH243005   1.732   3.162   1.283 -0.4391 -0.0457 -0.3357
 7197TIP3    H143006   1.715   3.250   1.317  0.9614  0.3680 -0.6455
 7197TIP3    H243007   1.656   3.143   1.227 -1.6664  0.1876  1.1615
 7198TIP3   OH243008   1.710   2.482  11.013 -0.6072 -0.3462 -0.0883
 7198TIP3    H143009   1.647   2.552  10.999 -0.5043  0.0169  1.1672
 7198TIP3    H243010   1.793   2.518  10.980 -0.8778 -0.5097 -0.9641
 7199TIP3   OH243011   4.705   5.236  14.340  0.1298 -0.9873 -0.4654
 7199TIP3    H143012   4.617   5.272  14.326  0.0022 -1.0963  0.0083
 7199TIP3    H243013   4.742   5.227  14.253 -0.0738 -0.3006 -0.6255
 7200TIP3   OH243014   3.509   3.797   4.170  0.2821  0.1265  0.2390
 7200TIP3    H143015   3.570   3.831   4.104  0.1802  0.8398  0.4990
 7200TIP3    H243016   3.557   3.729   4.215  0.5731  0.0671 -0.1554
 7201TIP3   OH243017   2.781   0.160  12.502  0.0264  0.2586  0.4194
 7201TIP3    H143018   2.823   0.218  12.439 -1.0254  3.0688  2.1296
 7201TIP3    H243019   2.695   0.142  12.465 -0.3232  1.3134  0.7074
 7202TIP3   OH243020   4.435   6.773  10.966 -0.2898 -0.2216  0.5072
 7202TIP3    H143021   4.423   6.868  10.955 -2.1444 -0.4610  0.2663
 7202TIP3    H243022   4.352   6.735  10.940  0.6850 -1.9999 -0.1325
 7203TIP3   OH243023   0.692   2.536   1.971  0.1369  0.0807 -0.4545
 7203TIP3    H143024   0.679   2.494   2.055 -1.7013 -0.1166 -0.8031
 7203TIP3    H243025   0.617   2.509   1.918  0.9026  0.7227 -1.9462
 7204TIP3   OH243026   2.726   2.963  15.549  0.3277 -0.3313 -0.6339
 7204TIP3    H143027   2.746   2.942  15.457 -0.6490 -1.7067 -0.5683
 7204TIP3    H243028   2.682   3.048  15.545  1.2570  0.1391 -1.3170
 7205TIP3   OH243029   3.247   6.511   1.704  0.1141 -0.0489  0.2434
 7205TIP3    H143030   3.159   6.526   1.671  0.4642 -0.2952 -0.8265
 7205TIP3    H243031   3.270   6.424   1.673  1.0711  0.3671 -0.2577
 7206TIP3   OH243032   6.137   4.077  15.811 -0.2509  1.0716 -0.1288
 7206TIP3    H143033   6.093   4.149  15.856  0.4667  1.3818  0.1026
 7206TIP3    H243034   6.188   4.119  15.742 -1.5820  0.5691 -1.4515
 7207TIP3   OH243035   0.706   5.485   6.636 -0.1539  0.6698 -0.0056
 7207TIP3    H143036   0.627   5.454   6.680  0.0617  1.0749  0.7019
 7207TIP3    H243037   0.736   5.411   6.584  0.0841 -0.1531  1.2597
 7208TIP3   OH243038   6.293   0.559  16.389 -0.0916  0.1853 -0.6009
 7208TIP3    H143039   6.311   0.477  16.434  0.3225  1.1235  1.0291
 7208TIP3    H243040   6.207   0.586  16.422 -1.0696 -0.4168 -2.4703
 7209TIP3   OH243041   2.342   5.629  15.684  0.6676 -0.7758  0.1239
 7209TIP3    H143042   2.369   5.551  15.732  2.5877 -0.2459 -0.0335
 7209TIP3    H243043   2.409   5.694  15.703 -0.2098  0.4471 -0.7768
 7210TIP3   OH243044   4.615   2.158   2.876 -0.2244 -0.1244 -1.3499
 7210TIP3    H143045   4.526   2.136   2.850 -0.4550  1.7513 -2.3366
 7210TIP3    H243046   4.651   2.207   2.801  0.7158  1.4159  0.0354
 7211TIP3   OH243047   6.223   6.359  15.073 -0.3743  0.2546 -0.2704
 7211TIP3    H143048   6.313   6.388  15.060  0.1743 -1.3764 -0.4140
 7211TIP3    H243049   6.169   6.428  15.034  0.9175  0.0838 -2.5518
 7212TIP3   OH243050   5.554   1.103   6.127 -0.0516 -0.7160 -0.0362
 7212TIP3    H143051   5.545   1.171   6.194 -1.7782  1.3854 -2.1925
 7212TIP3    H243052   5.626   1.133   6.072  0.5340 -1.7599  0.1342
 7213TIP3   OH243053   2.585   3.654  10.463 -0.0873  0.2182  0.2717
 7213TIP3    H143054   2.505   3.700  10.486 -0.1424 -0.0037  0.5427
 7213TIP3    H243055   2.632   3.713  10.404 -0.9727 -0.1280 -0.7944
 7214TIP3   OH243056   0.944   5.023  15.791  0.5601  0.1207 -0.2747
 7214TIP3    H143057   0.913   5.101  15.747  0.4351 -0.4608 -1.2540
 7214TIP3    H243058   0.891   5.017  15.871 -0.4028  0.2639 -0.8943
 7215TIP3   OH243059   2.886   3.327  12.675 -0.4651  0.2767 -0.3243
 7215TIP3    H143060   2.892   3.382  12.597 -0.5286  0.2748 -0.3306
 7215TIP3    H243061   2.886   3.389  12.748  0.2121  0.2523 -0.2958
 7216TIP3   OH243062   4.494   0.773   1.529 -0.6226 -0.4619 -0.0597
 7216TIP3    H143063   4.470   0.681   1.542 -0.5942 -0.3801  0.5851
 7216TIP3    H243064   4.581   0.780   1.567 -0.6670 -0.1423 -0.0204
 7217TIP3   OH243065   1.035   4.200  15.411 -0.2292 -0.1052 -0.0074
 7217TIP3    H143066   1.017   4.278  15.463 -1.6640  1.1701 -2.2466
 7217TIP3    H243067   1.097   4.229  15.345 -1.4730 -0.5698 -1.4346
 7218TIP3   OH243068   6.076   2.705  11.143 -0.3181 -0.3900 -0.0225
 7218TIP3    H143069   6.017   2.767  11.186 -1.8437 -1.4248 -0.5623
 7218TIP3    H243070   6.031   2.680  11.063  0.6884 -1.5144 -0.2694
 7219TIP3   OH243071   0.665   2.258  11.983 -0.1593  0.2770 -0.2042
 7219TIP3    H143072   0.741   2.203  12.002 -1.1159 -0.4459  1.6741
 7219TIP3    H243073   0.684   2.341  12.027 -0.5281  0.0365  0.4118
 7220TIP3   OH243074   2.120   1.629   3.098 -0.2800  0.6831 -0.2511
 7220TIP3    H143075   2.206   1.600   3.068 -0.1856 -0.1636  0.7970
 7220TIP3    H243076   2.127   1.633   3.193 -1.8544 -1.0071 -0.0020
 7221TIP3   OH243077   3.850   6.586  15.148 -0.5842  0.2474  0.0959
 7221TIP3    H143078   3.874   6.551  15.233 -0.6088  0.3247  0.1347
 7221TIP3    H243079   3.814   6.511  15.100 -0.4252  0.1689  0.0973
 7222TIP3   OH243080   2.509   0.229  12.909 -0.2050 -0.4144  0.3059
 7222TIP3    H143081   2.476   0.278  12.834  0.3493  1.2755  1.1244
 7222TIP3    H243082   2.604   0.229  12.898 -0.1968 -1.5626  0.1949
 7223TIP3   OH243083   1.392   5.670  11.431  0.1051  0.9435  0.4043
 7223TIP3    H143084   1.463   5.607  11.446  0.7941  1.7618  0.6339
 7223TIP3    H243085   1.341   5.632  11.360  0.4283  0.0560  0.6355
 7224TIP3   OH243086   3.662   6.139   2.218 -0.8053 -0.0573 -0.3519
 7224TIP3    H143087   3.588   6.117   2.274 -1.1436  3.0641  0.6168
 7224TIP3    H243088   3.623   6.164   2.134 -0.6656 -0.3441 -0.5052
 7225TIP3   OH243089   5.263   1.667   4.250 -0.8572  0.1392  0.2475
 7225TIP3    H143090   5.357   1.685   4.241 -0.5485 -1.1387  0.7696
 7225TIP3    H243091   5.255   1.574   4.231 -1.8541 -0.0184  1.3994
 7226TIP3   OH243092   4.307   2.551  12.806  0.1013  0.4471  0.0662
 7226TIP3    H143093   4.359   2.544  12.887 -0.2051 -0.5367  0.1876
 7226TIP3    H243094   4.372   2.547  12.736  0.1892 -1.1765  0.2061
 7227TIP3   OH243095   4.390   1.318   1.783  0.0648 -0.3759 -0.3652
 7227TIP3    H143096   4.353   1.336   1.869  0.2125  0.2188 -0.4254
 7227TIP3    H243097   4.472   1.272   1.801  0.6854  0.7835 -0.1430
 7228TIP3   OH243098   5.964   6.211  15.903 -0.2358 -0.2548 -0.1685
 7228TIP3    H143099   5.881   6.195  15.857 -0.3363 -0.3099  0.0301
 7228TIP3    H243100   5.938   6.258  15.982 -0.0271  0.1485 -0.3371
 7229TIP3   OH243101   6.249   1.913  13.493  0.0052 -0.1266 -0.2657
 7229TIP3    H143102   6.255   1.872  13.579 -0.3836  0.1674 -0.0925
 7229TIP3    H243103   6.160   1.950  13.491  0.6706  1.6237  0.0120
 7230TIP3   OH243104   4.023   1.741   1.950  0.0825 -0.2702 -0.1968
 7230TIP3    H143105   3.977   1.661   1.921  0.5113 -0.6110  0.0535
 7230TIP3    H243106   4.040   1.726   2.043 -0.5827  0.4769  0.0598
 7231TIP3   OH243107   2.994   0.533   0.826  0.3959  0.2220 -0.2036
 7231TIP3    H143108   2.990   0.618   0.870  1.0822  0.0668  0.1706
 7231TIP3    H243109   2.980   0.469   0.896 -0.3451  0.0231 -0.5188
 7232TIP3   OH243110   5.516   3.616  15.874  0.0097  0.0077 -0.4084
 7232TIP3    H143111   5.554   3.704  15.877  0.0714 -0.0471  1.1536
 7232TIP3    H243112   5.424   3.628  15.896  0.4505 -0.4969  2.0133
 7233TIP3   OH243113   5.186   6.294  15.092  0.4210 -0.4425  0.0445
 7233TIP3    H143114   5.197   6.358  15.161  0.4678 -0.2983 -0.0966
 7233TIP3    H243115   5.091   6.292  15.076  0.4043 -0.5136  0.1464
 7234TIP3   OH243116   1.601   5.013   5.745 -0.2265 -0.7361 -0.3274
 7234TIP3    H143117   1.550   4.954   5.800 -1.0036  0.6062  0.4680
 7234TIP3    H243118   1.565   5.100   5.764  0.8704  0.0007 -1.4428
 7235TIP3   OH243119   6.696   2.037  13.476  0.4429 -0.1722  0.4621
 7235TIP3    H143120   6.742   2.120  13.466  0.7853 -0.3405  0.6158
 7235TIP3    H243121   6.701   1.995  13.390 -2.3309  1.2619 -0.5241
 7236TIP3   OH243122   1.605   5.697   4.750 -0.2545  0.2330  0.0085
 7236TIP3    H143123   1.645   5.784   4.750 -1.2593  0.7098 -1.2386
 7236TIP3    H243124   1.570   5.687   4.839  0.0735  1.0021  0.2332
 7237TIP3   OH243125   1.069   0.992  13.710 -0.3709 -0.1498  0.2682
 7237TIP3    H143126   1.001   1.036  13.659 -0.3727  0.2851  0.6334
 7237TIP3    H243127   1.150   1.034  13.681 -0.3634  0.0381  0.5592
 7238TIP3   OH243128   4.840   6.721   0.348 -0.4621  0.3689  0.7434
 7238TIP3    H143129   4.881   6.724   0.261 -0.6634 -1.2432  0.5567
 7238TIP3    H243130   4.909   6.748   0.408  0.1538  0.0167  0.2153
 7239TIP3   OH243131   0.679   4.480  12.346 -0.5907  0.0868  0.2696
 7239TIP3    H143132   0.639   4.567  12.352 -0.8651 -0.1288  2.2323
 7239TIP3    H243133   0.646   4.433  12.422 -0.6700 -1.8643 -0.8844
 7240TIP3   OH243134   6.012   5.516   0.681 -0.0491 -0.6128 -0.1999
 7240TIP3    H143135   5.950   5.443   0.669 -0.6018 -0.7674  2.8683
 7240TIP3    H243136   5.956   5.594   0.688  0.1668 -0.5518  1.0617
 7241TIP3   OH243137   5.051   2.481  11.196  0.2475  1.0903  0.5887
 7241TIP3    H143138   4.995   2.551  11.162  0.8179  1.5355  0.5555
 7241TIP3    H243139   5.129   2.485  11.142  0.3622  0.5485  0.7133
 7242TIP3   OH243140   2.842   1.838  13.263 -0.0718  0.4644 -0.2750
 7242TIP3    H143141   2.863   1.911  13.205  2.3560  0.6919  0.7465
 7242TIP3    H243142   2.926   1.795  13.278 -0.7668 -0.1982  2.2218
 7243TIP3   OH243143   4.763   5.794  13.483 -0.2118 -0.4885 -0.3564
 7243TIP3    H143144   4.794   5.707  13.509  1.4199  0.5377  1.3921
 7243TIP3    H243145   4.813   5.816  13.405  0.1388 -0.7102 -0.1945
 7244TIP3   OH243146   6.707   4.980  14.556 -0.2833  0.3950  0.2212
 7244TIP3    H143147   6.692   5.029  14.637 -0.4547  1.6218 -0.5105
 7244TIP3    H243148   6.633   5.005  14.500  0.7434  0.9600 -0.9286
 7245TIP3   OH243149   0.766   0.466  13.342 -0.4228 -0.4218 -0.2138
 7245TIP3    H143150   0.857   0.462  13.372 -1.5309 -1.1501  3.6528
 7245TIP3    H243151   0.744   0.559  13.344 -0.1584 -0.3683  0.2254
 7246TIP3   OH243152   0.830   4.340  11.058 -0.5368 -0.1538 -0.3266
 7246TIP3    H143153   0.909   4.355  11.006  0.0051 -0.7479  0.3072
 7246TIP3    H243154   0.799   4.254  11.031 -0.5429 -0.2426 -0.0465
 7247TIP3   OH243155   6.414   1.360  12.341 -0.5684  0.0921 -0.1206
 7247TIP3    H143156   6.420   1.306  12.263 -1.5194 -1.6944  0.9862
 7247TIP3    H243157   6.359   1.434  12.316 -1.8241 -1.0615 -0.8235
 7248TIP3   OH243158   0.106   5.532  12.687  0.3016  0.0849 -0.8350
 7248TIP3    H143159   0.155   5.453  12.661 -0.4564 -0.0707 -1.8546
 7248TIP3    H243160   0.127   5.597  12.620 -0.7251  0.0691 -1.1962
 7249TIP3   OH243161   5.450   1.370   6.121  0.0562  0.1973  0.3776
 7249TIP3    H143162   5.367   1.403   6.087 -0.3696 -0.4196  0.8010
 7249TIP3    H243163   5.439   1.368   6.216  0.2191 -0.7362  0.3927
 7250TIP3   OH243164   6.763   1.226  14.223 -0.2316  1.2414 -0.1564
 7250TIP3    H143165   6.826   1.196  14.289  1.1724  1.0394 -1.5321
 7250TIP3    H243166   6.702   1.152  14.213  0.7913  0.4290 -0.5743
 7251TIP3   OH243167   5.628   4.778  14.060 -0.5103 -0.3797 -0.4246
 7251TIP3    H143168   5.562   4.714  14.085 -0.3458 -0.5779 -0.4956
 7251TIP3    H243169   5.596   4.861  14.096 -0.7577 -0.4886 -0.3935
 7252TIP3   OH243170   0.302   0.821  14.751 -0.1807  0.4543 -0.1990
 7252TIP3    H143171   0.353   0.901  14.760 -1.4078  1.2714 -0.3270
 7252TIP3    H243172   0.227   0.845  14.697 -0.9805 -0.5783  0.3934
 7253TIP3   OH243173   5.167   6.341  13.811 -0.1706  0.2385  0.1181
 7253TIP3    H143174   5.099   6.286  13.850  0.1168 -1.2817 -1.3912
 7253TIP3    H243175   5.246   6.320  13.861 -0.3200  0.2097  0.3443
 7254TIP3   OH243176   2.978   6.286   0.192 -0.0154 -0.0845  1.0647
 7254TIP3    H143177   2.940   6.198   0.199  0.1376 -0.1698  0.8328
 7254TIP3    H243178   2.931   6.326   0.118  1.5545 -0.8188 -0.4135
 7255TIP3   OH243179   3.357   6.033   6.790  0.9656  0.0640  0.4449
 7255TIP3    H143180   3.424   6.087   6.747 -0.1360  0.5016 -0.8064
 7255TIP3    H243181   3.346   5.957   6.733 -0.0625  0.3288  0.2614
 7256TIP3   OH243182   1.738   3.946   3.514 -0.1270 -0.1321 -0.1659
 7256TIP3    H143183   1.677   4.018   3.499 -1.4855 -1.1004  0.5109
 7256TIP3    H243184   1.691   3.868   3.483  0.6343 -0.9544  0.6867
 7257TIP3   OH243185   1.441   3.555  13.160 -0.4054  0.4750  0.5771
 7257TIP3    H143186   1.352   3.548  13.193 -0.4463  0.0986  0.3961
 7257TIP3    H243187   1.434   3.612  13.083 -0.3054  1.3723  1.2164
 7258TIP3   OH243188   5.130   4.165   1.933 -0.0841 -0.2752 -0.4374
 7258TIP3    H143189   5.101   4.140   1.845  2.8418 -0.5861 -1.4121
 7258TIP3    H243190   5.156   4.257   1.925 -2.1074  0.4842  0.8149
 7259TIP3   OH243191   4.710   4.010   5.656 -0.5090 -0.4861 -0.4489
 7259TIP3    H143192   4.743   4.069   5.724 -1.8313 -1.5667  1.2106
 7259TIP3    H243193   4.784   3.952   5.637 -0.1368 -0.1985  0.0855
 7260TIP3   OH243194   1.036   4.196  13.206  0.3426  0.1680  0.0778
 7260TIP3    H143195   1.082   4.208  13.289 -0.2740  0.1614  0.4263
 7260TIP3    H243196   1.102   4.162  13.146  0.4908 -1.0816  0.9118
 7261TIP3   OH243197   3.911   2.238  14.007 -0.4598 -0.0059  0.0460
 7261TIP3    H143198   3.919   2.150  13.971  0.1934  0.1477 -0.2086
 7261TIP3    H243199   3.932   2.296  13.933  1.5603  0.2996  0.7876
 7262TIP3   OH243200   6.316   5.975   5.807  0.3100  0.1696 -0.1187
 7262TIP3    H143201   6.272   5.934   5.882  1.3291 -3.3542 -1.2384
 7262TIP3    H243202   6.301   5.915   5.734  0.4634  2.8041 -2.5047
 7263TIP3   OH243203   1.116   6.434   3.620 -0.7046  0.1248 -0.0543
 7263TIP3    H143204   1.161   6.463   3.540 -0.7363  1.1228  0.2772
 7263TIP3    H243205   1.151   6.347   3.636 -0.4763  0.0312 -0.9991
 7264TIP3   OH243206   5.726   4.286   4.357 -0.6962  0.4971 -0.0149
 7264TIP3    H143207   5.671   4.218   4.317 -2.8991  0.4831  2.7231
 7264TIP3    H243208   5.678   4.367   4.341 -1.5489  0.5087  2.2286
 7265TIP3   OH243209   3.400   4.932  16.184 -0.1786  0.0003  0.6753
 7265TIP3    H143210   3.451   4.901  16.258 -0.1494 -0.0873  0.6174
 7265TIP3    H243211   3.341   4.859  16.163  0.2006 -0.1903  0.2540
 7266TIP3   OH243212   3.087   2.510  14.942 -0.9592  0.7970 -0.6387
 7266TIP3    H143213   3.071   2.524  15.035 -2.4362  0.3513 -0.7964
 7266TIP3    H243214   3.004   2.534  14.899 -1.8381 -2.9695 -1.4179
 7267TIP3   OH243215   5.512   3.757  11.722 -0.5898  0.6243 -0.2480
 7267TIP3    H143216   5.523   3.753  11.627 -1.3577 -0.4186 -0.3063
 7267TIP3    H243217   5.596   3.725  11.756  0.4892  2.9512 -0.5027
 7268TIP3   OH243218   4.608   2.013   0.742  1.0545 -0.4441  0.2385
 7268TIP3    H143219   4.676   1.953   0.711  1.5666  1.1277 -1.9106
 7268TIP3    H243220   4.650   2.060   0.814  2.3858  0.6062 -1.1459
 7269TIP3   OH243221   2.829   3.014  15.783  0.3966 -0.0733  0.2979
 7269TIP3    H143222   2.758   3.045  15.839  0.3933  2.6307 -1.0634
 7269TIP3    H243223   2.785   2.986  15.703  0.6987 -0.6721  0.3330
 7270TIP3   OH243224   1.309   6.726  12.254 -0.4826  0.5596 -0.0218
 7270TIP3    H143225   1.246   6.666  12.214 -0.5148  0.0223  0.8184
 7270TIP3    H243226   1.349   6.772  12.180 -0.4211 -0.5305 -0.6823
 7271TIP3   OH243227   3.667   3.437  12.500 -0.4495 -0.1730 -0.2666
 7271TIP3    H143228   3.720   3.511  12.471  2.0956 -1.6683  0.2515
 7271TIP3    H243229   3.631   3.464  12.584 -0.1765  0.7618 -0.4429
 7272TIP3   OH243230   3.101   6.484   2.550  0.6877  0.4421 -0.2301
 7272TIP3    H143231   3.010   6.485   2.580  0.1697 -0.3291 -1.6570
 7272TIP3    H243232   3.152   6.458   2.627 -0.2342  1.3165  0.7023
 7273TIP3   OH243233   4.831   5.216  13.780  0.1705  0.2504 -0.7790
 7273TIP3    H143234   4.757   5.239  13.836 -1.2553 -1.6926 -1.7280
 7273TIP3    H243235   4.888   5.163  13.835 -0.5563 -0.5326 -0.7510
 7274TIP3   OH243236   2.671   4.255  16.198 -0.2849  0.5638  0.0673
 7274TIP3    H143237   2.715   4.305  16.267 -2.5296  0.1601  1.9256
 7274TIP3    H243238   2.582   4.289  16.197 -0.7016 -0.4615 -1.6511
 7275TIP3   OH243239   5.858   2.815  15.072  0.1896  0.4092  0.7119
 7275TIP3    H143240   5.800   2.891  15.070  0.1747  0.5021  2.5858
 7275TIP3    H243241   5.850   2.782  15.162  2.6889  0.1506  0.8907
 7276TIP3   OH243242   4.147   0.669  16.578  0.1055  0.0366 -0.0995
 7276TIP3    H143243   4.194   0.662  16.495 -0.5523 -2.0985 -0.3427
 7276TIP3    H243244   4.184   0.599  16.633  0.4143  1.2974  1.3752
 7277TIP3   OH243245   4.281   4.664   4.532 -0.0635  0.2048 -0.2563
 7277TIP3    H143246   4.326   4.724   4.473  1.6352  1.6163  2.3116
 7277TIP3    H243247   4.201   4.710   4.558 -1.1343 -0.6729 -1.7805
 7278TIP3   OH243248   6.140   3.642   0.091  0.1165 -0.0747 -0.2702
 7278TIP3    H143249   6.208   3.668   0.030  0.0999 -1.0725 -0.7385
 7278TIP3    H243250   6.080   3.716   0.094  0.0366 -0.0735 -1.5877
 7279TIP3   OH243251   3.564   4.244   5.720 -0.4342 -0.2919  0.1257
 7279TIP3    H143252   3.649   4.277   5.749 -0.0874  0.3354 -1.5056
 7279TIP3    H243253   3.502   4.311   5.747 -0.1865  0.0341 -0.1029
 7280TIP3   OH243254   6.343   0.238   4.091  0.1322 -0.1310  0.1963
 7280TIP3    H143255   6.435   0.241   4.062  0.9115 -1.5201  2.2631
 7280TIP3    H243256   6.323   0.144   4.096 -1.4608  0.1578 -0.3096
 7281TIP3   OH243257   2.347   0.624   2.880 -0.0164  0.3776 -0.1634
 7281TIP3    H143258   2.255   0.625   2.852  0.0997 -0.0901 -0.5728
 7281TIP3    H243259   2.368   0.716   2.894 -1.0824  0.3702  1.7796
 7282TIP3   OH243260   2.919   5.103   4.367  0.4567 -0.0505 -0.5312
 7282TIP3    H143261   2.911   5.124   4.460 -0.5816  0.3251 -0.6878
 7282TIP3    H243262   2.883   5.015   4.358 -0.3002  0.2700 -0.7089
 7283TIP3   OH243263   5.073   4.927  11.830  0.3703  0.0648 -0.0135
 7283TIP3    H143264   5.099   4.842  11.794  0.7457 -1.1476  2.8714
 7283TIP3    H243265   4.992   4.949  11.784 -0.1906 -2.2530 -0.2619
 7284TIP3   OH243266   1.746   3.315   4.553  0.5126 -0.5055  0.1141
 7284TIP3    H143267   1.677   3.357   4.501  0.3822 -0.8538  0.0085
 7284TIP3    H243268   1.782   3.247   4.496  1.2364 -0.0527  0.0069
 7285TIP3   OH243269   3.069   1.525  12.539  0.0936  0.0298  0.3685
 7285TIP3    H143270   3.007   1.593  12.512 -1.2642 -0.8953  1.0476
 7285TIP3    H243271   3.034   1.493  12.622  0.8807 -1.2898  0.2094
 7286TIP3   OH243272   6.233   5.227   0.051 -0.0024 -0.4966 -0.5317
 7286TIP3    H143273   6.232   5.256   0.142 -0.0139 -1.7444 -0.1264
 7286TIP3    H243274   6.159   5.167   0.044  0.1932 -0.6589 -1.2744
 7287TIP3   OH243275   2.598   3.725  16.146  0.0287  0.0269  0.3350
 7287TIP3    H143276   2.533   3.708  16.215  0.4816 -0.2857  0.6908
 7287TIP3    H243277   2.625   3.815  16.160  0.2084 -0.0734  0.6514
 7288TIP3   OH243278   3.864   6.149   1.715 -0.1587  0.1858 -0.2963
 7288TIP3    H143279   3.834   6.239   1.701 -1.1861 -0.0825  0.0893
 7288TIP3    H243280   3.940   6.158   1.771 -0.6493  0.7845  0.2906
 7289TIP3   OH243281   6.200   4.783   4.831  0.1877 -0.1112  0.1871
 7289TIP3    H143282   6.253   4.857   4.861  0.5255 -0.5796  0.7810
 7289TIP3    H243283   6.143   4.763   4.905 -0.4003 -0.0030 -0.2277
 7290TIP3   OH243284   6.735   0.575   0.021  0.0491  0.4896 -0.8039
 7290TIP3    H143285   6.790   0.496   0.016 -0.1242  0.3252 -0.2225
 7290TIP3    H243286   6.770   0.632  -0.047 -0.7340 -0.6396 -2.2127
 7291TIP3   OH243287   3.299   2.703  14.434 -0.5351  0.1936  0.4290
 7291TIP3    H143288   3.230   2.639  14.417 -0.2559 -0.7498  2.5934
 7291TIP3    H243289   3.373   2.673  14.381 -0.6223 -0.9268  0.9232
 7292TIP3   OH243290   1.896   0.553  10.552 -0.2977 -0.2157  0.3887
 7292TIP3    H143291   1.924   0.464  10.531  0.4137  0.4311 -1.5787
 7292TIP3    H243292   1.800   0.547  10.558 -0.1760 -1.3532  1.6608
 7293TIP3   OH243293   0.990   6.650   3.259 -0.4762 -0.3072  0.0171
 7293TIP3    H143294   0.961   6.568   3.297  0.1312 -0.1317  0.8798
 7293TIP3    H243295   0.932   6.716   3.296 -0.8806 -0.3201 -0.5747
 7294TIP3   OH243296   2.608   3.815   3.543  0.5107 -0.0791  0.0173
 7294TIP3    H143297   2.661   3.739   3.518  1.8965  1.0065 -0.4715
 7294TIP3    H243298   2.667   3.890   3.531 -0.3275  0.9443  1.9754
 7295TIP3   OH243299   1.783   3.617   5.068  0.1889  0.0084 -0.0163
 7295TIP3    H143300   1.817   3.678   5.002  1.1372 -1.4847 -0.9639
 7295TIP3    H243301   1.853   3.553   5.080 -1.1762 -1.5294  0.1329
 7296TIP3   OH243302   1.450   6.046  15.866 -0.6197 -0.1173  0.6051
 7296TIP3    H143303   1.370   6.089  15.894 -1.1344 -2.3581  2.8933
 7296TIP3    H243304   1.421   5.972  15.814  0.1806  0.8616 -1.3683
 7297TIP3   OH243305   4.489   4.960   3.869 -0.0090 -0.1344  0.6689
 7297TIP3    H143306   4.520   4.886   3.920 -0.3374  0.4701  1.7882
 7297TIP3    H243307   4.400   4.937   3.844  0.4296 -0.7806 -0.3600
 7298TIP3   OH243308   5.490   5.082  13.008  0.5444  0.2207 -0.2272
 7298TIP3    H143309   5.461   5.068  12.918 -0.5610  0.6472  0.0380
 7298TIP3    H243310   5.534   5.001  13.032  1.6287  0.4231 -1.4192
 7299TIP3   OH243311   5.380   5.141  12.763 -0.0609 -0.0516 -0.7239
 7299TIP3    H143312   5.398   5.142  12.669  0.0397  0.8590 -0.6997
 7299TIP3    H243313   5.355   5.231  12.784 -0.0149 -0.2315  0.1330
 7300TIP3   OH243314   1.916   0.926  16.232  0.1071 -0.0007  0.0473
 7300TIP3    H143315   1.848   0.978  16.276 -0.5244  0.1773 -1.1140
 7300TIP3    H243316   1.932   0.853  16.292 -1.5631 -0.3850  0.0741
 7301TIP3   OH243317   4.577   5.748   2.722 -0.2223  0.4428  0.3303
 7301TIP3    H143318   4.656   5.765   2.774 -0.2715 -0.1893  0.6195
 7301TIP3    H243319   4.584   5.656   2.698 -0.9108  0.3637  0.4217
 7302TIP3   OH243320   5.166   2.750   5.407  0.3824  0.4545  0.1834
 7302TIP3    H143321   5.085   2.800   5.409 -0.3099 -0.4426 -2.0172
 7302TIP3    H243322   5.233   2.815   5.385 -0.5411  0.5460 -2.9060
 7303TIP3   OH243323   2.292   2.074  14.927  0.5603  0.2845 -0.3903
 7303TIP3    H143324   2.267   1.990  14.887  1.3905 -0.6990  1.0492
 7303TIP3    H243325   2.217   2.131  14.911 -0.1859 -0.8407 -1.0956
 7304TIP3   OH243326   5.049   2.440   1.729 -0.5463  0.1518  0.1539
 7304TIP3    H143327   5.063   2.386   1.651 -0.9165 -0.1423  0.2865
 7304TIP3    H243328   5.006   2.519   1.697  0.2228  0.4803 -0.0761
 7305TIP3   OH243329   3.593   5.665  10.843  0.1914 -0.2539 -0.4316
 7305TIP3    H143330   3.543   5.745  10.823 -0.1266 -0.5063 -0.6586
 7305TIP3    H243331   3.537   5.594  10.814  0.6853 -0.5458 -0.6788
 7306TIP3   OH243332   3.533   3.230  13.786  0.1149  0.6781 -0.2460
 7306TIP3    H143333   3.563   3.234  13.695 -1.7867  0.6534 -0.9169
 7306TIP3    H243334   3.538   3.320  13.817  1.5383  0.5662 -0.0763
 7307TIP3   OH243335   1.098   6.294   2.484  0.3949  0.4554 -0.3060
 7307TIP3    H143336   1.042   6.299   2.407 -0.5045  0.6343  0.3419
 7307TIP3    H243337   1.114   6.385   2.508 -1.1488  0.4136  0.9923
 7308TIP3   OH243338   6.767   6.061   0.628  0.1223 -0.6541  0.2601
 7308TIP3    H143339   6.749   6.143   0.674  0.7132  0.0321 -0.6812
 7308TIP3    H243340   6.861   6.049   0.635  0.0341 -1.2671  0.4128
 7309TIP3   OH243341   0.359   2.634  11.989  0.0409  0.2756 -0.1526
 7309TIP3    H143342   0.312   2.709  11.954  0.3053  0.3554 -0.3349
 7309TIP3    H243343   0.317   2.558  11.950 -2.3722  0.1054  2.4430
 7310TIP3   OH243344   6.117   0.495  15.031 -0.8623 -0.0342  0.0538
 7310TIP3    H143345   6.196   0.485  15.084 -0.4087  0.8621 -0.4314
 7310TIP3    H243346   6.047   0.464  15.087 -0.2204 -0.4021  0.6695
 7311TIP3   OH243347   0.549   6.000  14.223  0.0520 -0.3000  0.2264
 7311TIP3    H143348   0.547   6.050  14.305 -0.1821  0.6556 -0.3435
 7311TIP3    H243349   0.591   6.059  14.160  0.4686 -1.1228 -0.2828
 7312TIP3   OH243350   4.178   3.290  16.326 -0.0531  0.0796  0.1632
 7312TIP3    H143351   4.253   3.346  16.348 -2.2846  2.7579  1.7348
 7312TIP3    H243352   4.176   3.290  16.230  1.4148  0.7409  0.1020
 7313TIP3   OH243353   5.090   5.380  14.517 -0.4360 -0.2450 -0.0553
 7313TIP3    H143354   5.058   5.291  14.527 -0.1026 -0.4754 -0.9088
 7313TIP3    H243355   5.024   5.423  14.461 -0.4803 -0.0217  0.1668
 7314TIP3   OH243356   3.783   4.298  15.067 -0.4852 -0.2852  0.1796
 7314TIP3    H143357   3.703   4.314  15.018  0.5715 -0.1928 -1.6229
 7314TIP3    H243358   3.826   4.383  15.073  1.8757 -0.9855 -3.4624
 7315TIP3   OH243359   6.267   1.593   1.314 -0.0420  0.3326 -0.2932
 7315TIP3    H143360   6.215   1.647   1.374 -1.0689  0.9169 -1.6828
 7315TIP3    H243361   6.353   1.588   1.356 -0.8096  0.4729  1.3792
 7316TIP3   OH243362   1.105   0.796   0.708 -0.5084 -0.6432  0.0772
 7316TIP3    H143363   1.146   0.801   0.622  0.7677 -1.0375  0.6329
 7316TIP3    H243364   1.110   0.885   0.743  1.1771 -0.9318  0.6838
 7317TIP3   OH243365   6.295   3.088  13.949 -0.0833 -0.0404  0.4037
 7317TIP3    H143366   6.256   3.082  13.862 -0.3216 -0.0792  0.5131
 7317TIP3    H243367   6.269   3.008  13.994  2.5437 -1.5038 -0.4886
 7318TIP3   OH243368   6.518   6.474   3.450  0.0166  0.1178 -0.5425
 7318TIP3    H143369   6.542   6.545   3.509  0.2428  0.5476 -1.1412
 7318TIP3    H243370   6.598   6.422   3.442 -0.0901 -0.0904 -0.2663
 7319TIP3   OH243371   0.812   4.280   5.379  0.8530 -0.6877  0.2728
 7319TIP3    H143372   0.868   4.299   5.454  0.5476  0.2770  0.2728
 7319TIP3    H243373   0.750   4.353   5.376  1.5696 -0.0761 -1.5805
 7320TIP3   OH243374   4.927   6.721  15.695 -0.2815 -0.1211  0.3611
 7320TIP3    H143375   5.018   6.731  15.666 -0.0053  3.2967  1.9752
 7320TIP3    H243376   4.875   6.762  15.626 -0.1576  1.9641  1.4389
 7321TIP3   OH243377   2.262   6.486  12.019 -0.7163 -0.0574 -0.0779
 7321TIP3    H143378   2.281   6.577  12.041 -0.5346 -0.4299  1.3843
 7321TIP3    H243379   2.263   6.440  12.103 -2.4015 -1.1249 -0.5927
 7322TIP3   OH243380   0.944   4.826   4.114  0.0066 -0.5092 -0.1744
 7322TIP3    H143381   0.980   4.830   4.025 -1.9229  2.2084 -0.9974
 7322TIP3    H243382   0.903   4.912   4.127 -3.5316 -2.2235  1.6708
 7323TIP3   OH243383   4.564   0.934   3.998 -0.5767  0.1946  0.2941
 7323TIP3    H143384   4.623   0.898   4.064 -0.4769  0.9308  0.6161
 7323TIP3    H243385   4.518   0.858   3.962  2.3423 -0.7640 -1.7802
 7324TIP3   OH243386   2.822   2.854   2.722 -0.0784 -0.4617  0.0359
 7324TIP3    H143387   2.825   2.764   2.691  2.3693 -1.4050  2.6163
 7324TIP3    H243388   2.791   2.904   2.646 -1.1754 -3.3553 -1.6033
 7325TIP3   OH243389   0.168   3.251   1.940 -0.3203 -0.3089 -0.4640
 7325TIP3    H143390   0.245   3.260   1.996  0.0418  0.8591 -1.1105
 7325TIP3    H243391   0.185   3.173   1.887  0.8449  0.4154 -1.2057
 7326TIP3   OH243392   0.700   2.696  13.365  0.3254 -0.3479  0.0129
 7326TIP3    H143393   0.777   2.701  13.422  1.8904 -0.0962 -1.9934
 7326TIP3    H243394   0.724   2.750  13.289 -2.1539  0.3507 -0.3577
 7327TIP3   OH243395   5.912   2.034   4.553  0.0636  0.0857  0.1724
 7327TIP3    H143396   5.974   1.963   4.537 -0.1607  0.2046 -1.4091
 7327TIP3    H243397   5.918   2.051   4.647  1.2767 -0.9495  0.3051
 7328TIP3   OH243398   0.356   0.972   5.623 -0.4921 -0.1531  0.1710
 7328TIP3    H143399   0.358   0.883   5.588 -2.0297  0.3245 -1.2421
 7328TIP3    H243400   0.300   0.966   5.700  0.6762 -0.6751  1.0162
 7329TIP3   OH243401   6.712   0.500   4.904  0.4059  0.0845 -0.1054
 7329TIP3    H143402   6.765   0.443   4.959  0.1404 -2.0632 -1.9415
 7329TIP3    H243403   6.623   0.465   4.910  0.3548 -0.1453 -1.7484
 7330TIP3   OH243404   4.662   0.470  15.967  0.6270 -0.5668 -0.6324
 7330TIP3    H143405   4.692   0.440  16.053 -2.9485 -1.2647  0.5435
 7330TIP3    H243406   4.650   0.564  15.977  1.4557 -0.4398 -0.8018
 7331TIP3   OH243407   1.096   5.939  10.904  0.2875 -0.2736 -0.2943
 7331TIP3    H143408   1.023   5.985  10.863 -0.2237  0.4018  1.2781
 7331TIP3    H243409   1.147   6.009  10.947  1.6229 -0.7841 -0.9933
 7332TIP3   OH243410   0.938   0.591  16.287 -0.3419 -0.2960  0.2850
 7332TIP3    H143411   1.013   0.542  16.321  1.4391  0.6136 -2.0462
 7332TIP3    H243412   0.917   0.654  16.356  2.5520  0.9164  0.2159
 7333TIP3   OH243413   4.832   2.456   0.019 -0.0476 -0.3204 -0.2815
 7333TIP3    H143414   4.750   2.421   0.053 -0.5248  1.1844  0.2137
 7333TIP3    H243415   4.901   2.410   0.068 -0.6668 -0.0875  0.8505
 7334TIP3   OH243416   1.141   1.538   5.833 -0.0516 -0.0549  0.2213
 7334TIP3    H143417   1.078   1.516   5.764  0.0302 -2.1816  0.7364
 7334TIP3    H243418   1.227   1.530   5.791 -0.0217 -0.8873  0.4071
 7335TIP3   OH243419   2.338   1.261  11.121  0.6697  0.2164  0.7824
 7335TIP3    H143420   2.387   1.315  11.183  0.1005  0.1985  1.2452
 7335TIP3    H243421   2.248   1.263  11.152  0.4378 -0.0703  0.1509
 7336TIP3   OH243422   5.922   1.547   3.759  0.1403 -0.1110  0.4616
 7336TIP3    H143423   5.910   1.579   3.848  1.1154  0.3711  0.4322
 7336TIP3    H243424   5.841   1.572   3.714  0.0863  0.6029  0.9359
 7337TIP3   OH243425   6.026   1.606  13.317 -0.0556  0.5451  0.4092
 7337TIP3    H143426   6.115   1.601  13.353 -0.1846  0.2684  0.6930
 7337TIP3    H243427   6.037   1.587  13.224  0.4577  2.5409  0.0178
 7338TIP3   OH243428   1.605   6.102  11.987  0.5215  0.4019 -0.1385
 7338TIP3    H143429   1.685   6.146  12.015  1.2903  0.1515 -1.7960
 7338TIP3    H243430   1.622   6.009  12.003 -0.0318  0.4497  0.8329
 7339TIP3   OH243431   0.677   6.448  16.220  0.0950  0.9313 -0.1453
 7339TIP3    H143432   0.744   6.471  16.285 -1.0633 -0.0765  1.4664
 7339TIP3    H243433   0.725   6.401  16.152  0.9230 -0.7039  1.4929
 7340TIP3   OH243434   2.984   5.420   4.568  0.3058  0.7554 -0.6289
 7340TIP3    H143435   3.018   5.509   4.564  1.5134  0.2670 -2.2032
 7340TIP3    H243436   3.048   5.372   4.621 -0.4811  0.8655  0.4407
 7341TIP3   OH243437   5.653   0.186  12.502 -0.3514  0.3376 -0.2506
 7341TIP3    H143438   5.636   0.101  12.542 -1.3150 -0.3623 -2.0357
 7341TIP3    H243439   5.571   0.235  12.513  0.5001  1.4649  1.6255
 7342TIP3   OH243440   5.455   4.583   1.264 -0.5791 -0.4037  0.0332
 7342TIP3    H143441   5.361   4.564   1.263 -0.8698  0.7196  1.6573
 7342TIP3    H243442   5.488   4.548   1.181 -2.2390 -1.7095 -0.1202
 7343TIP3   OH243443   4.693   6.041   2.782  0.2190 -0.4550 -0.6585
 7343TIP3    H143444   4.701   5.953   2.818  1.2065 -0.6358 -1.2778
 7343TIP3    H243445   4.599   6.058   2.778  0.0547 -0.6867  1.3339
 7344TIP3   OH243446   4.267   5.924   5.839 -0.3407  0.4681  0.2611
 7344TIP3    H143447   4.209   5.988   5.882 -1.5657 -1.3503  1.4772
 7344TIP3    H243448   4.212   5.885   5.770 -0.2189 -0.4930  0.6921
 7345TIP3   OH243449   3.693   6.481  17.147  0.1737 -0.5286  0.5216
 7345TIP3    H143450   3.767   6.541  17.141 -0.9974  1.0154  0.9062
 7345TIP3    H243451   3.704   6.421  17.073  0.6375  1.0338 -0.7165
 7346TIP3   OH243452   0.773   4.549  12.773 -0.3162 -0.2468  0.8680
 7346TIP3    H143453   0.828   4.527  12.848  0.1728  1.3310  1.0062
 7346TIP3    H243454   0.827   4.608  12.720 -1.5148  0.5432  0.4944
 7347TIP3   OH243455   6.124   6.192  11.992 -0.5059 -0.2112 -0.3132
 7347TIP3    H143456   6.180   6.230  11.924 -1.7329  1.9393 -0.2068
 7347TIP3    H243457   6.064   6.263  12.016 -2.0785 -1.8598  0.8748
 7348TIP3   OH243458   3.728   2.635  17.215 -0.1363  0.0071  0.1696
 7348TIP3    H143459   3.793   2.605  17.278  1.0389  1.5659 -0.2293
 7348TIP3    H243460   3.767   2.615  17.129 -1.0307 -0.7005 -0.0949
 7349TIP3   OH243461   2.863   1.657  11.697  0.8150  0.0445  0.4005
 7349TIP3    H143462   2.821   1.572  11.691  0.0941  0.4050  0.2722
 7349TIP3    H243463   2.888   1.679  11.607  2.2898 -0.6546  0.6067
 7350TIP3   OH243464   6.422   2.971  15.364  0.0935 -0.6046  0.6210
 7350TIP3    H143465   6.398   2.917  15.288  0.6023  0.2810 -0.1790
 7350TIP3    H243466   6.340   2.981  15.412 -0.1187 -1.6558  0.5132
 7351TIP3   OH243467   6.124   0.357   5.147 -0.3241 -0.0454 -0.3031
 7351TIP3    H143468   6.195   0.318   5.096 -1.5344 -0.3100 -1.8469
 7351TIP3    H243469   6.071   0.283   5.176 -0.1287  0.1673  0.6235
 7352TIP3   OH243470   1.640   3.735  15.149 -0.1049  0.3463  0.3134
 7352TIP3    H143471   1.695   3.774  15.081 -1.3080 -1.1246 -1.5889
 7352TIP3    H243472   1.630   3.805  15.214  1.8293  1.5083 -0.5394
 7353TIP3   OH243473   6.614   6.682  11.632  0.0318 -0.0332 -0.2308
 7353TIP3    H143474   6.522   6.693  11.609  0.1722  2.4116  0.0350
 7353TIP3    H243475   6.656   6.651  11.552 -0.8393 -0.0329 -0.6960
 7354TIP3   OH243476   2.388   3.477   3.573 -0.2372  0.3710  0.4825
 7354TIP3    H143477   2.454   3.478   3.504  1.3392  0.6429  1.9381
 7354TIP3    H243478   2.404   3.396   3.621 -0.4000  0.8405  1.3563
 7355TIP3   OH243479   5.506   3.438  10.494 -0.6244 -0.1119  0.3177
 7355TIP3    H143480   5.445   3.371  10.524 -0.9885 -0.2819 -0.7722
 7355TIP3    H243481   5.502   3.507  10.561  0.0208 -1.3043  1.6511
 7356TIP3   OH243482   1.278   3.131  12.828  1.0330  0.4414  0.4937
 7356TIP3    H143483   1.250   3.206  12.776  1.4993 -0.0982 -0.5689
 7356TIP3    H243484   1.368   3.151  12.854  1.4586 -0.1031 -0.5107
 7357TIP3   OH243485   1.939   5.724   1.656  0.1119 -0.5229  0.5761
 7357TIP3    H143486   1.846   5.704   1.657  0.5832 -3.0895  2.2790
 7357TIP3    H243487   1.981   5.640   1.638  2.1290  0.4061  0.7130
 7358TIP3   OH243488   1.596   1.597  12.860  0.5942  0.4630 -0.1936
 7358TIP3    H143489   1.639   1.655  12.922  0.1363  0.2324  0.3421
 7358TIP3    H243490   1.659   1.589  12.787  1.0334  0.9091  0.1330
 7359TIP3   OH243491   2.499   1.181  11.816  0.0022  0.1978  0.0665
 7359TIP3    H143492   2.496   1.221  11.903 -1.3156  0.1940  0.0441
 7359TIP3    H243493   2.586   1.140  11.812 -0.3418 -0.8296  1.8621
 7360TIP3   OH243494   1.072   2.652   4.694 -0.5289  0.1082  0.1620
 7360TIP3    H143495   1.030   2.729   4.654 -0.3746  0.5113  0.7519
 7360TIP3    H243496   1.110   2.686   4.775  0.0953 -0.4641  0.1141
 7361TIP3   OH243497   5.045   2.130  15.627  0.1423  0.7046 -0.0501
 7361TIP3    H143498   4.990   2.106  15.701  0.9575  3.0013  1.4136
 7361TIP3    H243499   5.134   2.131  15.661  0.8703 -0.5302 -1.7365
 7362TIP3   OH243500   4.127   0.840  15.013 -0.0116  0.1854  0.1251
 7362TIP3    H143501   4.079   0.770  14.967 -1.4770  0.5887  0.9719
 7362TIP3    H243502   4.059   0.890  15.058  0.7137  3.4458 -2.0647
 7363TIP3   OH243503   5.883   2.313  16.499  0.2441 -0.2846 -0.1086
 7363TIP3    H143504   5.894   2.377  16.429  1.7333  0.0256  0.3756
 7363TIP3    H243505   5.962   2.260  16.496  1.3342  0.9920  2.5522
 7364TIP3   OH243506   0.003   0.893  12.164 -0.1220 -0.1584  0.2925
 7364TIP3    H143507   0.014   0.846  12.246  1.3820 -0.4068 -0.0213
 7364TIP3    H243508   0.088   0.886  12.120 -0.3516  1.4306 -0.5142
 7365TIP3   OH243509   1.245   3.916  12.588 -0.2291 -0.0966  0.0524
 7365TIP3    H143510   1.182   3.877  12.527 -0.6070 -1.1762  1.0963
 7365TIP3    H243511   1.328   3.873  12.566  0.0757  0.9767 -1.0020
 7366TIP3   OH243512   0.809   5.148   0.923  0.1261 -0.1105  0.2998
 7366TIP3    H143513   0.739   5.207   0.893  1.1917 -0.0183 -2.2879
 7366TIP3    H243514   0.763   5.067   0.946 -0.8764  0.0043 -1.1577
 7367TIP3   OH243515   3.023   2.996  13.715 -0.3015 -0.1119  0.0701
 7367TIP3    H143516   2.983   3.021  13.798 -0.3293 -1.2504  0.4151
 7367TIP3    H243517   3.001   2.903  13.704  1.2356 -0.4644 -0.3024
 7368TIP3   OH243518   6.382   3.559  10.935  0.1997  0.1997  0.0707
 7368TIP3    H143519   6.387   3.647  10.974 -2.9096  1.0089 -1.0128
 7368TIP3    H243520   6.295   3.527  10.960  1.0265 -2.3730 -0.0649
 7369TIP3   OH243521   4.134   3.059  15.549  0.4637  1.0498 -0.0878
 7369TIP3    H143522   4.208   3.002  15.571 -0.8453 -1.4241 -1.6693
 7369TIP3    H243523   4.078   3.055  15.627 -0.3018 -1.1350 -0.6649
 7370TIP3   OH243524   0.343   6.767   0.088 -0.2168 -0.0687 -0.3033
 7370TIP3    H143525   0.271   6.804   0.036 -1.0722  0.9537  1.5290
 7370TIP3    H243526   0.416   6.827   0.074 -1.7786  3.0025  3.1742
 7371TIP3   OH243527   0.300   0.875   1.955  0.3483 -0.5121  0.4699
 7371TIP3    H143528   0.351   0.949   1.922  0.9468 -0.8656  0.6041
 7371TIP3    H243529   0.346   0.845   2.033 -0.9328  0.1682  1.5410
 7372TIP3   OH243530   4.745   6.190  11.828 -0.2151 -0.4271  0.3509
 7372TIP3    H143531   4.751   6.285  11.825  0.6304 -0.4584  0.8828
 7372TIP3    H243532   4.827   6.159  11.789 -0.2804 -0.9313  0.5995
 7373TIP3   OH243533   0.481   6.097   0.524  0.2119 -0.3422  0.1442
 7373TIP3    H143534   0.547   6.118   0.590  0.7030  0.9315 -0.7055
 7373TIP3    H243535   0.402   6.142   0.554  0.0951 -0.7654  0.4773
 7374TIP3   OH243536   6.157   5.324   1.473 -0.2075 -0.2491 -0.3839
 7374TIP3    H143537   6.138   5.239   1.512 -1.1897 -0.4366 -1.1973
 7374TIP3    H243538   6.187   5.379   1.545 -1.0040 -0.8670  0.4332
 7375TIP3   OH243539   4.860   2.037  15.800  0.2744  0.1059  0.0888
 7375TIP3    H143540   4.788   2.017  15.740  1.2808  0.9328 -1.4511
 7375TIP3    H243541   4.829   2.006  15.885 -1.8964  0.3848 -0.5244
 7376TIP3   OH243542   0.312   6.186  12.700 -0.1580 -0.0196  0.8582
 7376TIP3    H143543   0.372   6.259  12.713  0.6328 -0.5556  0.3159
 7376TIP3    H243544   0.343   6.118  12.760  0.1797 -0.5234  0.1332
 7377TIP3   OH243545   3.087   4.506  16.043  0.2664  0.3194  0.6207
 7377TIP3    H143546   3.000   4.545  16.051  0.3021  0.5165  0.0984
 7377TIP3    H243547   3.070   4.416  16.017  0.2001  0.1300  1.2918
 7378TIP3   OH243548   5.270   0.268   6.168 -0.0947 -0.3023 -0.0063
 7378TIP3    H143549   5.270   0.172   6.168 -0.7233 -0.3091 -0.3762
 7378TIP3    H243550   5.191   0.292   6.119 -0.1817  0.4026  0.4611
 7379TIP3   OH243551   0.733   1.368  13.392  0.3086 -0.1794 -0.4257
 7379TIP3    H143552   0.674   1.391  13.321 -1.7083  0.0615  1.2253
 7379TIP3    H243553   0.694   1.408  13.470  1.3287 -2.0614  1.1455
 7380TIP3   OH243554   2.033   1.905   3.666 -0.5102  0.6500  0.2003
 7380TIP3    H143555   2.043   1.874   3.576 -1.0121  0.4517  0.2069
 7380TIP3    H243556   2.070   1.993   3.666  1.3204 -0.0642  0.2636
 7381TIP3   OH243557   5.991   0.160   4.372  0.6522  0.5957  0.0767
 7381TIP3    H143558   6.055   0.185   4.439  0.3278 -0.8894  0.9809
 7381TIP3    H243559   6.017   0.210   4.294  1.4139  1.8851  1.1200
 7382TIP3   OH243560   1.669   6.753  10.784  0.3543  0.0092  0.4079
 7382TIP3    H143561   1.735   6.816  10.757  0.6095 -0.5818 -0.3592
 7382TIP3    H243562   1.590   6.778  10.735 -0.4351  1.5534  2.3134
 7383TIP3   OH243563   3.121   1.269   2.514 -0.1367 -0.0543  0.6338
 7383TIP3    H143564   3.205   1.301   2.481  0.8144 -1.5759  1.4793
 7383TIP3    H243565   3.096   1.200   2.452  0.0848 -0.7292  1.2689
 7384TIP3   OH243566   6.664   0.764   4.849  0.3037  0.2420  0.6125
 7384TIP3    H143567   6.583   0.791   4.891  0.1053  2.1608 -0.8560
 7384TIP3    H243568   6.671   0.670   4.867 -1.9978  0.1297  1.1660
 7385TIP3   OH243569   1.796   6.229  12.505  0.3608 -0.1096 -0.0009
 7385TIP3    H143570   1.883   6.270  12.508  0.1096  0.6608 -1.5953
 7385TIP3    H243571   1.736   6.303  12.497 -0.2903 -0.6938 -0.6865
 7386TIP3   OH243572   0.047   2.572   0.839 -0.0750 -0.0002  0.8069
 7386TIP3    H143573   0.125   2.623   0.818 -0.4314  0.7191  1.1961
 7386TIP3    H243574   0.068   2.529   0.923  0.6636 -1.4474 -0.0715
 7387TIP3   OH243575   4.528   2.301   6.171  0.6665  0.3647 -0.4788
 7387TIP3    H143576   4.519   2.394   6.191 -2.4210 -0.2444  1.7810
 7387TIP3    H243577   4.440   2.265   6.184  1.9094 -3.0471 -0.3288
 7388TIP3   OH243578   2.333   4.490   6.746  0.1481  0.1949 -0.5893
 7388TIP3    H143579   2.293   4.576   6.738 -0.8281 -0.2795 -0.9586
 7388TIP3    H243580   2.314   4.446   6.663  0.6717 -0.3636 -0.4272
 7389TIP3   OH243581   2.777   2.818  17.276 -0.0702 -0.4284 -0.1055
 7389TIP3    H143582   2.703   2.761  17.253  2.0846 -3.4675  0.0136
 7389TIP3    H243583   2.788   2.804  17.370  1.2821 -0.8447 -0.3142
 7390TIP3   OH243584   2.834   5.165   1.367  0.0569 -0.7323  0.0844
 7390TIP3    H143585   2.798   5.224   1.301  1.2121 -0.8146 -0.6264
 7390TIP3    H243586   2.840   5.220   1.446 -2.0593 -0.8452  0.3937
 7391TIP3   OH243587   1.391   1.622   6.089  0.2211  0.2039  0.3073
 7391TIP3    H143588   1.402   1.614   5.994 -1.1253  0.9937  0.0549
 7391TIP3    H243589   1.429   1.708   6.110 -0.4174  0.4960  0.2993
 7392TIP3   OH243590   4.215   6.222   2.830 -0.1990  0.1294 -0.6176
 7392TIP3    H143591   4.207   6.280   2.754  2.3589 -0.2094 -1.2380
 7392TIP3    H243592   4.229   6.281   2.904 -1.2389  0.4114 -0.6407
 7393TIP3   OH243593   3.510   4.979   1.676  0.4826  0.0465  0.5536
 7393TIP3    H143594   3.478   4.924   1.605  0.6692 -0.8708  1.1645
 7393TIP3    H243595   3.437   5.037   1.697 -1.1799 -2.5170  2.4466
 7394TIP3   OH243596   4.682   3.558  15.225  0.1415 -0.1050 -0.3661
 7394TIP3    H143597   4.600   3.518  15.194 -0.1046  0.0015  0.1461
 7394TIP3    H243598   4.734   3.571  15.145  0.7094 -2.5027 -0.4611
 7395TIP3   OH243599   0.828   2.370   5.689 -0.6520 -0.4792 -0.5225
 7395TIP3    H143600   0.772   2.443   5.715 -0.9683 -1.4032  1.5980
 7395TIP3    H243601   0.915   2.408   5.679 -0.3449 -0.0847  2.7070
 7396TIP3   OH243602   2.184   4.168   4.250  0.7823 -0.2292  0.9376
 7396TIP3    H143603   2.124   4.221   4.197 -0.8706 -0.6798  2.2732
 7396TIP3    H243604   2.258   4.226   4.268 -0.1487  1.0168  0.8656
 7397TIP3   OH243605   0.550   1.611   1.373 -0.0772 -0.0931 -0.3643
 7397TIP3    H143606   0.577   1.571   1.456  1.1946  0.9090 -0.2663
 7397TIP3    H243607   0.505   1.692   1.399 -1.3358 -0.6884 -0.6099
 7398TIP3   OH243608   0.227   4.394  11.314 -0.4834  0.0755 -0.3873
 7398TIP3    H143609   0.216   4.411  11.221 -1.1037  0.2480 -0.2870
 7398TIP3    H243610   0.307   4.341  11.320 -0.3068  0.2707 -0.9880
 7399TIP3   OH243611   4.954   3.121   4.789 -0.2160 -0.1364 -0.1343
 7399TIP3    H143612   4.993   3.116   4.702  0.4782 -0.8530  0.2067
 7399TIP3    H243613   4.915   3.209   4.793 -1.8109 -0.6853 -1.8036
 7400TIP3   OH243614   6.332   4.160  16.295 -0.1895 -0.3301 -0.5727
 7400TIP3    H143615   6.350   4.151  16.202 -1.3167 -0.8461 -0.7627
 7400TIP3    H243616   6.399   4.220  16.327  0.7708 -0.8605 -1.5294
 7401TIP3   OH243617   4.983   3.682  16.141  0.0191 -0.1620  0.5190
 7401TIP3    H143618   4.976   3.592  16.174 -1.4849  0.2769  1.4613
 7401TIP3    H243619   4.991   3.736  16.220 -1.6713  0.7321  0.1163
 7402TIP3   OH243620   1.912   1.594  11.395  0.0066 -0.0500 -1.2934
 7402TIP3    H143621   1.923   1.671  11.339  1.4613 -0.0176 -1.0063
 7402TIP3    H243622   1.970   1.611  11.470 -2.2443  0.1434  0.5241
 7403TIP3   OH243623   0.953   5.595  12.082 -0.7427  0.2934 -0.5377
 7403TIP3    H143624   0.881   5.630  12.134 -1.2720 -0.9803 -0.3876
 7403TIP3    H243625   0.978   5.514  12.127 -0.4953 -0.2773 -1.6698
 7404TIP3   OH243626   4.181   0.945  15.774  0.5756  0.1021 -0.0188
 7404TIP3    H143627   4.111   0.999  15.737 -0.1865 -0.7710  0.1206
 7404TIP3    H243628   4.228   0.912  15.697  0.2157 -0.1105 -0.1502
 7405TIP3   OH243629   3.972   3.108  15.926 -0.0774 -0.4307 -0.2655
 7405TIP3    H143630   3.935   3.048  15.991  1.0411 -1.0668 -0.1831
 7405TIP3    H243631   3.916   3.099  15.849 -0.0843 -1.3632 -0.1542
 7406TIP3   OH243632   5.676   0.738  12.998  0.1337  0.4446 -0.1300
 7406TIP3    H143633   5.648   0.723  12.908  2.8320  0.7889 -1.1346
 7406TIP3    H243634   5.646   0.826  13.019 -2.2667 -0.3743  0.1002
 7407TIP3   OH243635   3.353   3.076   4.872 -0.0960  0.3197 -0.0072
 7407TIP3    H143636   3.388   3.072   4.783 -0.3283 -2.3531 -0.0584
 7407TIP3    H243637   3.290   3.004   4.877  0.8866 -0.5029  2.7016
 7408TIP3   OH243638   5.575   3.785   1.038  0.3544  0.3028 -0.4148
 7408TIP3    H143639   5.526   3.867   1.038  1.5350  1.0353 -0.4778
 7408TIP3    H243640   5.528   3.729   0.977 -1.3612  0.3539  0.7743
 7409TIP3   OH243641   0.701   6.554  12.330  0.1550 -0.3834  0.2012
 7409TIP3    H143642   0.621   6.604  12.338  0.4692 -0.0258  1.2187
 7409TIP3    H243643   0.763   6.598  12.388  0.8091 -1.1941  0.1344
 7410TIP3   OH243644   1.213   2.252  12.157 -0.2623  0.2587 -0.1014
 7410TIP3    H143645   1.190   2.181  12.216 -0.3069 -1.6657 -2.2903
 7410TIP3    H243646   1.243   2.209  12.077 -0.6615  2.6929 -1.7021
 7411TIP3   OH243647   4.140   5.674   3.865 -0.2287 -0.1399  0.2481
 7411TIP3    H143648   4.197   5.597   3.868 -0.1000 -0.1565 -1.5815
 7411TIP3    H243649   4.171   5.724   3.789 -0.7651  1.3642  0.9756
 7412TIP3   OH243650   2.708   2.737  13.064  0.2370 -0.7021  0.4192
 7412TIP3    H143651   2.648   2.804  13.097  0.2424 -1.5051  2.1849
 7412TIP3    H243652   2.656   2.657  13.062  0.8396 -1.1027  0.5025
 7413TIP3   OH243653   3.967   1.570   3.238 -0.1437  0.7875 -0.0934
 7413TIP3    H143654   4.056   1.542   3.215 -0.5892 -0.9112  0.1762
 7413TIP3    H243655   3.928   1.595   3.154  0.6186  1.7337 -0.1930
 7414TIP3   OH243656   2.794   1.471   1.947 -0.2450 -0.4886  0.3927
 7414TIP3    H143657   2.832   1.553   1.980  1.3590 -1.0693  0.0895
 7414TIP3    H243658   2.760   1.493   1.861 -2.1768  0.4401  1.3274
 7415TIP3   OH243659   2.103   4.315  15.064 -0.2894  0.4548 -0.0325
 7415TIP3    H143660   2.118   4.371  15.141 -0.4873  0.6641 -0.1447
 7415TIP3    H243661   2.124   4.372  14.990 -0.6010  0.4144 -0.1507
 7416TIP3   OH243662   3.877   2.968  10.988 -0.2990 -0.3665  0.4213
 7416TIP3    H143663   3.948   3.029  11.011  1.0351 -1.3946 -0.7767
 7416TIP3    H243664   3.807   2.990  11.049  0.3726  1.8910  0.5046
 7417TIP3   OH243665   4.344   1.405   6.099  0.4148 -0.2997 -0.0458
 7417TIP3    H143666   4.261   1.408   6.147  0.3161 -0.5458 -0.1948
 7417TIP3    H243667   4.389   1.486   6.122  0.7005 -0.7548  1.0636
 7418TIP3   OH243668   5.201   6.613  13.194  0.0056 -0.3124 -0.3124
 7418TIP3    H143669   5.141   6.687  13.195  1.7619  1.2005  1.0969
 7418TIP3    H243670   5.232   6.606  13.284  1.6386 -1.2479 -0.9028
 7419TIP3   OH243671   4.117   0.692  11.763  0.6548  0.4142 -0.6081
 7419TIP3    H143672   4.049   0.709  11.828 -0.3117  0.8606 -1.6962
 7419TIP3    H243673   4.194   0.668  11.814 -0.0523  0.8336  0.6917
 7420TIP3   OH243674   2.090   1.645  12.286  0.2013  0.5386 -0.3533
 7420TIP3    H143675   2.122   1.733  12.303 -0.5830  0.6023  0.9184
 7420TIP3    H243676   1.999   1.647  12.316 -0.2352 -0.3381 -1.5356
 7421TIP3   OH243677   0.231   2.893   4.960 -0.2220  0.1719 -0.8610
 7421TIP3    H143678   0.151   2.861   5.001  0.8140 -0.6480  0.6319
 7421TIP3    H243679   0.267   2.955   5.023  1.8354 -1.7338 -0.0204
 7422TIP3   OH243680   6.698   4.263   2.240  0.4950  0.1545  0.0197
 7422TIP3    H143681   6.735   4.193   2.187 -0.8927 -1.7828  1.4604
 7422TIP3    H243682   6.705   4.341   2.185 -1.3315 -1.7623 -3.2404
 7423TIP3   OH243683   6.281   4.658  14.013 -0.6765  0.2767 -0.5328
 7423TIP3    H143684   6.293   4.745  13.975  2.2808  0.4314  0.5068
 7423TIP3    H243685   6.260   4.674  14.105  1.7384 -0.0382  0.1189
 7424TIP3   OH243686   3.427   0.925  12.850 -0.3302  0.0140 -0.1110
 7424TIP3    H143687   3.369   0.902  12.923 -2.7081  0.6451 -1.6950
 7424TIP3    H243688   3.425   0.850  12.792  0.5249  0.0228 -0.1692
 7425TIP3   OH243689   2.434   2.714  15.088 -0.3918  0.1173  0.8226
 7425TIP3    H143690   2.431   2.802  15.049  0.2138 -0.2124  0.0149
 7425TIP3    H243691   2.369   2.718  15.159 -0.8254  1.0240  0.3993
 7426TIP3   OH243692   0.263   4.078  11.205 -0.3973 -0.2107 -0.3995
 7426TIP3    H143693   0.246   4.008  11.268  1.4919 -1.5671 -1.3031
 7426TIP3    H243694   0.357   4.073  11.187 -0.3159  2.1632 -1.0063
 7427TIP3   OH243695   2.466   6.698  12.918  0.1005 -0.6856  0.5956
 7427TIP3    H143696   2.464   6.792  12.898 -2.1836 -0.2447  2.4703
 7427TIP3    H243697   2.559   6.679  12.931  0.6794  1.1554 -0.4490
 7428TIP3   OH243698   2.011   6.473  11.970 -0.2276  0.1600 -0.2131
 7428TIP3    H143699   2.023   6.404  11.905 -0.6470 -0.3670  0.2621
 7428TIP3    H243700   2.100   6.507  11.985  0.1152 -0.8704  0.1961
 7429TIP3   OH243701   0.304   1.813   5.134 -0.6473 -0.2233  0.0072
 7429TIP3    H143702   0.264   1.847   5.054 -0.0312  1.4764  0.3957
 7429TIP3    H243703   0.323   1.721   5.113 -1.1019  0.0024 -1.5534
 7430TIP3   OH243704   3.929   5.354  14.007  1.0722 -0.0280  0.3040
 7430TIP3    H143705   3.879   5.434  13.995 -0.6072 -0.6717  2.3614
 7430TIP3    H243706   4.014   5.383  14.041  1.0022  0.9205 -0.3055
 7431TIP3   OH243707   1.043   2.640   2.765  0.5678  0.0657  0.1726
 7431TIP3    H143708   1.064   2.716   2.820  1.9203 -0.0673 -0.1242
 7431TIP3    H243709   1.070   2.667   2.677 -0.4575 -0.1716 -0.2254
 7432TIP3   OH243710   4.094   0.397   6.071  0.4574 -0.8552  0.3818
 7432TIP3    H143711   4.125   0.484   6.046  0.8785 -1.1285 -0.0830
 7432TIP3    H243712   4.018   0.413   6.127  1.3715 -0.1695  1.4466
 7433TIP3   OH243713   5.492   3.098   1.981  0.1565 -0.9547 -0.3451
 7433TIP3    H143714   5.482   3.097   1.886  3.5515 -0.9461 -0.8313
 7433TIP3    H243715   5.477   3.007   2.007 -0.8829 -0.9436 -0.8506
 7434TIP3   OH243716   2.338   2.999  11.619 -0.4595  0.9251 -0.3267
 7434TIP3    H143717   2.259   2.977  11.669 -0.4839 -3.9484 -1.9938
 7434TIP3    H243718   2.313   2.985  11.528  1.6965  1.8314 -1.1144
 7435TIP3   OH243719   5.338   1.823   0.357  0.1902 -0.6113 -0.3755
 7435TIP3    H143720   5.352   1.759   0.287 -1.0909 -0.0776 -1.1398
 7435TIP3    H243721   5.351   1.773   0.437  1.5470 -1.2654 -0.9722
 7436TIP3   OH243722   0.894   0.453  12.641  0.4367  0.0061  0.0002
 7436TIP3    H143723   0.875   0.471  12.549  0.9071  1.3845  0.1463
 7436TIP3    H243724   0.817   0.484  12.688  0.7518  0.5486  0.1662
 7437TIP3   OH243725   5.016   4.259   0.581 -0.0462  0.0816  0.3368
 7437TIP3    H143726   4.975   4.192   0.636  1.6030 -0.4909  0.9239
 7437TIP3    H243727   4.955   4.332   0.583 -0.4741 -0.2770  2.1629
 7438TIP3   OH243728   3.608   4.825   0.689 -0.0512  0.2465  0.2476
 7438TIP3    H143729   3.542   4.764   0.655  1.4639 -1.5162  0.3327
 7438TIP3    H243730   3.569   4.911   0.677 -1.6171 -0.6250 -1.3605
 7439TIP3   OH243731   4.351   2.934   4.193  0.6668  0.6519 -0.1025
 7439TIP3    H143732   4.399   2.851   4.196  0.3223  0.3611 -1.7422
 7439TIP3    H243733   4.273   2.918   4.246  1.3807  0.4893  0.9445
 7440TIP3   OH243734   3.392   0.777   0.551 -0.1622 -0.7001 -0.1870
 7440TIP3    H143735   3.307   0.738   0.568 -0.8834  1.5416  1.7793
 7440TIP3    H243736   3.380   0.826   0.470 -0.7517 -0.3541  0.1098
 7441TIP3   OH243737   3.579   2.822  14.085 -0.3683 -0.1433 -0.3629
 7441TIP3    H143738   3.532   2.834  14.003 -2.6194 -1.2628  0.6552
 7441TIP3    H243739   3.598   2.911  14.116 -0.6417  0.3079 -1.4631
 7442TIP3   OH243740   5.051   0.604   3.926 -0.0564 -0.0763 -0.0162
 7442TIP3    H143741   5.114   0.564   3.867  1.1134  2.2613 -0.4988
 7442TIP3    H243742   4.982   0.638   3.869  0.2999  0.8306  0.0645
 7443TIP3   OH243743   1.383   1.932   1.319  0.1001  0.1813 -0.3483
 7443TIP3    H143744   1.343   1.935   1.406 -0.8844  0.5251 -0.7944
 7443TIP3    H243745   1.474   1.955   1.333 -0.1086  0.4831  0.5650
 7444TIP3   OH243746   3.064   1.474  15.000 -0.9596  0.4340  0.1274
 7444TIP3    H143747   3.015   1.394  14.980  1.7968 -0.7400 -2.8046
 7444TIP3    H243748   3.051   1.531  14.925  1.7994  0.1516 -0.6890
 7445TIP3   OH243749   0.440   6.387  14.625 -0.0924 -0.6441 -0.3110
 7445TIP3    H143750   0.381   6.450  14.584 -0.3527 -0.4527  0.3376
 7445TIP3    H243751   0.389   6.306  14.630 -1.1060  0.0352  2.0856
 7446TIP3   OH243752   3.807   3.970   5.023 -0.5730 -0.0088  0.1305
 7446TIP3    H143753   3.820   3.955   5.117  0.4022  2.3734  0.4372
 7446TIP3    H243754   3.756   3.894   4.994 -2.2475 -0.0816  2.8913
 7447TIP3   OH243755   1.499   1.085   1.202  0.4572 -0.0375  0.2447
 7447TIP3    H143756   1.450   1.139   1.140  0.5271  0.1746  0.3704
 7447TIP3    H243757   1.511   1.142   1.279  1.5868  0.2030 -0.0880
 7448TIP3   OH243758   6.309   0.013  13.102  0.7461 -0.2317  0.3110
 7448TIP3    H143759   6.270  -0.057  13.154  0.4207  0.9470  1.7053
 7448TIP3    H243760   6.290   0.093  13.151  0.9381  0.8627 -1.3423
 7449TIP3   OH243761   2.175   2.360  10.794  0.3900 -0.1151 -0.0073
 7449TIP3    H143762   2.145   2.422  10.860 -0.0282  0.0621 -0.3643
 7449TIP3    H243763   2.166   2.274  10.836  0.4104  0.0170  0.2702
 7450TIP3   OH243764   1.044   3.178   1.169 -0.6245  0.7955  0.0257
 7450TIP3    H143765   1.086   3.125   1.237  0.9120 -1.0423 -2.2138
 7450TIP3    H243766   0.951   3.172   1.188 -0.2350  0.5330  2.0700
 7451TIP3   OH243767   0.372   4.786   4.289 -0.0457  0.5291  0.1791
 7451TIP3    H143768   0.406   4.848   4.225  0.9811  0.7257  0.8840
 7451TIP3    H243769   0.397   4.823   4.374  0.7088 -0.8869  0.6132
 7452TIP3   OH243770   5.456   6.562   1.879 -0.0571  0.2356 -0.5179
 7452TIP3    H143771   5.525   6.506   1.843  0.1514  0.9900 -1.3153
 7452TIP3    H243772   5.501   6.622   1.938 -0.1783  0.0659 -0.2483
 7453TIP3   OH243773   0.432   5.433  15.214 -0.3533  0.2948  0.3466
 7453TIP3    H143774   0.418   5.481  15.132  0.4385 -0.9861 -0.5741
 7453TIP3    H243775   0.357   5.456  15.268 -2.5472 -1.1706 -1.8828
 7454TIP3   OH243776   5.242   6.037   5.070  0.4230  0.6951  0.9650
 7454TIP3    H143777   5.328   6.023   5.109 -0.2034  1.3841  2.6948
 7454TIP3    H243778   5.208   6.115   5.114 -2.1874 -1.1025  2.4235
 7455TIP3   OH243779   0.301   0.363  11.768 -0.1735  0.7593  0.3227
 7455TIP3    H143780   0.225   0.305  11.757 -0.1892  1.0952 -1.9238
 7455TIP3    H243781   0.361   0.338  11.697  1.3564  1.2192  1.4023
 7456TIP3   OH243782   3.664   4.106  17.152  0.1677  0.1302 -0.1475
 7456TIP3    H143783   3.575   4.103  17.186  0.6395  0.5714  1.1848
 7456TIP3    H243784   3.710   4.036  17.199  0.2667 -0.8737 -1.6672
 7457TIP3   OH243785   6.509   3.397  12.073 -0.5550 -0.0725  0.4558
 7457TIP3    H143786   6.433   3.345  12.098 -0.8399 -0.6010 -1.3565
 7457TIP3    H243787   6.584   3.349  12.108 -0.5664 -3.4010 -3.4084
 7458TIP3   OH243788   3.196   1.161   0.002  0.4268 -0.5274 -0.0009
 7458TIP3    H143789   3.233   1.240   0.042 -0.9113 -1.0937  2.6324
 7458TIP3    H243790   3.101   1.172   0.011  0.2153 -2.7653  1.2962
 7459TIP3   OH243791   3.858   5.754  12.825 -0.1436 -0.1423 -0.4274
 7459TIP3    H143792   3.945   5.727  12.854 -0.2865 -0.2184 -0.0569
 7459TIP3    H243793   3.863   5.755  12.730 -0.0946 -1.3531 -0.4514
 7460TIP3   OH243794   0.652   3.652  12.575 -0.4767  0.3140 -0.3131
 7460TIP3    H143795   0.654   3.715  12.503 -0.0084  2.4039  1.4124
 7460TIP3    H243796   0.742   3.648  12.606 -0.6489 -0.6363  0.1144
 7461TIP3   OH243797   3.076   6.429  10.661  0.5901 -0.0240 -0.1453
 7461TIP3    H143798   3.128   6.380  10.598  2.4166 -0.2154  1.4067
 7461TIP3    H243799   3.097   6.520  10.644  1.3417 -0.0937  0.3867
 7462TIP3   OH243800   0.147   4.312   4.123 -0.2832 -0.5042  0.1007
 7462TIP3    H143801   0.092   4.315   4.201 -1.5924  1.0175 -0.7979
 7462TIP3    H243802   0.177   4.403   4.112  0.4937 -0.8465 -0.7231
 7463TIP3   OH243803   0.067   3.099  17.213 -0.2664  0.4567  0.6903
 7463TIP3    H143804   0.042   3.154  17.139 -0.8000  1.0508  1.2992
 7463TIP3    H243805  -0.012   3.095  17.267  0.2501  0.4080  1.4588
 7464TIP3   OH243806   4.985   6.051  11.738 -0.0631  0.4693  0.5520
 7464TIP3    H143807   5.016   5.987  11.803 -0.3367  0.7134  0.9298
 7464TIP3    H243808   5.033   6.131  11.759 -1.6523  1.1561  1.8138
 7465TIP3   OH243809   0.234   6.440  16.174 -0.7275 -0.0532  0.1712
 7465TIP3    H143810   0.179   6.516  16.155 -0.3729  0.3162  0.6107
 7465TIP3    H243811   0.182   6.365  16.143 -0.1999  0.4764 -2.2223
 7466TIP3   OH243812   1.498   6.318   0.709  0.2058  0.0199 -0.2607
 7466TIP3    H143813   1.550   6.259   0.655 -0.3200 -0.4759 -0.2316
 7466TIP3    H243814   1.408   6.303   0.681 -0.0982 -0.4042  0.8863
 7467TIP3   OH243815   2.000   0.578  16.687 -0.0461  0.9449  0.3433
 7467TIP3    H143816   2.012   0.583  16.781 -1.3495  2.3276  0.4896
 7467TIP3    H243817   2.089   0.575  16.651  0.4518 -0.3305  1.6188
 7468TIP3   OH243818   3.829   1.081  16.521  0.2376  0.5046 -0.6563
 7468TIP3    H143819   3.835   0.986  16.515  0.3268  0.3922  0.7773
 7468TIP3    H243820   3.919   1.110  16.536  0.2136  0.8230 -1.1088
 7469TIP3   OH243821   2.841   5.298  10.968 -0.6371  0.2222 -0.1080
 7469TIP3    H143822   2.798   5.213  10.974  1.8679 -1.0380  2.6024
 7469TIP3    H243823   2.907   5.287  10.900 -0.6147  0.1378 -0.0728
 7470TIP3   OH243824   6.145   2.296   4.434  0.0922  0.0580 -0.2791
 7470TIP3    H143825   6.050   2.288   4.436  0.2018 -1.3420  0.6339
 7470TIP3    H243826   6.177   2.223   4.488  1.5963  1.6758  1.1672
 7471TIP3   OH243827   2.464   2.694   6.118 -0.2716  0.7692 -0.3094
 7471TIP3    H143828   2.495   2.628   6.180 -1.0790  0.3957 -0.2890
 7471TIP3    H243829   2.405   2.750   6.170 -0.5182  0.7897 -0.6093
 7472TIP3   OH243830   4.323   6.727  10.705  0.3897 -0.0634  0.3479
 7472TIP3    H143831   4.371   6.710  10.623  0.7388 -0.4052  0.6197
 7472TIP3    H243832   4.335   6.820  10.720  1.7511 -0.2955  0.8855
 7473TIP3   OH243833   2.215   1.962   4.664 -0.0537 -0.6151 -0.2638
 7473TIP3    H143834   2.200   1.917   4.747 -0.8788 -1.5632 -0.9002
 7473TIP3    H243835   2.215   1.892   4.598 -1.8243  0.3197 -1.3421
 7474TIP3   OH243836   3.077   2.670  17.345  0.0498  0.1144 -0.0345
 7474TIP3    H143837   3.034   2.739  17.295  0.3081 -0.3165 -0.8754
 7474TIP3    H243838   3.049   2.684  17.435 -0.0034  1.2384 -0.2123
 7475TIP3   OH243839   2.584   5.808  15.714  0.4834 -0.2921 -0.5377
 7475TIP3    H143840   2.599   5.844  15.802  1.3144  0.4002 -0.9494
 7475TIP3    H243841   2.563   5.885  15.660 -1.5590 -0.8631 -0.6608
 7476TIP3   OH243842   2.241   4.087  14.998 -0.3662  0.1089 -0.2489
 7476TIP3    H143843   2.194   4.167  15.024 -2.2432 -0.8081 -0.6330
 7476TIP3    H243844   2.189   4.052  14.925  0.3679 -1.5152 -0.0259
 7477TIP3   OH243845   5.669   3.842  13.882 -0.1255 -0.3354  0.1379
 7477TIP3    H143846   5.602   3.870  13.818  1.0188 -0.1700 -1.0216
 7477TIP3    H243847   5.698   3.924  13.922  1.4634 -0.0496 -1.4912
 7478TIP3   OH243848   1.202   5.315  13.320  0.2118  0.2512  0.0364
 7478TIP3    H143849   1.246   5.269  13.248  0.9218  2.0193 -0.7209
 7478TIP3    H243850   1.121   5.348  13.282 -1.0011 -1.4731  0.9586
 7479TIP3   OH243851   3.401   1.300  16.261  0.1102 -0.2168  0.4319
 7479TIP3    H143852   3.451   1.233  16.309 -0.5433  0.3374  1.9427
 7479TIP3    H243853   3.355   1.250  16.193  2.3149 -0.8001 -0.7312
 7480TIP3   OH243854   0.025   6.771   5.047  0.1736  0.2925  0.2791
 7480TIP3    H143855   0.117   6.784   5.021  0.5155 -1.3866  0.5689
 7480TIP3    H243856   0.026   6.693   5.101 -1.3650  0.5862  0.7778
 7481TIP3   OH243857   0.267   2.682  15.884 -0.2555  0.0980 -0.9780
 7481TIP3    H143858   0.317   2.602  15.901  1.1012  0.6391 -2.1736
 7481TIP3    H243859   0.257   2.685  15.789  0.2982  1.6600 -1.0282
 7482TIP3   OH243860   6.191   5.259  16.833 -0.3944 -0.8759 -0.1482
 7482TIP3    H143861   6.161   5.336  16.880  0.6601  0.6975 -1.8916
 7482TIP3    H243862   6.174   5.186  16.892 -1.2354  0.7019  1.6577
 7483TIP3   OH243863   3.794   2.362   0.798  0.0548  0.2555  0.0188
 7483TIP3    H143864   3.772   2.269   0.797 -0.0097  0.2617  0.5859
 7483TIP3    H243865   3.800   2.386   0.706 -0.1818 -0.2495 -0.1320
 7484TIP3   OH243866   4.382   6.432  10.904 -0.3730 -0.3632  0.5209
 7484TIP3    H143867   4.433   6.491  10.850 -1.5856  0.2763  0.0388
 7484TIP3    H243868   4.443   6.401  10.971  0.4120  1.0438  0.4827
 7485TIP3   OH243869   3.619   4.734   2.838 -0.0298 -0.2474 -0.9200
 7485TIP3    H143870   3.562   4.799   2.799  0.9624  1.0252 -0.3070
 7485TIP3    H243871   3.581   4.718   2.925  0.8338  1.0468 -0.2737
 7486TIP3   OH243872   5.284   1.854   5.126 -1.2623  0.1707 -0.0353
 7486TIP3    H143873   5.294   1.935   5.076  2.3130  1.3490  2.1717
 7486TIP3    H243874   5.251   1.883   5.211 -0.7924 -0.7785  0.4907
 7487TIP3   OH243875   0.113   1.481   2.282 -0.6602 -0.5830  0.0085
 7487TIP3    H143876   0.038   1.420   2.282 -0.9002 -0.2992  1.0638
 7487TIP3    H243877   0.074   1.566   2.299 -0.1272 -0.3907  0.2699
 7488TIP3   OH243878   0.703   0.212   2.219 -0.2062  0.3255 -0.3053
 7488TIP3    H143879   0.671   0.136   2.168 -1.6742 -0.2283  1.3390
 7488TIP3    H243880   0.726   0.277   2.152 -4.4786  0.6268 -1.7884
 7489TIP3   OH243881   5.508   3.484  10.809  0.5283  0.1511  0.0656
 7489TIP3    H143882   5.443   3.479  10.739 -0.3647  0.4054  0.8604
 7489TIP3    H243883   5.457   3.475  10.890  1.4835  0.3300  0.7005
 7490TIP3   OH243884   6.531   5.154  12.125 -0.0315 -0.0057 -0.3003
 7490TIP3    H143885   6.486   5.164  12.209 -2.6818  0.2728 -1.6738
 7490TIP3    H243886   6.543   5.244  12.094 -0.1573 -0.1545 -0.7771
 7491TIP3   OH243887   3.159   6.101   4.400 -0.0618 -0.3345  0.2878
 7491TIP3    H143888   3.177   6.168   4.465 -1.5893 -0.3399  0.7552
 7491TIP3    H243889   3.142   6.149   4.319  1.3102 -0.3031 -0.0023
 7492TIP3   OH243890   3.072   4.949  15.805 -0.7558 -0.8743  0.5095
 7492TIP3    H143891   3.162   4.966  15.833 -0.9676  0.6345  0.3469
 7492TIP3    H243892   3.080   4.879  15.740  0.5300  0.4956 -0.8678
 7493TIP3   OH243893   3.634   0.806  13.363 -0.0607  0.0168  0.0618
 7493TIP3    H143894   3.630   0.848  13.276 -0.7515  0.1286  0.1416
 7493TIP3    H243895   3.655   0.877  13.423  0.7338 -0.1168 -0.0455
 7494TIP3   OH243896   5.370   4.653   4.762 -0.3236  0.2014 -0.1334
 7494TIP3    H143897   5.372   4.559   4.745  2.0482  0.6484 -3.1052
 7494TIP3    H243898   5.413   4.663   4.847  0.5263 -1.3213 -0.3497
 7495TIP3   OH243899   5.304   3.871  13.562  0.3421  0.8716 -0.9950
 7495TIP3    H143900   5.381   3.909  13.520 -0.6190  0.7486 -2.9804
 7495TIP3    H243901   5.258   3.946  13.601  0.0816  1.3503 -2.1749
 7496TIP3   OH243902   6.372   4.547   5.751 -0.0763 -0.1881 -0.1021
 7496TIP3    H143903   6.446   4.518   5.699  0.9255  2.3628 -0.2177
 7496TIP3    H243904   6.404   4.549   5.841 -0.2045  0.2710 -0.0619
 7497TIP3   OH243905   3.751   0.933   1.343 -0.5889 -0.2969  0.0974
 7497TIP3    H143906   3.842   0.951   1.318 -0.5457  0.5163  0.8253
 7497TIP3    H243907   3.703   1.011   1.318 -1.1504 -0.8389 -0.5462
 7498TIP3   OH243908   4.603   0.828   0.665  0.3744 -0.2048 -0.2282
 7498TIP3    H143909   4.656   0.907   0.660  1.1267 -0.6146  0.8661
 7498TIP3    H243910   4.648   0.765   0.608  0.1639 -0.0655 -0.5515
 7499TIP3   OH243911   4.921   2.754  15.076 -0.4204  0.4123  0.4282
 7499TIP3    H143912   4.828   2.733  15.064  0.3132 -2.7407 -0.8609
 7499TIP3    H243913   4.931   2.841  15.037 -2.8171  0.8330  0.6137
 7500TIP3   OH243914   1.521   0.112  14.952 -0.1879 -0.2160  0.0028
 7500TIP3    H143915   1.579   0.049  14.994 -1.4365 -0.5377  1.3301
 7500TIP3    H243916   1.471   0.060  14.889 -0.4607 -0.3568  0.3297
 7501TIP3   OH243917   6.397   6.472  14.423  0.2634 -0.5834  0.9575
 7501TIP3    H143918   6.402   6.512  14.336  2.9598  0.1152  1.3121
 7501TIP3    H243919   6.315   6.424  14.423  0.4850 -1.2038 -2.2422
 7502TIP3   OH243920   4.386   4.363   0.153  0.1341  0.0065 -0.5446
 7502TIP3    H143921   4.367   4.356   0.059 -0.2086  0.3566 -0.4989
 7502TIP3    H243922   4.302   4.348   0.196  0.3753 -0.6243 -0.2684
 7503TIP3   OH243923   4.400   5.723   0.969 -0.0100  0.0753 -0.1290
 7503TIP3    H143924   4.469   5.699   1.031  1.5612  1.1468 -1.4006
 7503TIP3    H243925   4.325   5.670   0.996  1.2982 -1.1565  1.2826
 7504TIP3   OH243926   5.102   2.196   0.782  0.1407  0.7374 -0.2296
 7504TIP3    H143927   5.163   2.270   0.783  0.8708  0.1577  0.4529
 7504TIP3    H243928   5.049   2.208   0.861  0.3960  0.4364 -0.0085
 7505TIP3   OH243929   6.646   0.191   2.513  0.4360  0.6784 -0.5210
 7505TIP3    H143930   6.675   0.210   2.603  0.5823 -0.6180 -0.2837
 7505TIP3    H243931   6.595   0.268   2.488 -1.3278  0.2256  1.4143
 7506TIP3   OH243932   2.804   6.717   1.060 -0.4076  0.1561 -0.0564
 7506TIP3    H143933   2.745   6.791   1.074 -2.5505 -1.7072  1.5721
 7506TIP3    H243934   2.884   6.757   1.026 -1.5644  3.1543  0.3672
 7507TIP3   OH243935   5.696   0.059   0.238 -0.0375 -0.3332 -0.5130
 7507TIP3    H143936   5.650  -0.011   0.284 -0.4954 -0.2121 -0.7824
 7507TIP3    H243937   5.785   0.057   0.273 -0.7017  0.6276  1.3637
 7508TIP3   OH243938   0.683   6.580  12.707  0.6813 -0.2397 -0.4911
 7508TIP3    H143939   0.757   6.618  12.755 -0.1589  0.1596  0.5409
 7508TIP3    H243940   0.638   6.656  12.669 -0.2103 -0.2990  0.4111
 7509TIP3   OH243941   2.374   0.713   3.296  0.0161 -0.4005 -0.6855
 7509TIP3    H143942   2.293   0.692   3.250  1.2719  0.6917 -3.6023
 7509TIP3    H243943   2.431   0.639   3.281  0.4123 -0.0776 -0.7842
 7510TIP3   OH243944   1.958   4.455  15.308  0.2690 -0.6755 -0.3978
 7510TIP3    H143945   2.052   4.470  15.306  0.3706 -1.2606 -0.3613
 7510TIP3    H243946   1.925   4.493  15.227  0.8333 -2.2632 -1.4288
 7511TIP3   OH243947   6.092   1.981   5.144 -0.1194 -0.5146 -0.2087
 7511TIP3    H143948   6.103   2.076   5.144  2.2674 -0.6888  1.0604
 7511TIP3    H243949   5.999   1.967   5.128 -0.3413  1.9792 -1.6107
 7512TIP3   OH243950   1.131   0.409   1.053  0.2437 -0.5901 -0.6227
 7512TIP3    H143951   1.067   0.338   1.055 -1.3893  0.7144 -2.0186
 7512TIP3    H243952   1.208   0.372   1.011 -0.1879 -1.7861 -0.3907
 7513TIP3   OH243953   1.218   4.914   4.680  0.2672 -0.0143 -0.3108
 7513TIP3    H143954   1.213   4.915   4.584  3.4933 -0.3616 -0.5961
 7513TIP3    H243955   1.227   4.821   4.702  0.9072  0.1518  0.1766
 7514TIP3   OH243956   3.146   1.139  15.531 -0.2461  0.6389 -0.1867
 7514TIP3    H143957   3.180   1.088  15.457 -1.0229 -0.7800  0.3970
 7514TIP3    H243958   3.199   1.111  15.606  0.3452  1.8544 -0.1342
 7515TIP3   OH243959   3.526   4.784   4.564 -0.5667 -0.1764 -0.5337
 7515TIP3    H143960   3.518   4.880   4.558 -1.1966 -0.2492 -1.0879
 7515TIP3    H243961   3.565   4.768   4.650  3.2631  0.7419 -1.9211
 7516TIP3   OH243962   0.248   3.224   1.033 -0.4494 -0.2134  0.4294
 7516TIP3    H143963   0.209   3.157   0.977 -1.2703  0.6597 -0.0802
 7516TIP3    H243964   0.316   3.178   1.082 -2.9412 -2.1264  2.3462
 7517TIP3   OH243965   2.037   1.297   4.718  0.1907  0.4501  0.0597
 7517TIP3    H143966   2.004   1.271   4.632 -0.5613  0.6610  0.2778
 7517TIP3    H243967   1.997   1.382   4.734 -1.1976 -0.4197  1.4299
 7518TIP3   OH243968   2.824   1.840  16.861 -0.1050  0.4066 -0.1292
 7518TIP3    H143969   2.853   1.927  16.833 -0.5753  0.5199 -0.2732
 7518TIP3    H243970   2.812   1.848  16.955 -0.9271  0.7325 -0.2535
 7519TIP3   OH243971   6.034   3.749   2.854 -0.1008  0.0204  0.5685
 7519TIP3    H143972   6.047   3.680   2.789 -1.8493  0.4121 -0.2727
 7519TIP3    H243973   6.058   3.829   2.808 -1.2965  0.2932  0.3733
 7520TIP3   OH243974   4.047   4.810  11.246 -0.2033  0.4906 -0.2515
 7520TIP3    H143975   4.142   4.820  11.252 -0.3027  1.1133  0.5114
 7520TIP3    H243976   4.018   4.886  11.195 -0.3753  0.8410  0.3517
 7521TIP3   OH243977   4.025   1.731  15.267  0.0781 -0.0326 -0.3934
 7521TIP3    H143978   3.947   1.720  15.322  0.2353  0.3712 -0.0809
 7521TIP3    H243979   4.093   1.762  15.328  0.6661 -1.0129 -0.5306
 7522TIP3   OH243980   5.768   4.065   0.557  0.4422 -0.7320 -0.0714
 7522TIP3    H143981   5.819   4.098   0.631  1.4892 -0.1333 -1.0266
 7522TIP3    H243982   5.681   4.104   0.568  1.0410  0.6170 -0.0171
 7523TIP3   OH243983   2.449   2.039   4.772 -0.3346 -0.0146 -0.2202
 7523TIP3    H143984   2.353   2.040   4.766 -0.4476 -1.7873  0.6700
 7523TIP3    H243985   2.478   2.036   4.681 -1.0879  1.2311 -0.5227
 7524TIP3   OH243986   2.046   5.959   1.726 -0.1007  0.1438  0.1117
 7524TIP3    H143987   2.090   5.973   1.643  1.2842 -1.6506  0.4772
 7524TIP3    H243988   2.017   5.867   1.723 -2.0764  0.6813  0.7212
 7525TIP3   OH243989   3.234   1.417  14.227  0.0859 -0.0241  0.4246
 7525TIP3    H143990   3.181   1.347  14.266  0.3048 -0.6753 -0.4227
 7525TIP3    H243991   3.173   1.490  14.217  0.6358  1.2810  4.6550
 7526TIP3   OH243992   5.624   4.720  12.329 -0.2292 -0.2438 -0.1373
 7526TIP3    H143993   5.689   4.652  12.312 -0.4629 -0.1716 -1.4752
 7526TIP3    H243994   5.604   4.756  12.242 -2.6523 -0.8075  0.1131
 7527TIP3   OH243995   0.119   0.603  15.220  0.2460  0.6237 -0.1435
 7527TIP3    H143996   0.200   0.581  15.174  1.1237  1.4083  0.9749
 7527TIP3    H243997   0.078   0.670  15.165  0.4540  0.3604 -0.6194
 7528TIP3   OH243998   0.324   5.154   4.970 -0.0456 -1.3329 -0.1188
 7528TIP3    H143999   0.385   5.204   5.025 -0.0871 -0.1795 -1.0893
 7528TIP3    H244000   0.380   5.095   4.919  0.3578  0.1555 -1.4589
 7529TIP3   OH244001   1.066   2.014  12.253  0.7270  0.1736  0.4836
 7529TIP3    H144002   1.097   1.927  12.280  0.6857 -0.2888 -0.9206
 7529TIP3    H244003   1.051   2.060  12.336 -1.0922 -1.7702  1.3251
 7530TIP3   OH244004   5.467   2.769  16.149  0.0772 -0.4640 -0.2509
 7530TIP3    H144005   5.397   2.827  16.120 -0.6048 -1.9433 -1.7462
 7530TIP3    H244006   5.423   2.704  16.203  0.4212 -0.9314 -0.5287
 7531TIP3   OH244007   6.404   4.535   4.912  0.0548  0.1054 -0.0348
 7531TIP3    H144008   6.375   4.601   4.848  0.0342  0.6425  0.5163
 7531TIP3    H244009   6.359   4.560   4.993  0.8246  0.0039  0.4293
 7532TIP3   OH244010   3.319   5.174   3.128 -0.3395 -0.2291  0.4388
 7532TIP3    H144011   3.243   5.143   3.078 -0.6186 -1.5371  1.6181
 7532TIP3    H244012   3.288   5.181   3.218  0.7304 -0.0452  0.8140
 7533TIP3   OH244013   0.208   6.382   0.917 -0.3352 -0.4949  0.1188
 7533TIP3    H144014   0.180   6.469   0.944 -0.0489 -0.1115 -0.7995
 7533TIP3    H244015   0.199   6.328   0.996 -0.1665  0.4439  0.7843
 7534TIP3   OH244016   6.429   1.644  12.695  0.2531 -0.7016 -0.0220
 7534TIP3    H144017   6.364   1.611  12.756  0.1370  0.5404  0.5461
 7534TIP3    H244018   6.468   1.719  12.739  1.1951 -0.6667 -0.8761
 7535TIP3   OH244019   0.783   2.729   1.780  0.1769 -0.1770 -0.1779
 7535TIP3    H144020   0.758   2.654   1.835  2.4541 -0.4982  0.5208
 7535TIP3    H244021   0.874   2.747   1.804  0.2371  1.7121 -1.6107
 7536TIP3   OH244022   5.718   6.160  11.887 -0.0126  0.5169  0.8104
 7536TIP3    H144023   5.630   6.190  11.863 -0.1963 -0.7294 -0.2542
 7536TIP3    H244024   5.703   6.094  11.954  0.0824  0.2145  0.5398
 7537TIP3   OH244025   2.845   0.661  15.361 -0.2703 -0.4896  0.4007
 7537TIP3    H144026   2.827   0.598  15.291  3.1017  0.3598 -1.4476
 7537TIP3    H244027   2.893   0.610  15.427  0.2069 -0.4150  0.1135
 7538TIP3   OH244028   5.766   5.275  12.401  0.2187  0.1478 -0.0197
 7538TIP3    H144029   5.828   5.334  12.443  1.0539 -0.2698 -0.6416
 7538TIP3    H244030   5.690   5.329  12.383  0.3494  0.6379  0.8605
 7539TIP3   OH244031   6.502   3.794   3.882 -0.0791  0.0727  0.4069
 7539TIP3    H144032   6.423   3.816   3.833 -0.4883 -0.5138  0.7929
 7539TIP3    H244033   6.471   3.742   3.956  0.5748  0.5962  1.0654
 7540TIP3   OH244034   6.007   6.148   2.526  0.1654  0.0267 -0.2791
 7540TIP3    H144035   6.038   6.059   2.508  0.0050 -0.5312  1.8910
 7540TIP3    H244036   6.079   6.189   2.574 -0.4475  0.4492  0.3053
 7541TIP3   OH244037   6.167   2.927  16.047  0.1714 -0.1785 -0.6091
 7541TIP3    H144038   6.200   2.843  16.082  0.7754  0.8863  1.5637
 7541TIP3    H244039   6.244   2.984  16.045 -0.6338  0.9873  0.1544
 7542TIP3   OH244040   6.515   0.951  15.351 -0.1810 -0.2163  0.3524
 7542TIP3    H144041   6.468   0.978  15.272  1.0497  1.6647  0.2063
 7542TIP3    H244042   6.606   0.942  15.323  1.1561  4.6047  2.2062
 7543TIP3   OH244043   3.027   4.230  15.979  0.4229  0.5191 -0.4512
 7543TIP3    H144044   3.039   4.146  16.023  0.2395 -0.1578 -1.6707
 7543TIP3    H244045   2.968   4.211  15.907 -0.4664  1.9125 -0.1272
 7544TIP3   OH244046   6.224   5.565   0.863  0.4671  0.1723 -0.1997
 7544TIP3    H144047   6.163   5.548   0.792  0.6633 -0.0308 -0.3223
 7544TIP3    H244048   6.269   5.645   0.838 -0.6480  1.0581  0.5054
 7545TIP3   OH244049   1.276   4.075  16.469  0.4220 -0.1131 -0.1228
 7545TIP3    H144050   1.249   4.126  16.545 -3.4609 -3.0450  0.7760
 7545TIP3    H244051   1.344   4.016  16.502  1.0500  0.7774  0.1974
 7546TIP3   OH244052   2.872   6.464   5.336  0.0027 -0.1309 -0.0954
 7546TIP3    H144053   2.800   6.493   5.392  1.3411  3.1789  0.1659
 7546TIP3    H244054   2.842   6.482   5.247  0.2016  0.6320 -0.0211
 7547TIP3   OH244055   3.935   0.791   3.805  0.2175  0.3232  0.7656
 7547TIP3    H144056   3.985   0.776   3.725 -0.0480  0.1091  0.6410
 7547TIP3    H244057   3.984   0.860   3.851  0.7743 -0.0611  0.7661
 7548TIP3   OH244058   3.538   0.075  12.595 -0.0507 -0.8937 -0.5529
 7548TIP3    H144059   3.625   0.039  12.575  1.0803 -0.1786  2.5236
 7548TIP3    H244060   3.542   0.166  12.565 -0.6080 -1.4447 -2.4402
 7549TIP3   OH244061   2.410   1.436   1.287 -0.1131 -0.4448  0.1390
 7549TIP3    H144062   2.467   1.364   1.314 -0.2787 -0.6178  0.0312
 7549TIP3    H244063   2.463   1.486   1.225 -0.5099 -1.3342 -0.9513
 7550TIP3   OH244064   2.337   6.022   0.312  0.7602 -0.2067  0.2146
 7550TIP3    H144065   2.274   5.998   0.244  1.1314 -3.1329  0.7778
 7550TIP3    H244066   2.381   6.099   0.277 -1.3549  0.4131 -1.3168
 7551TIP3   OH244067   6.226   1.277   0.933 -0.2905 -0.4187 -0.7370
 7551TIP3    H144068   6.285   1.352   0.948  0.7933 -1.4667  0.4330
 7551TIP3    H244069   6.254   1.242   0.849 -1.9165  1.4349 -2.1509
 7552TIP3   OH244070   3.304   6.399   6.265 -0.9006  0.1480  0.5327
 7552TIP3    H144071   3.382   6.456   6.266 -1.0577  0.3593  1.0480
 7552TIP3    H244072   3.231   6.458   6.281 -1.4782  0.3652 -2.4544
 7553TIP3   OH244073   0.310   0.231  10.736 -0.1001  0.6340  0.1774
 7553TIP3    H144074   0.282   0.174  10.664 -1.1696 -0.0409  1.0974
 7553TIP3    H244075   0.252   0.306  10.730 -0.3010  0.5000  0.4304
 7554TIP3   OH244076   3.471   3.847  14.818  0.3070 -0.4831 -0.3078
 7554TIP3    H144077   3.545   3.839  14.878  1.0197 -1.4105 -1.2662
 7554TIP3    H244078   3.394   3.852  14.874  1.1701  2.8221  0.8212
 7555TIP3   OH244079   6.712   0.781   0.995  0.3822  0.1804 -0.2665
 7555TIP3    H144080   6.703   0.864   1.043  0.8967  0.6429 -0.9417
 7555TIP3    H244081   6.758   0.723   1.056  0.4033  0.5324  0.0587
 7556TIP3   OH244082   0.474   3.773   5.337  0.0654 -0.0872  0.2105
 7556TIP3    H144083   0.442   3.727   5.414  0.5413  0.6654  0.8804
 7556TIP3    H244084   0.569   3.774   5.347  0.0593  1.2506  0.3639
 7557TIP3   OH244085   2.572   3.443   5.899  0.0030  0.1229 -0.0258
 7557TIP3    H144086   2.574   3.446   5.804  1.3089 -0.3765 -0.0322
 7557TIP3    H244087   2.647   3.496   5.927  0.2765 -0.6084  0.6858
 7558TIP3   OH244088   3.407   1.740  14.107  0.3093 -0.0240 -0.6863
 7558TIP3    H144089   3.462   1.702  14.038  1.2310  0.9469 -0.5252
 7558TIP3    H244090   3.442   1.704  14.189 -0.4686 -0.7957 -0.6828
 7559TIP3   OH244091   6.037   5.859  15.012 -0.2239 -0.1626 -0.3265
 7559TIP3    H144092   6.088   5.896  15.084 -0.8582  1.6716 -0.7619
 7559TIP3    H244093   6.062   5.767  15.010  0.7880  0.0245  1.3875
 7560TIP3   OH244094   1.604   5.249  11.724  0.3042  0.2525 -0.8438
 7560TIP3    H144095   1.554   5.223  11.801  2.1358 -1.3795 -0.1163
 7560TIP3    H244096   1.586   5.180  11.660  1.0010  0.0562 -0.8360
 7561TIP3   OH244097   3.356   1.998   5.106 -0.3985 -0.0643 -0.0179
 7561TIP3    H144098   3.338   1.938   5.033  0.2129  0.6177 -0.7426
 7561TIP3    H244099   3.289   1.977   5.171 -1.7087  0.1163 -1.2591
 7562TIP3   OH244100   0.554   4.173   2.875 -0.1121 -0.3162 -0.1148
 7562TIP3    H144101   0.490   4.229   2.831  0.6559 -1.0100 -2.2229
 7562TIP3    H244102   0.519   4.084   2.866  0.0350 -0.4718  0.7572
 7563TIP3   OH244103   3.575   3.647  13.592 -0.3906  0.3716 -0.2206
 7563TIP3    H144104   3.659   3.602  13.589 -0.7399 -0.2497 -1.1581
 7563TIP3    H244105   3.534   3.617  13.673 -0.6088 -1.0198 -0.8149
 7564TIP3   OH244106   4.707   6.642  10.578  0.1345 -0.6321  0.4187
 7564TIP3    H144107   4.698   6.649  10.673 -0.6059 -1.0394  0.3839
 7564TIP3    H244108   4.778   6.703  10.557 -0.3627  0.2303  1.1196
 7565TIP3   OH244109   6.184   2.872  16.598  0.2137 -0.1485 -0.1995
 7565TIP3    H144110   6.210   2.964  16.595  0.5038 -0.2276 -0.1704
 7565TIP3    H244111   6.098   2.870  16.556  0.1158  0.1651 -0.0134
 7566TIP3   OH244112   3.062   3.628  16.714 -0.5507 -0.2383 -0.4062
 7566TIP3    H144113   3.120   3.635  16.639 -0.4554 -1.0253 -0.4070
 7566TIP3    H244114   3.118   3.597  16.786 -0.5341  0.9496  0.1226
 7567TIP3   OH244115   0.531   3.528   5.080  0.3532  0.8011  0.7540
 7567TIP3    H144116   0.624   3.540   5.058  0.6135 -1.1038  0.6899
 7567TIP3    H244117   0.531   3.498   5.170 -0.0196 -1.2053  0.1335
 7568TIP3   OH244118   6.566   1.835  12.474  0.4673 -0.1791 -0.4304
 7568TIP3    H144119   6.638   1.785  12.436  1.1884  0.6305 -0.1455
 7568TIP3    H244120   6.518   1.770  12.526  1.0037 -0.7174 -0.5946
 7569TIP3   OH244121   4.992   4.246  17.168  0.2294 -0.1126  0.8397
 7569TIP3    H144122   4.939   4.281  17.097 -0.2814 -1.4579  0.5408
 7569TIP3    H244123   5.081   4.276  17.148 -0.1853  1.0531  0.6426
 7570TIP3   OH244124   6.713   5.093   5.889 -0.1763  0.1299  0.7257
 7570TIP3    H144125   6.719   5.113   5.795  1.9177  1.1589  1.0162
 7570TIP3    H244126   6.733   4.999   5.894 -0.3034  0.0670  0.1533
 7571TIP3   OH244127   2.419   5.682   1.062 -0.6877 -0.6160 -0.2700
 7571TIP3    H144128   2.470   5.601   1.060  0.4871  0.0637  0.6176
 7571TIP3    H244129   2.371   5.682   0.979  0.5882 -1.4141 -1.0420
 7572TIP3   OH244130   0.479   4.353   0.497  0.9102 -0.1033  0.0081
 7572TIP3    H144131   0.537   4.313   0.562  2.8436 -2.0147 -2.6489
 7572TIP3    H244132   0.408   4.290   0.486  1.2737 -0.4296 -0.5722
 7573TIP3   OH244133   1.755   2.527   5.638 -0.2000  0.3593 -0.1304
 7573TIP3    H144134   1.799   2.612   5.629  0.5126 -0.0374 -0.5351
 7573TIP3    H244135   1.707   2.516   5.556 -1.8443  1.2091  0.6835
 7574TIP3   OH244136   0.515   2.120   1.172 -0.0480  0.1389 -0.0695
 7574TIP3    H144137   0.594   2.068   1.186 -0.3463 -0.0194  1.1073
 7574TIP3    H244138   0.547   2.210   1.166  0.1545  0.1769  1.2963
 7575TIP3   OH244139   2.514   0.402   6.332  0.4682 -0.4665 -0.8513
 7575TIP3    H144140   2.580   0.440   6.390 -0.8162  0.6036 -0.0421
 7575TIP3    H244141   2.558   0.328   6.291  1.8454 -0.4093  0.4495
 7576TIP3   OH244142   2.447   5.440  15.884 -0.0217  0.1581  0.3085
 7576TIP3    H144143   2.516   5.459  15.820 -0.3729 -0.4622 -0.2706
 7576TIP3    H244144   2.458   5.506  15.952 -0.2595  1.4450 -0.8651
 7577TIP3   OH244145   2.700   3.986  16.165  0.5153  0.0083 -0.5624
 7577TIP3    H144146   2.679   4.079  16.162  2.0942  0.4897  1.5410
 7577TIP3    H244147   2.782   3.978  16.116 -0.3849 -0.5874 -2.0550
 7578TIP3   OH244148   3.255   2.378   2.111  0.0075  0.2722  0.4041
 7578TIP3    H144149   3.268   2.341   2.024 -1.8495  0.6985 -0.1015
 7578TIP3    H244150   3.320   2.335   2.165 -0.6850 -2.1830 -0.5791
 7579TIP3   OH244151   6.477   1.968   2.745 -0.1400  0.5711 -0.2152
 7579TIP3    H144152   6.528   1.903   2.698 -1.9027 -0.0307 -1.4097
 7579TIP3    H244153   6.539   2.009   2.805  1.6365 -0.3107 -1.3703
 7580TIP3   OH244154   2.542   0.900   3.570  0.3512  0.3796 -0.1288
 7580TIP3    H144155   2.600   0.936   3.637  1.0849 -0.3817 -0.3376
 7580TIP3    H244156   2.480   0.845   3.619  1.1994 -0.5836 -0.0905
 7581TIP3   OH244157   5.925   6.183   3.744 -0.5425  0.2515 -0.0063
 7581TIP3    H144158   5.912   6.278   3.737 -1.9851  0.0587 -0.2034
 7581TIP3    H244159   6.020   6.172   3.748 -0.3532  1.6982 -0.0874
 7582TIP3   OH244160   6.366   2.565   2.266 -0.0434  0.0495 -0.1001
 7582TIP3    H144161   6.325   2.615   2.336 -1.7813 -0.8015 -0.4681
 7582TIP3    H244162   6.297   2.550   2.202  0.6675 -1.8719 -0.5181
 7583TIP3   OH244163   2.311   6.079  12.897  0.7271 -0.0799  0.9491
 7583TIP3    H144164   2.237   6.042  12.946  0.5380  0.7808  1.3233
 7583TIP3    H244165   2.370   6.112  12.964  2.4338 -2.4810  0.7544
 7584TIP3   OH244166   3.461   1.082  17.305  1.0815  0.8609  0.2329
 7584TIP3    H144167   3.491   1.082  17.397  0.0594 -0.8378  0.6236
 7584TIP3    H244168   3.368   1.104  17.310  0.6298 -0.7652 -0.1735
 7585TIP3   OH244169   2.332   4.500  11.576  0.1832  0.7857  0.0904
 7585TIP3    H144170   2.383   4.502  11.657 -1.2348 -0.2990  1.0628
 7585TIP3    H244171   2.245   4.529  11.602  0.2118  2.5533 -1.5233
 7586TIP3   OH244172   0.814   3.230   4.623 -0.4211 -0.0081 -1.0413
 7586TIP3    H144173   0.782   3.140   4.613 -1.9584  0.4830 -0.8038
 7586TIP3    H244174   0.744   3.285   4.588 -0.3258  1.1758  0.4926
 7587TIP3   OH244175   6.665   2.033   4.434 -0.1441  0.3221 -0.2809
 7587TIP3    H144176   6.679   1.980   4.355  1.9423 -1.3198  1.0741
 7587TIP3    H244177   6.683   1.973   4.506 -1.8508  1.8147  1.4854
 7588TIP3   OH244178   3.966   0.384   3.735 -0.1142  0.0917 -0.2870
 7588TIP3    H144179   3.949   0.427   3.818  0.4646 -3.1513  1.7113
 7588TIP3    H244180   3.880   0.367   3.697 -0.4375  0.4824  0.2718
 7589TIP3   OH244181   0.276   6.522   2.402 -0.0700 -0.2083 -0.6989
 7589TIP3    H144182   0.218   6.553   2.471 -0.2131 -2.2324  0.1758
 7589TIP3    H244183   0.341   6.592   2.391 -0.7194  0.6421  0.6664
 7590TIP3   OH244184   2.295   3.413  13.027  0.5074  0.2684  0.2958
 7590TIP3    H144185   2.292   3.327  12.986 -0.7375  1.3559 -2.0736
 7590TIP3    H244186   2.351   3.465  12.969  1.2183  1.1073  1.6684
 7591TIP3   OH244187   0.841   0.196   0.148 -0.5908  1.2338 -0.3806
 7591TIP3    H144188   0.868   0.127   0.087 -2.3577 -0.8623  1.0556
 7591TIP3    H244189   0.901   0.268   0.131  1.9010 -0.9388 -1.4266
 7592TIP3   OH244190   6.238   5.907  12.620 -0.8220  0.2443 -0.4825
 7592TIP3    H144191   6.251   5.996  12.588  0.0131  0.1148 -0.5231
 7592TIP3    H244192   6.304   5.895  12.689 -1.5632 -0.0192  0.1950
 7593TIP3   OH244193   2.022   5.479  15.943 -0.0151 -0.3906 -0.0464
 7593TIP3    H144194   2.064   5.533  16.010  1.0198  1.2101 -1.8758
 7593TIP3    H244195   2.078   5.402  15.936  1.7698  0.9534 -1.2937
 7594TIP3   OH244196   2.988   3.596  16.143  0.0952 -0.0182  0.5314
 7594TIP3    H144197   2.914   3.584  16.202 -0.3322 -1.5512 -0.2577
 7594TIP3    H244198   3.040   3.516  16.154 -0.8115 -1.1174 -2.2347
 7595TIP3   OH244199   5.719   5.809  12.320  0.0691 -0.1140  0.1930
 7595TIP3    H144200   5.805   5.836  12.289 -0.7703  2.7689  0.1111
 7595TIP3    H244201   5.657   5.849  12.259 -1.4105  0.3294  1.8907
 7596TIP3   OH244202   2.052   5.785   6.277  0.2396 -0.3978 -0.1455
 7596TIP3    H144203   2.146   5.764   6.279  0.2513 -0.3536 -0.2366
 7596TIP3    H244204   2.032   5.808   6.368  0.5081  0.4185 -0.2795
 7597TIP3   OH244205   3.672   4.137   1.743  0.3916  0.1537 -0.2506
 7597TIP3    H144206   3.663   4.158   1.650  0.7256 -0.1542 -0.3555
 7597TIP3    H244207   3.700   4.046   1.744 -0.2589 -0.0502  0.1766
 7598TIP3   OH244208   2.794   0.687  12.175 -0.5767  0.0116 -0.0093
 7598TIP3    H144209   2.774   0.609  12.124  0.7969  0.3346 -1.1066
 7598TIP3    H244210   2.880   0.670  12.213  0.1055  1.2709 -0.9158
 7599TIP3   OH244211   4.672   3.850  11.734 -0.0788 -0.4458 -0.1193
 7599TIP3    H144212   4.762   3.842  11.767  1.0923  1.7923 -2.3863
 7599TIP3    H244213   4.647   3.760  11.713  1.3419 -1.2158  1.2486
 7600TIP3   OH244214   6.676   6.017   2.272  0.0566  0.0863  0.6619
 7600TIP3    H144215   6.626   5.945   2.234  1.7039  0.1497 -1.8598
 7600TIP3    H244216   6.653   6.093   2.218  1.1772  0.5910  0.8613
 7601TIP3   OH244217   1.228   5.772  16.388  0.2719 -0.2444  0.0806
 7601TIP3    H144218   1.258   5.802  16.302 -1.3097 -0.1623 -0.4602
 7601TIP3    H244219   1.308   5.741  16.431  1.5011  2.0391 -0.4175
 7602TIP3   OH244220   1.786   6.633  12.155 -0.2229  0.4606 -0.0416
 7602TIP3    H144221   1.837   6.632  12.074  0.2776 -3.4182  0.1112
 7602TIP3    H244222   1.696   6.618  12.127  0.0181 -1.3967  0.0451
 7603TIP3   OH244223   0.928   2.144  14.117 -0.0862 -0.0656  0.1165
 7603TIP3    H144224   0.907   2.229  14.077 -0.3762 -1.0418 -1.9343
 7603TIP3    H244225   0.914   2.158  14.210 -0.5039  2.0387 -0.2046
 7604TIP3   OH244226   3.707   2.206   1.104  0.2209  0.2734  0.0875
 7604TIP3    H144227   3.647   2.252   1.162  1.6697 -0.8394  2.6190
 7604TIP3    H244228   3.655   2.186   1.026 -2.4632 -0.0070  1.8424
 7605TIP3   OH244229   4.906   0.131  13.685 -0.4078 -0.3024  0.1485
 7605TIP3    H144230   4.832   0.138  13.744 -0.5517 -0.4696 -0.0113
 7605TIP3    H244231   4.967   0.198  13.715  0.1459 -1.3129  1.3569
 7606TIP3   OH244232   5.835   4.226  10.635  0.7373  0.3691  0.0102
 7606TIP3    H144233   5.890   4.148  10.630  0.3561 -0.0342  1.6279
 7606TIP3    H244234   5.876   4.287  10.573  1.2594 -0.9490 -1.0123
 7607TIP3   OH244235   5.347   0.414   0.039 -0.0149  0.1851 -0.3456
 7607TIP3    H144236   5.366   0.508   0.033  0.9948 -0.0455 -1.0271
 7607TIP3    H244237   5.263   0.409   0.084  0.6979  1.3419  1.1749
 7608TIP3   OH244238   4.600   4.915   1.812  0.5579  0.0537  0.2974
 7608TIP3    H144239   4.569   4.979   1.749 -0.1216  0.6025  1.1602
 7608TIP3    H244240   4.523   4.864   1.835  1.1850 -1.4548 -0.7597
 7609TIP3   OH244241   0.057   1.670   4.942  0.5721 -0.1906 -0.0461
 7609TIP3    H144242   0.036   1.750   4.991  2.2570  0.6047 -0.5568
 7609TIP3    H244243  -0.024   1.650   4.895  0.1185  1.2644  0.0458
 7610TIP3   OH244244   6.372   1.452  16.790  0.3773 -0.2724  0.3058
 7610TIP3    H144245   6.373   1.419  16.700  2.1249 -0.6857  0.4495
 7610TIP3    H244246   6.361   1.547  16.780  0.8557 -0.2803 -0.3707
 7611TIP3   OH244247   0.601   3.900   2.398  0.8134  0.5781 -0.0931
 7611TIP3    H144248   0.652   3.947   2.463  0.3292  1.8923 -0.6215
 7611TIP3    H244249   0.583   3.815   2.438  1.1455  1.0840  1.1738
 7612TIP3   OH244250   3.792   2.202  11.997  0.0243 -0.3456  0.3102
 7612TIP3    H144251   3.766   2.122  12.042  0.5376  0.8887  3.0308
 7612TIP3    H244252   3.888   2.197  11.993 -0.0266 -0.6248 -1.1228
 7613TIP3   OH244253   3.968   3.993   0.887  0.1897  0.0055  0.2745
 7613TIP3    H144254   3.999   4.035   0.807  0.5783 -2.5325 -1.0115
 7613TIP3    H244255   4.023   4.030   0.956  0.4036  1.6473 -0.7177
 7614TIP3   OH244256   2.911   1.787  13.620  0.2321 -0.2752 -0.2423
 7614TIP3    H144257   2.913   1.879  13.593  2.0738 -0.4891 -1.0231
 7614TIP3    H244258   2.996   1.772  13.661 -0.8330 -1.1239  1.8132
 7615TIP3   OH244259   6.133   5.676  15.546 -0.3308 -0.0378  0.1942
 7615TIP3    H144260   6.073   5.727  15.599 -0.9014  0.1121 -0.5841
 7615TIP3    H244261   6.082   5.601  15.516 -1.1254  1.5743 -2.9245
 7616TIP3   OH244262   5.237   3.916   1.230 -0.3186  0.3918  0.2183
 7616TIP3    H144263   5.319   3.909   1.278  0.3507 -3.0627 -1.1094
 7616TIP3    H244264   5.177   3.858   1.278 -0.8479  0.0508 -0.8291
 7617TIP3   OH244265   3.918   3.243  16.997 -0.5638 -0.5589  0.2316
 7617TIP3    H144266   4.006   3.204  17.002 -0.1187  0.4223  0.2724
 7617TIP3    H244267   3.934   3.337  17.001 -1.6912 -0.3964  1.2557
 7618TIP3   OH244268   0.319   1.705  17.328  0.1527 -0.4640  0.4121
 7618TIP3    H144269   0.286   1.773  17.269  1.3003  0.6314  0.9928
 7618TIP3    H244270   0.272   1.719  17.410 -0.0786 -0.7989  0.3412
 7619TIP3   OH244271   4.595   6.147   4.781  0.5465  0.0068  0.9368
 7619TIP3    H144272   4.584   6.242   4.788  1.7570  0.8457 -4.4101
 7619TIP3    H244273   4.689   6.135   4.769  0.4473 -1.9796  1.8180
 7620TIP3   OH244274   1.229   3.054   1.369  0.1420  0.0297  0.4479
 7620TIP3    H144275   1.213   2.960   1.381  0.3059  0.1897  2.0352
 7620TIP3    H244276   1.289   3.078   1.439  1.5580  0.9694 -1.0122
 7621TIP3   OH244277   1.975   3.611  13.655 -0.6015 -0.1815 -0.9465
 7621TIP3    H144278   2.008   3.639  13.570  0.8823  1.8994  0.2404
 7621TIP3    H244279   1.996   3.518  13.659  1.1208  0.1082 -2.0651
 7622TIP3   OH244280   5.208   5.663   1.189  0.6758  0.6542 -0.1892
 7622TIP3    H144281   5.248   5.577   1.179  0.6092  0.7891 -1.7813
 7622TIP3    H244282   5.125   5.658   1.143  0.4880  1.4520  0.0362
 7623TIP3   OH244283   0.301   5.176  14.071 -0.5502  0.2145 -0.1599
 7623TIP3    H144284   0.345   5.160  14.155  0.1041  1.5822 -0.2072
 7623TIP3    H244285   0.263   5.264  14.081 -1.6502 -0.1635 -0.8149
 7624TIP3   OH244286   0.521   3.645  14.252  0.3784  0.4492  0.1366
 7624TIP3    H144287   0.496   3.600  14.172 -0.0105  0.9915 -0.0508
 7624TIP3    H244288   0.575   3.718  14.222 -1.3574  1.8032  0.2003
 7625TIP3   OH244289   3.207   0.303   1.110 -0.5222 -0.6400 -0.0617
 7625TIP3    H144290   3.122   0.262   1.122 -0.4717 -0.3702  1.4596
 7625TIP3    H244291   3.258   0.276   1.187  0.2217  0.4933 -0.1229
 7626TIP3   OH244292   1.677   3.670  16.194  0.2239  0.0285  0.6611
 7626TIP3    H144293   1.652   3.580  16.173 -0.5960  0.2503  0.6353
 7626TIP3    H244294   1.602   3.723  16.167  0.6077  0.7006  0.8699
 7627TIP3   OH244295   6.031   2.828   1.263  0.0682 -0.0357 -0.2339
 7627TIP3    H144296   5.999   2.760   1.323  1.6288 -1.2204 -0.6998
 7627TIP3    H244297   6.048   2.903   1.319 -1.2825 -0.1235  0.3501
 7628TIP3   OH244298   1.104   0.330   2.050  0.3244  0.5312  0.4707
 7628TIP3    H144299   1.064   0.416   2.039  0.4971  0.6164  0.5145
 7628TIP3    H244300   1.073   0.300   2.136  0.4523  0.6484  0.5571
 7629TIP3   OH244301   2.574   3.735   4.247  0.2603 -0.1036 -0.0428
 7629TIP3    H144302   2.538   3.649   4.269 -0.8122  0.3826  0.1903
 7629TIP3    H244303   2.619   3.764   4.326 -0.7163  0.2000  0.4248
 7630TIP3   OH244304   2.365   2.863  14.756  0.3573  0.2016 -0.2388
 7630TIP3    H144305   2.338   2.946  14.715  0.3792 -0.2254 -1.1468
 7630TIP3    H244306   2.324   2.865  14.843 -1.2730  0.3128 -0.9643
 7631TIP3   OH244307   4.955   3.439  15.522  0.3993 -0.2039  0.1967
 7631TIP3    H144308   4.990   3.485  15.446  0.3858  1.3960  1.0996
 7631TIP3    H244309   4.987   3.489  15.597 -0.3248 -1.2026  1.2108
 7632TIP3   OH244310   1.041   5.096   5.150 -0.6291 -0.4006 -0.0836
 7632TIP3    H144311   1.009   5.018   5.105  1.4911  0.1018 -2.7260
 7632TIP3    H244312   1.111   5.064   5.207  0.8151 -0.4603 -1.7871
 7633TIP3   OH244313   4.502   0.442   5.606 -0.5243  0.1554 -0.3017
 7633TIP3    H144314   4.530   0.351   5.616 -2.0383 -0.5505 -1.9322
 7633TIP3    H244315   4.579   0.494   5.630  0.7073 -1.5769 -0.3337
 7634TIP3   OH244316   4.932   0.178   5.413  0.1457  0.1088 -0.3370
 7634TIP3    H144317   4.888   0.094   5.414  1.4559 -0.6352 -1.4940
 7634TIP3    H244318   4.873   0.237   5.459 -2.2197 -0.7217 -2.0988
 7635TIP3   OH244319   4.740   3.201   1.212 -0.3204  1.0709 -0.1144
 7635TIP3    H144320   4.646   3.193   1.229 -0.1814  0.9070  0.5716
 7635TIP3    H244321   4.755   3.295   1.202 -0.1967  1.2877  1.8775
 7636TIP3   OH244322   4.151   4.893  14.123  0.6048 -0.5688  0.1226
 7636TIP3    H144323   4.058   4.913  14.118  0.3224 -1.4621  1.4769
 7636TIP3    H244324   4.193   4.977  14.140  0.0281 -0.2065 -0.2263
 7637TIP3   OH244325   2.048   4.874  13.675 -0.5927 -0.0264  0.3221
 7637TIP3    H144326   1.992   4.807  13.637 -0.2090  0.1581 -0.5822
 7637TIP3    H244327   2.078   4.926  13.601 -0.2062  0.6297  0.9223
 7638TIP3   OH244328   4.916   6.714  11.050  0.1054  0.5055  0.5349
 7638TIP3    H144329   4.853   6.784  11.032 -0.1954  0.0018 -0.4422
 7638TIP3    H244330   4.917   6.707  11.145 -0.3324  1.4044  0.6201
 7639TIP3   OH244331   0.897   2.075  10.639  0.3222 -0.2124  0.2693
 7639TIP3    H144332   0.926   2.049  10.727 -1.0880  2.0498  1.5140
 7639TIP3    H244333   0.957   2.145  10.614  1.1087 -1.2605 -0.9146
 7640TIP3   OH244334   2.492   1.220  14.626  0.1663 -0.1860  0.4987
 7640TIP3    H144335   2.480   1.255  14.538  0.0406 -1.9602 -0.2219
 7640TIP3    H244336   2.409   1.240  14.671 -0.5592 -1.0266 -0.4211
 7641TIP3   OH244337   1.115   2.906  10.762 -0.2946  0.3834 -0.2570
 7641TIP3    H144338   1.031   2.912  10.717  0.2562 -0.3186 -1.4213
 7641TIP3    H244339   1.124   2.813  10.784 -0.5037  0.6882  1.2617
 7642TIP3   OH244340   3.042   0.781   4.241 -0.1339  0.5231  0.3229
 7642TIP3    H144341   2.995   0.812   4.319 -2.5004 -0.5676 -0.5581
 7642TIP3    H244342   2.989   0.810   4.167  1.2328  0.2079 -0.8390
 7643TIP3   OH244343   4.702   0.502   3.629  0.4351  0.5443 -0.3141
 7643TIP3    H144344   4.716   0.456   3.712 -0.1247 -1.2154 -1.1464
 7643TIP3    H244345   4.751   0.584   3.638  1.9070 -0.4350  1.0362
 7644TIP3   OH244346   1.886   5.540   6.719  0.2329 -0.4134  0.1910
 7644TIP3    H144347   1.941   5.605   6.762 -1.3191  1.9897 -1.2069
 7644TIP3    H244348   1.918   5.537   6.629 -2.6649  2.2235 -1.1138
 7645TIP3   OH244349   1.995   4.621   5.179 -0.3355 -0.1495  0.3943
 7645TIP3    H144350   2.057   4.562   5.221  0.7104 -0.1213 -1.0339
 7645TIP3    H244351   2.047   4.696   5.152 -0.7447 -0.5544 -1.6974
 7646TIP3   OH244352   2.399   5.752  16.271  0.0805  0.0976  0.1392
 7646TIP3    H144353   2.452   5.815  16.321  1.1884 -0.5309 -0.2159
 7646TIP3    H244354   2.354   5.701  16.338 -1.1878  1.5291  0.4339
 7647TIP3   OH244355   4.559   3.628  14.515  0.0147  0.0381  0.5387
 7647TIP3    H144356   4.566   3.706  14.571 -0.4517 -1.9562  3.6107
 7647TIP3    H244357   4.467   3.603  14.522 -0.1821 -0.0123 -1.6477
 7648TIP3   OH244358   6.433   0.824  14.227 -0.0032 -0.5127 -0.6872
 7648TIP3    H144359   6.382   0.862  14.298  0.8094  0.6821 -0.7082
 7648TIP3    H244360   6.371   0.815  14.155 -0.3433  0.3167 -0.5095
 7649TIP3   OH244361   3.313   6.073  11.867 -0.4838 -0.4311 -0.0321
 7649TIP3    H144362   3.344   5.988  11.900 -2.6878 -1.1080  0.4425
 7649TIP3    H244363   3.370   6.137  11.909  0.0020 -1.5825  1.1379
 7650TIP3   OH244364   2.577   2.908  12.249  0.4724  0.3105  0.0298
 7650TIP3    H144365   2.656   2.867  12.285 -1.5307 -1.7802  2.4618
 7650TIP3    H244366   2.590   3.002  12.263  2.9806  0.1519 -0.7625
 7651TIP3   OH244367   0.409   2.151   0.073 -0.3478  0.2815  0.1224
 7651TIP3    H144368   0.475   2.130   0.139 -0.2880  0.4147  0.1071
 7651TIP3    H244369   0.455   2.145  -0.011 -0.7152 -1.0298  0.0012
 7652TIP3   OH244370   2.660   2.172   2.271 -0.1374 -0.2961 -0.4841
 7652TIP3    H144371   2.654   2.267   2.267  0.1547 -0.2620 -0.1596
 7652TIP3    H244372   2.577   2.145   2.312  0.0755 -0.1324  0.0564
 7653TIP3   OH244373   1.948   5.324   3.572 -0.1692  0.3293 -0.2950
 7653TIP3    H144374   1.880   5.376   3.529  1.5797  2.2390 -0.8726
 7653TIP3    H244375   1.993   5.279   3.500 -1.4178 -1.8275  0.1650
 7654TIP3   OH244376   4.029   1.371  13.749  0.0069  0.4361  0.5064
 7654TIP3    H144377   4.035   1.450  13.803  2.7349  0.2041  0.6960
 7654TIP3    H244378   4.032   1.402  13.659  1.9974  0.5728  0.5814
 7655TIP3   OH244379   1.500   2.956  17.292 -0.5026 -0.6740  0.6999
 7655TIP3    H144380   1.521   2.894  17.222  1.2030 -0.2847  0.8200
 7655TIP3    H244381   1.485   3.039  17.247 -1.0947 -0.7904  0.6744
 7656TIP3   OH244382   2.138   6.032  11.798  0.1655  0.3059  0.0689
 7656TIP3    H144383   2.051   6.000  11.818 -0.8678  2.0645 -1.2883
 7656TIP3    H244384   2.197   5.960  11.820 -1.7330 -1.3646 -0.1275
 7657TIP3   OH244385   2.209   2.398   2.207 -0.5171  0.2352  0.6367
 7657TIP3    H144386   2.118   2.402   2.236 -0.8018 -0.2484 -0.1592
 7657TIP3    H244387   2.250   2.333   2.264 -0.5131  0.8960  1.3942
 7658TIP3   OH244388   5.964   3.939   5.065  0.1060  0.2181 -0.1978
 7658TIP3    H144389   5.937   4.000   5.134 -0.5272 -0.9969  0.6798
 7658TIP3    H244390   6.056   3.958   5.050  0.1815  0.7050  0.7910
 7659TIP3   OH244391   0.396   5.135  12.682 -0.7252 -0.3856  0.3581
 7659TIP3    H144392   0.403   5.050  12.724 -0.0068 -0.9014 -0.7654
 7659TIP3    H244393   0.469   5.138  12.620 -1.9113  0.1970 -1.0822
 7660TIP3   OH244394   0.639   3.254   4.351 -0.0228 -0.0079  0.2865
 7660TIP3    H144395   0.716   3.271   4.297 -0.3054  0.2852 -0.0266
 7660TIP3    H244396   0.569   3.304   4.309 -1.3090 -3.1253 -1.6178
 7661TIP3   OH244397   2.422   3.973   1.985 -0.4173 -0.2549  0.1733
 7661TIP3    H144398   2.448   4.056   2.024  1.8761 -0.8021 -0.0615
 7661TIP3    H244399   2.357   3.997   1.919 -0.5766  1.2177  0.8333
 7662TIP3   OH244400   5.724   0.478   1.974  0.0806 -0.0472 -0.1160
 7662TIP3    H144401   5.702   0.411   2.039 -1.5447 -1.7376 -2.2262
 7662TIP3    H244402   5.642   0.526   1.962 -0.1588 -0.8226 -1.9724
 7663TIP3   OH244403   5.906   2.001   6.208  0.5010 -0.2572 -0.0155
 7663TIP3    H144404   5.927   2.093   6.191  2.4415 -0.4049  1.2301
 7663TIP3    H244405   5.988   1.963   6.241  0.1025 -2.7537 -1.5890
 7664TIP3   OH244406   1.984   0.717   6.507 -0.1906 -0.2749  0.2917
 7664TIP3    H144407   2.075   0.701   6.483  0.0033  1.8071 -0.5995
 7664TIP3    H244408   1.988   0.790   6.569 -1.1672 -1.2904  1.6243
 7665TIP3   OH244409   2.499   4.808  16.689  0.1025  0.2016  0.2979
 7665TIP3    H144410   2.484   4.811  16.594 -1.1633  1.9961  0.5081
 7665TIP3    H244411   2.593   4.794  16.698 -0.0975 -3.0859 -1.1632
 7666TIP3   OH244412   1.219   2.647   4.313 -0.1480 -0.4364  1.0595
 7666TIP3    H144413   1.160   2.708   4.358  1.0866  1.2531  0.4808
 7666TIP3    H244414   1.205   2.664   4.220  0.3202 -0.9513  0.8913
 7667TIP3   OH244415   5.793   3.695   4.671 -0.4210  0.2642  0.2138
 7667TIP3    H144416   5.836   3.610   4.681 -2.3958 -0.6431  1.4428
 7667TIP3    H244417   5.797   3.734   4.758 -2.1292  0.1170  0.3767
 7668TIP3   OH244418   3.712   5.930   1.265  0.6085 -0.3535  0.4578
 7668TIP3    H144419   3.724   5.837   1.284 -0.5584 -0.6125  0.0160
 7668TIP3    H244420   3.635   5.955   1.317 -0.5898 -0.2600 -1.2924
 7669TIP3   OH244421   1.859   5.216  12.255 -0.0778 -0.0149 -0.3421
 7669TIP3    H144422   1.799   5.290  12.262  1.8873  1.6325  0.0604
 7669TIP3    H244423   1.859   5.176  12.342 -1.5899 -0.9337 -0.7160
 7670TIP3   OH244424   0.311   5.842  12.750 -0.4248 -0.6970  0.1853
 7670TIP3    H144425   0.356   5.766  12.786 -1.2619 -0.7314  1.2149
 7670TIP3    H244426   0.343   5.916  12.802 -0.2406 -0.4599 -0.2564
 7671TIP3   OH244427   2.426   3.735  12.974 -0.3176  0.0538 -0.7173
 7671TIP3    H144428   2.510   3.694  12.990 -1.2300 -2.0031 -0.8796
 7671TIP3    H244429   2.439   3.827  12.996  2.0832 -0.1174 -1.2279
 7672TIP3   OH244430   6.032   2.875  14.511 -0.2074 -0.2177 -0.4841
 7672TIP3    H144431   6.012   2.819  14.436 -0.7907 -1.1827  0.3551
 7672TIP3    H244432   6.124   2.858  14.531 -0.4229 -1.0039 -0.1413
 7673TIP3   OH244433   5.186   3.588  16.756 -0.1810 -1.0855 -0.0374
 7673TIP3    H144434   5.254   3.643  16.795 -1.0451 -0.6792  0.9458
 7673TIP3    H244435   5.166   3.523  16.824 -1.6524 -0.4150  0.2172
 7674TIP3   OH244436   5.793   4.583   4.042  0.1579 -0.0312  0.3574
 7674TIP3    H144437   5.854   4.511   4.027 -0.8542 -0.5807 -1.4439
 7674TIP3    H244438   5.847   4.662   4.034  0.7811 -0.5253 -0.4604
 7675TIP3   OH244439   1.932   0.362   2.818 -0.9498 -0.1516 -0.6950
 7675TIP3    H144440   1.862   0.372   2.754 -0.1137  0.5230 -1.5448
 7675TIP3    H244441   1.913   0.280   2.862 -3.3511  0.9302  0.4908
 7676TIP3   OH244442   0.021   3.515  13.168  0.1989 -0.4263  0.7981
 7676TIP3    H144443  -0.028   3.597  13.160 -0.4747 -0.9943 -1.6276
 7676TIP3    H244444   0.084   3.532  13.238  2.0607  3.2701 -1.4182
 7677TIP3   OH244445   3.759   4.134  13.545  0.0691  0.7392 -0.3152
 7677TIP3    H144446   3.724   4.096  13.626  1.0672  1.5106  0.5130
 7677TIP3    H244447   3.701   4.208  13.527 -0.8344 -0.1004 -0.9606
 7678TIP3   OH244448   5.352   3.773  16.910 -0.4042  0.4113  0.1834
 7678TIP3    H144449   5.310   3.857  16.889 -2.9963 -0.4781  1.3693
 7678TIP3    H244450   5.363   3.776  17.005  0.3572 -0.2402  0.1184
 7679TIP3   OH244451   3.892   2.560   3.279  0.1843  0.0691  0.1501
 7679TIP3    H144452   3.835   2.485   3.294  0.8210 -0.4309  0.1028
 7679TIP3    H244453   3.952   2.531   3.210  0.8371  0.3948  0.5755
 7680TIP3   OH244454   3.805   2.709  10.996 -0.1131  0.5380 -0.4756
 7680TIP3    H144455   3.778   2.800  10.984  1.1541  1.3780  2.3210
 7680TIP3    H244456   3.897   2.714  11.021  0.4632 -1.6742 -1.8827
 7681TIP3   OH244457   6.228   5.389   2.672  0.1041  0.5815 -0.5406
 7681TIP3    H144458   6.315   5.407   2.708 -0.2057  1.8457 -0.3610
 7681TIP3    H244459   6.230   5.297   2.648  0.3959 -0.3230  2.5335
 7682TIP3   OH244460   1.106   5.314   1.392  0.6557  0.4303  0.3427
 7682TIP3    H144461   1.163   5.337   1.318  0.5217  2.6092  0.8512
 7682TIP3    H244462   1.019   5.308   1.353  0.8758 -0.4995 -0.0224
 7683TIP3   OH244463   5.009   4.939  13.620  0.7508 -0.5003 -0.3396
 7683TIP3    H144464   4.968   4.852  13.625 -3.0531  1.1433  1.6009
 7683TIP3    H244465   5.028   4.961  13.712  0.8996  0.9869 -0.7038
 7684TIP3   OH244466   6.118   0.948  11.830  0.2464 -0.7562 -0.2091
 7684TIP3    H144467   6.179   0.885  11.792  1.5078  0.0344  0.4620
 7684TIP3    H244468   6.171   1.025  11.850 -0.9200 -0.1336  0.6383
 7685TIP3   OH244469   6.011   5.401  15.567  0.3659 -0.3031  0.1184
 7685TIP3    H144470   5.933   5.350  15.588 -0.5018  1.7601  2.4667
 7685TIP3    H244471   6.053   5.418  15.652  2.0787  0.5948 -0.8409
 7686TIP3   OH244472   0.618   2.768   5.342  0.0844  0.1285 -0.1758
 7686TIP3    H144473   0.705   2.731   5.325 -0.7971 -2.6571  0.8186
 7686TIP3    H244474   0.624   2.803   5.431  0.2309  0.0991 -0.1739
 7687TIP3   OH244475   0.603   5.046   5.165 -0.1532 -0.0198 -0.3680
 7687TIP3    H144476   0.658   5.053   5.087 -0.7942 -1.5960 -1.0057
 7687TIP3    H244477   0.555   4.964   5.153 -0.5416 -0.1124  1.5174
 7688TIP3   OH244478   6.732   3.489   3.950  0.0846 -0.1372 -0.5798
 7688TIP3    H144479   6.678   3.411   3.966 -1.5318  0.8019 -1.2395
 7688TIP3    H244480   6.714   3.512   3.859  1.2417  0.5050 -0.6688
 7689TIP3   OH244481   4.389   2.932  12.200  0.5637 -0.1097 -0.0846
 7689TIP3    H144482   4.313   2.942  12.144  2.1053  1.6720 -2.0301
 7689TIP3    H244483   4.359   2.960  12.286 -1.5335 -1.6562 -0.2356
 7690TIP3   OH244484   1.958   5.399   2.392  0.1387 -0.3608  0.2418
 7690TIP3    H144485   1.935   5.323   2.446 -0.2987 -0.3765  0.0448
 7690TIP3    H244486   1.926   5.474   2.441 -0.5505 -0.3993 -0.1423
 7691TIP3   OH244487   6.769   5.134  17.187  0.1169  0.2217  0.2490
 7691TIP3    H144488   6.810   5.069  17.244  1.3564 -0.1355 -0.9923
 7691TIP3    H244489   6.804   5.218  17.218 -1.1846  0.3211  1.5997
 7692TIP3   OH244490   1.663   3.713  11.836 -0.0220 -0.3402 -0.1891
 7692TIP3    H144491   1.608   3.791  11.826 -0.6158 -0.8080 -0.6326
 7692TIP3    H244492   1.605   3.648  11.875  0.4007 -0.6424 -0.0584
 7693TIP3   OH244493   2.177   6.043   4.230 -0.0863  0.3054 -0.2914
 7693TIP3    H144494   2.229   6.087   4.298 -1.3474  0.8797  0.3499
 7693TIP3    H244495   2.113   6.109   4.204 -1.3842 -0.8216 -0.0345
 7694TIP3   OH244496   2.054   0.907  15.754 -0.4818 -0.1863  0.2575
 7694TIP3    H144497   2.144   0.886  15.782  0.0561 -0.3035 -1.4623
 7694TIP3    H244498   2.060   0.995  15.718 -1.1510 -0.0578  0.4504
 7695TIP3   OH244499   2.055   3.190  15.004  0.4948  0.3054  0.0165
 7695TIP3    H144500   2.130   3.240  15.036  0.7856 -0.5404  0.6930
 7695TIP3    H244501   2.053   3.206  14.910  0.8626  1.2088  0.1553
 7696TIP3   OH244502   0.675   2.010  12.207 -0.2934 -0.8413 -0.3922
 7696TIP3    H144503   0.615   1.963  12.149 -1.9245 -0.1836  0.6888
 7696TIP3    H244504   0.737   2.054  12.148 -0.4550 -2.0583 -1.5082
 7697TIP3   OH244505   4.198   5.165   0.696  0.6599 -0.5703 -0.3757
 7697TIP3    H144506   4.109   5.144   0.722  1.2154 -2.0703  0.4087
 7697TIP3    H244507   4.198   5.160   0.600  0.3268 -2.4251 -0.2991
 7698TIP3   OH244508   4.571   1.192   6.087 -0.3350 -0.2136 -0.2836
 7698TIP3    H144509   4.512   1.193   6.012  0.1059  0.0749 -0.6343
 7698TIP3    H244510   4.636   1.124   6.067  1.1794  1.4295 -1.2966
 7699TIP3   OH244511   2.701   1.713   2.680 -0.0027 -0.4646 -0.0899
 7699TIP3    H144512   2.632   1.653   2.652 -1.2076  0.5549  0.6094
 7699TIP3    H244513   2.765   1.656   2.725 -1.3729 -1.1910  1.0311
 7700TIP3   OH244514   3.816   6.419   1.696  0.4940 -1.0223 -0.1643
 7700TIP3    H144515   3.837   6.501   1.651  1.6981 -1.8903 -1.2647
 7700TIP3    H244516   3.860   6.427   1.781 -0.7533  0.1191  0.4048
 7701TIP3   OH244517   0.489   2.373   2.839 -0.4706  0.2238  0.4519
 7701TIP3    H144518   0.476   2.307   2.770  1.1830 -0.1912  0.4873
 7701TIP3    H244519   0.493   2.456   2.792  0.1359 -0.0028  0.0892
 7702TIP3   OH244520   2.704   3.606  15.938  0.2833 -0.3311 -0.1710
 7702TIP3    H144521   2.678   3.651  16.017 -0.5185  0.5674 -0.9308
 7702TIP3    H244522   2.737   3.521  15.968 -0.1294 -0.0519  1.0935
 7703TIP3   OH244523   5.217   1.210   0.567  0.1716  0.0030  0.2592
 7703TIP3    H144524   5.195   1.201   0.660 -1.3813  0.1994 -0.0612
 7703TIP3    H244525   5.280   1.140   0.551 -0.3496 -0.7178  1.2150
 7704TIP3   OH244526   2.906   6.611  15.423 -0.9180 -0.4330 -0.0132
 7704TIP3    H144527   3.000   6.625  15.438 -0.7524  0.1561 -1.4478
 7704TIP3    H244528   2.888   6.527  15.466  0.0192 -0.0479  1.2041
 7705TIP3   OH244529   0.526   5.070  13.176 -0.5182 -0.1128  0.2364
 7705TIP3    H144530   0.462   5.003  13.153  1.7883 -2.3976  0.0101
 7705TIP3    H244531   0.583   5.028  13.240  0.5054  1.9869  0.7958
 7706TIP3   OH244532   0.459   2.487   5.217 -0.4507 -0.3508 -0.2306
 7706TIP3    H144533   0.483   2.566   5.168 -1.2038  0.1637  0.2114
 7706TIP3    H244534   0.491   2.503   5.305  2.3440 -1.9397 -0.8288
 7707TIP3   OH244535   5.842   3.269  13.179  0.4420 -0.1723  0.4027
 7707TIP3    H144536   5.902   3.215  13.127  0.7065 -0.1745  0.7111
 7707TIP3    H244537   5.812   3.210  13.249 -0.5664 -0.4323 -0.2244
 7708TIP3   OH244538   0.582   2.318  13.918  0.2874  0.0850 -0.2217
 7708TIP3    H144539   0.513   2.285  13.975  0.1237  1.6618  0.5604
 7708TIP3    H244540   0.542   2.325  13.832  0.0211 -0.6876 -0.1659
 7709TIP3   OH244541   0.292   4.279  11.759  0.4232 -0.3249 -0.0501
 7709TIP3    H144542   0.326   4.362  11.726 -1.5569  1.2720  1.6144
 7709TIP3    H244543   0.347   4.258  11.834 -0.0925  0.3904  0.5344
 7710TIP3   OH244544   0.208   3.882   5.560 -0.4385 -0.7993 -0.3460
 7710TIP3    H144545   0.302   3.899   5.561 -0.2499 -1.8293  0.3687
 7710TIP3    H244546   0.171   3.956   5.608  0.3274 -2.0150  2.2658
 7711TIP3   OH244547   4.859   1.797  14.530  0.0270  0.1992  0.3623
 7711TIP3    H144548   4.907   1.766  14.607  2.0553  0.4125 -0.7440
 7711TIP3    H244549   4.921   1.856  14.485 -1.5504  1.0702 -0.7757
 7712TIP3   OH244550   3.169   2.547   3.974 -0.5944  0.2887 -0.0260
 7712TIP3    H144551   3.252   2.511   3.944 -0.5645 -0.3071  0.7475
 7712TIP3    H244552   3.106   2.519   3.907 -0.2446  0.3943 -0.4020
 7713TIP3   OH244553   4.162   3.865   5.152 -0.2293  0.3716  0.2155
 7713TIP3    H144554   4.068   3.878   5.137  0.0800 -0.1000 -2.6743
 7713TIP3    H244555   4.197   3.845   5.066  2.6894  1.2230  1.1137
 7714TIP3   OH244556   2.351   4.368   6.468 -0.1588 -0.3772 -0.3355
 7714TIP3    H144557   2.324   4.299   6.407  0.9032 -2.2172  1.1852
 7714TIP3    H244558   2.338   4.450   6.419 -1.0589 -1.6567 -2.3461
 7715TIP3   OH244559   3.580   3.777  13.356  0.3786 -0.0546 -0.4311
 7715TIP3    H144560   3.555   3.746  13.443 -0.2979  0.4226 -0.4485
 7715TIP3    H244561   3.530   3.857  13.343  1.3239  0.4956 -0.8081
 7716TIP3   OH244562   3.390   0.427   3.865  0.0916  0.1402  0.0645
 7716TIP3    H144563   3.355   0.482   3.796  0.9093  2.8127  1.6549
 7716TIP3    H244564   3.485   0.429   3.852  0.1661 -0.6344  0.3880
 7717TIP3   OH244565   3.126   6.153   2.004  0.2612 -1.2397  0.2191
 7717TIP3    H144566   3.166   6.236   2.029  0.1770 -0.6580 -1.4161
 7717TIP3    H244567   3.088   6.118   2.084 -0.1365  0.5505  0.8332
 7718TIP3   OH244568   3.705   6.638   4.648  0.7157 -0.1398 -0.0771
 7718TIP3    H144569   3.612   6.655   4.659  1.0115  1.6043 -0.0701
 7718TIP3    H244570   3.745   6.724   4.636  2.0332 -0.9589 -2.4114
 7719TIP3   OH244571   2.492   6.541  14.977 -0.0930  0.1189 -0.2505
 7719TIP3    H144572   2.517   6.574  15.063 -1.7688  0.3225  0.1878
 7719TIP3    H244573   2.452   6.616  14.934 -0.6904 -0.4002 -0.6076
 7720TIP3   OH244574   4.758   5.694  11.921  0.6018 -0.1483 -0.5686
 7720TIP3    H144575   4.804   5.616  11.890  0.8357  0.1560 -0.9849
 7720TIP3    H244576   4.711   5.664  11.999  0.8576 -0.6546 -0.6049
 7721TIP3   OH244577   6.186   6.001   4.264 -0.2533 -0.3477  0.1657
 7721TIP3    H144578   6.113   6.052   4.230 -1.4128 -0.6002  2.1289
 7721TIP3    H244579   6.175   5.914   4.226 -1.6221 -0.6740  1.2456
 7722TIP3   OH244580   2.733   6.599  15.727  0.3134  0.4326 -0.1373
 7722TIP3    H144581   2.828   6.589  15.727  0.1236 -2.1373  0.1244
 7722TIP3    H244582   2.700   6.509  15.737 -2.1698  0.9673 -2.5686
 7723TIP3   OH244583   3.803   2.107   4.980 -0.2792  0.3576  0.3117
 7723TIP3    H144584   3.760   2.065   5.055  0.8734 -0.3571  0.5879
 7723TIP3    H244585   3.810   2.038   4.915  2.2017 -0.1353  1.0013
 7724TIP3   OH244586   5.431   3.453   5.286 -0.3347  0.6727  0.1392
 7724TIP3    H144587   5.493   3.450   5.359  0.9225  0.5981 -0.8957
 7724TIP3    H244588   5.464   3.389   5.223 -1.3290  0.8177 -0.5561
 7725TIP3   OH244589   2.235   5.937   3.492 -0.7746 -0.2733  0.6590
 7725TIP3    H144590   2.300   6.001   3.464 -1.2133 -0.2787 -0.4591
 7725TIP3    H244591   2.151   5.975   3.464 -1.1490 -0.7746  1.0729
 7726TIP3   OH244592   6.218   3.129  14.432  0.3164  0.2666 -0.5124
 7726TIP3    H144593   6.158   3.202  14.416 -0.9264 -0.2097  1.5123
 7726TIP3    H244594   6.172   3.052  14.397  0.4086  0.1044 -0.2789
 7727TIP3   OH244595   1.193   0.572   3.473  0.1271  0.1541  0.2689
 7727TIP3    H144596   1.239   0.627   3.537  3.6643 -0.7601 -1.2543
 7727TIP3    H244597   1.203   0.483   3.507  0.9173 -0.2112 -0.8820
 7728TIP3   OH244598   1.524   3.973  12.853  0.4765  0.3766  0.4883
 7728TIP3    H144599   1.473   4.028  12.793 -0.5054  0.0459  0.9963
 7728TIP3    H244600   1.565   4.035  12.913  1.9257  0.7556 -0.8177
 7729TIP3   OH244601   4.906   4.235   5.021  0.2098  0.3652  0.0535
 7729TIP3    H144602   4.857   4.155   5.041  0.9968 -0.7369 -2.0723
 7729TIP3    H244603   4.977   4.206   4.963 -0.2650  2.7772 -1.8952
 7730TIP3   OH244604   1.047   1.139  14.631  0.4897  0.3460 -0.1287
 7730TIP3    H144605   1.023   1.059  14.585  2.1644  0.0368 -0.5044
 7730TIP3    H244606   1.114   1.112  14.693  0.5126  1.3343  0.2920
 7731TIP3   OH244607   0.479   2.023  12.535  0.1643 -0.2610 -0.2454
 7731TIP3    H144608   0.406   2.026  12.473  1.7429  0.3728 -2.1570
 7731TIP3    H244609   0.530   2.101  12.517  1.1301 -0.4665  1.3400
 7732TIP3   OH244610   6.330   0.250   2.707 -0.3046  0.2719 -0.4821
 7732TIP3    H144611   6.359   0.164   2.677 -0.4209 -0.3868  1.2084
 7732TIP3    H244612   6.236   0.252   2.687 -0.3554 -0.0976 -0.2863
 7733TIP3   OH244613   1.057   6.221   1.542 -0.3386  0.2495 -0.2071
 7733TIP3    H144614   0.975   6.252   1.504  0.4921  0.5419 -1.8625
 7733TIP3    H244615   1.040   6.130   1.566 -1.2681  0.4315 -0.1698
 7734TIP3   OH244616   4.493   2.458   5.019  0.1855  0.3910  0.8022
 7734TIP3    H144617   4.559   2.518   4.984  1.1060  0.4704  2.5421
 7734TIP3    H244618   4.415   2.512   5.031  1.0627  1.3472  2.5269
 7735TIP3   OH244619   3.334   2.852  15.945 -0.1440 -0.5052  0.5905
 7735TIP3    H144620   3.423   2.878  15.968 -0.7914 -0.0398  2.7913
 7735TIP3    H244621   3.301   2.923  15.890  0.3640  0.0276  0.9698
 7736TIP3   OH244622   3.090   5.803   6.681 -0.3108 -0.1796 -0.2692
 7736TIP3    H144623   3.018   5.846   6.727  0.6345  1.2682 -0.1139
 7736TIP3    H244624   3.056   5.715   6.662 -1.5869 -0.0143  1.0581
 7737TIP3   OH244625   6.492   3.900  15.532 -0.4212  0.1160 -0.1676
 7737TIP3    H144626   6.585   3.917  15.545 -0.6943  1.0134  0.7781
 7737TIP3    H244627   6.483   3.805  15.543  0.4790 -0.0789 -0.9989
 7738TIP3   OH244628   0.878   0.776   5.604  0.3811  0.0449  0.3705
 7738TIP3    H144629   0.873   0.796   5.697 -2.0570  0.5329  0.2222
 7738TIP3    H244630   0.845   0.854   5.560 -0.3286 -0.8394 -0.7632
 7739TIP3   OH244631   1.837   0.674  12.578  0.7968  0.0533  0.0949
 7739TIP3    H144632   1.742   0.658  12.581  0.8741 -0.2623  0.9310
 7739TIP3    H244633   1.876   0.594  12.611  1.2490  1.3131  2.8388
 7740TIP3   OH244634   3.316   6.292   3.598 -0.1713  0.0387 -0.1352
 7740TIP3    H144635   3.408   6.302   3.623 -0.2839  1.7566 -0.2973
 7740TIP3    H244636   3.303   6.356   3.528 -1.8562  0.9045  0.9004
 7741TIP3   OH244637   0.789   2.692  10.878 -0.3703 -0.1795  0.2048
 7741TIP3    H144638   0.826   2.760  10.821 -0.7047 -0.7664 -0.7394
 7741TIP3    H244639   0.847   2.617  10.866  0.1013 -0.0325  1.3821
 7742TIP3   OH244640   2.145   2.170   1.554  0.0335 -0.0756  0.6500
 7742TIP3    H144641   2.190   2.096   1.512 -0.8422  0.4749 -1.4048
 7742TIP3    H244642   2.214   2.234   1.570  0.2333  0.3443 -1.5166
 7743TIP3   OH244643   6.486   6.762  10.658  0.5250 -0.5555  0.1426
 7743TIP3    H144644   6.451   6.732  10.574  0.0690 -1.1472  0.5335
 7743TIP3    H244645   6.408   6.778  10.711  0.7991 -2.6898  1.3093
 7744TIP3   OH244646   1.422   2.871  12.928 -0.4682  0.0804  0.3210
 7744TIP3    H144647   1.392   2.959  12.905  0.9850  1.1007  2.0682
 7744TIP3    H244648   1.515   2.872  12.906 -0.7660 -1.6504 -1.2448
 7745TIP3   OH244649   2.922   2.437   1.455 -0.1164 -0.2057 -0.0638
 7745TIP3    H144650   2.987   2.507   1.448  0.6359 -1.0244 -1.6898
 7745TIP3    H244651   2.919   2.398   1.368 -0.5365 -2.1794  0.7825
 7746TIP3   OH244652   3.785   2.441   2.973 -0.2351  0.2972 -0.1928
 7746TIP3    H144653   3.829   2.431   2.889  2.8560  0.8830  1.1981
 7746TIP3    H244654   3.853   2.424   3.038 -2.5424 -0.3933  2.2448
 7747TIP3   OH244655   5.207   2.049   6.162  0.4424  0.0382  0.4813
 7747TIP3    H144656   5.289   2.097   6.173  0.3730  0.6081 -1.1631
 7747TIP3    H244657   5.232   1.957   6.165  1.2808  0.2024 -0.6967
 7748TIP3   OH244658   4.189   5.072  12.187 -0.3055  0.3548 -0.2001
 7748TIP3    H144659   4.094   5.059  12.196  0.1054 -1.6702  2.4504
 7748TIP3    H244660   4.215   5.009  12.120 -0.7012  0.1809 -0.1961
 7749TIP3   OH244661   1.250   0.899   3.214  0.0101  0.1735  0.1184
 7749TIP3    H144662   1.183   0.839   3.247  0.5276  0.3375  1.5680
 7749TIP3    H244663   1.299   0.848   3.150  0.0442 -0.7705  0.8755
 7750TIP3   OH244664   3.356   4.360   3.287 -0.0199 -0.6769 -0.1852
 7750TIP3    H144665   3.293   4.293   3.261 -0.0698 -0.6539 -0.1240
 7750TIP3    H244666   3.367   4.348   3.382 -0.5186 -0.1828 -0.0642
 7751TIP3   OH244667   2.555   1.019  12.901 -0.0631 -0.4379 -0.4814
 7751TIP3    H144668   2.523   1.038  12.812  0.9363 -1.3016 -1.0457
 7751TIP3    H244669   2.477   0.991  12.949 -0.6237  0.0645 -1.0735
 7752TIP3   OH244670   2.033   5.495   5.681 -0.2426 -0.0389  0.2401
 7752TIP3    H144671   2.025   5.577   5.633 -2.4283  0.7425  1.7705
 7752TIP3    H244672   2.054   5.522   5.771  2.8381 -1.3995  0.0614
 7753TIP3   OH244673   3.256   4.913   4.268 -0.2413  0.3150  0.6708
 7753TIP3    H144674   3.270   4.988   4.211 -0.3252 -1.1148 -1.3057
 7753TIP3    H244675   3.344   4.880   4.287 -0.2594  0.2690  0.6745
 7754TIP3   OH244676   0.728   0.310  15.371 -0.2494 -0.0335 -0.1194
 7754TIP3    H144677   0.757   0.338  15.284  0.2265 -1.3728 -0.4174
 7754TIP3    H244678   0.808   0.282  15.415 -0.4774  0.7003  0.7971
 7755TIP3   OH244679   0.113   0.731   4.691 -0.2330 -0.1148 -1.1276
 7755TIP3    H144680   0.058   0.753   4.767  2.8068  0.3538  1.1250
 7755TIP3    H244681   0.130   0.816   4.649  1.2303  0.1907  0.0332
 7756TIP3   OH244682   1.971   0.092   0.513 -0.7367  0.0077  0.3068
 7756TIP3    H144683   1.885   0.120   0.480 -0.0959  0.5938 -0.9381
 7756TIP3    H244684   1.951   0.020   0.573 -2.2059  1.0993  1.2089
 7757TIP3   OH244685   4.441   3.566  12.648 -0.1441 -0.0028 -0.1831
 7757TIP3    H144686   4.380   3.496  12.624  0.8685 -0.9603 -0.0756
 7757TIP3    H244687   4.392   3.647  12.633 -2.1177 -0.7240  1.7354
 7758TIP3   OH244688   2.316   0.251   2.692  0.3035  0.3149 -0.3248
 7758TIP3    H144689   2.378   0.287   2.629  1.0293  2.4997  1.4928
 7758TIP3    H244690   2.348   0.283   2.777 -0.7807 -2.2332  1.1579
 7759TIP3   OH244691   0.602   0.975  10.693 -0.1840 -0.6988  0.0473
 7759TIP3    H144692   0.554   1.050  10.658 -0.0183 -0.7676 -0.3365
 7759TIP3    H244693   0.682   1.013  10.729 -1.0151 -0.4370  1.7230
 7760TIP3   OH244694   0.426   5.580  12.842 -0.6563  0.2452  0.1651
 7760TIP3    H144695   0.388   5.522  12.776  0.7636 -0.6483  0.0908
 7760TIP3    H244696   0.476   5.521  12.899 -0.5036  1.2079  1.0440
 7761TIP3   OH244697   6.059   4.237   2.843 -0.2876 -0.2125  0.6419
 7761TIP3    H144698   6.102   4.289   2.775  1.3018  0.1691  1.8894
 7761TIP3    H244699   6.049   4.150   2.804 -3.1562  0.9276 -1.5482
 7762TIP3   OH244700   2.284   3.555   2.313 -0.7923 -0.0818  0.2121
 7762TIP3    H144701   2.328   3.573   2.230  0.8069  0.5005  1.1221
 7762TIP3    H244702   2.354   3.519   2.369 -1.7064  0.0096  1.4493
 7763TIP3   OH244703   6.406   0.903   0.728  0.2917  0.2016  0.3320
 7763TIP3    H144704   6.335   0.942   0.779  0.3848 -0.6693  1.1486
 7763TIP3    H244705   6.363   0.868   0.650  0.0599  1.0076  0.0888
 7764TIP3   OH244706   5.372   1.422   0.471  0.0515 -0.2174 -0.3146
 7764TIP3    H144707   5.459   1.382   0.476 -0.1419 -0.5148  0.9695
 7764TIP3    H244708   5.312   1.352   0.497 -0.4334  0.4022  0.2870
 7765TIP3   OH244709   2.110   1.741  15.425  0.5777  0.1464 -0.5750
 7765TIP3    H144710   2.047   1.676  15.456  0.0239  0.3293 -1.3142
 7765TIP3    H244711   2.132   1.713  15.337  1.2080  0.3322 -0.4879
 7766TIP3   OH244712   1.759   3.958  17.045  0.1133  0.4349 -0.6438
 7766TIP3    H144713   1.837   3.983  16.996  0.6962  0.1170  0.0990
 7766TIP3    H244714   1.752   4.023  17.115 -0.0369  0.2202 -0.4526
 7767TIP3   OH244715   0.293   0.086   4.987  0.6231 -0.0053 -0.0306
 7767TIP3    H144716   0.380   0.077   5.025  0.8406  0.8285 -0.3016
 7767TIP3    H244717   0.309   0.112   4.896  0.1077  1.6990  0.3226
 7768TIP3   OH244718   5.369   2.341   5.090 -0.1277  0.1234  0.2619
 7768TIP3    H144719   5.422   2.280   5.039  2.1792  1.2166  1.1830
 7768TIP3    H244720   5.373   2.307   5.179 -1.7773 -0.2459  0.2199
 7769TIP3   OH244721   3.418   2.241  16.577  0.0364  0.4039 -0.2010
 7769TIP3    H144722   3.442   2.158  16.536  1.5373 -0.3536  2.0727
 7769TIP3    H244723   3.322   2.237  16.583 -0.0222 -0.5395 -1.3026
 7770TIP3   OH244724   0.411   1.564  14.503  0.3370 -0.2304 -0.5333
 7770TIP3    H144725   0.414   1.484  14.555 -1.3947 -1.0239 -1.5802
 7770TIP3    H244726   0.454   1.540  14.421  0.3591  0.1137 -0.6223
 7771TIP3   OH244727   0.748   2.133  13.844  0.2460 -0.0127  0.0276
 7771TIP3    H144728   0.714   2.052  13.883 -1.1937  0.0684 -0.9568
 7771TIP3    H244729   0.683   2.200  13.868  0.5064  0.4783 -0.6122
 7772TIP3   OH244730   0.552   6.562   5.530 -0.1437  0.0225 -0.5525
 7772TIP3    H144731   0.629   6.508   5.547  2.7648  4.0482  0.4808
 7772TIP3    H244732   0.559   6.587   5.438 -0.1648  0.4306 -0.4477
 7773TIP3   OH244733   0.098   1.156  15.744  0.0462  0.2758  0.1735
 7773TIP3    H144734   0.053   1.210  15.810 -1.1349 -0.2362 -0.1837
 7773TIP3    H244735   0.169   1.114  15.792  0.2502  1.2316  0.7234
 7774TIP3   OH244736   2.498   2.639   4.767  0.0223  0.2932  0.1284
 7774TIP3    H144737   2.529   2.634   4.677  2.1405 -0.1351  0.8169
 7774TIP3    H244738   2.485   2.733   4.783 -0.5280  0.3610 -0.6407
 7775TIP3   OH244739   5.117   0.877   0.302  0.6001  0.2878 -0.0890
 7775TIP3    H144740   5.173   0.930   0.361 -0.9963 -0.5011  2.2918
 7775TIP3    H244741   5.080   0.941   0.242  1.4053  1.3446  0.4816
 7776TIP3   OH244742   2.126   4.542   3.429 -0.3470 -0.0560  0.0430
 7776TIP3    H144743   2.123   4.507   3.518 -0.7675  0.4331  0.2277
 7776TIP3    H244744   2.066   4.617   3.431  0.4794  0.6390 -0.3511
 7777TIP3   OH244745   3.422   2.697  12.145  0.1880 -0.1547 -0.0862
 7777TIP3    H144746   3.412   2.652  12.061 -1.3806 -0.1842  0.0875
 7777TIP3    H244747   3.486   2.645  12.193 -1.1503 -1.9106 -0.1085
 7778TIP3   OH244748   1.767   3.739   0.192  0.5627  0.6476 -0.0533
 7778TIP3    H144749   1.786   3.646   0.199 -0.0679  0.5976  1.3227
 7778TIP3    H244750   1.824   3.780   0.257  1.2686  1.3119 -1.0555
 7779TIP3   OH244751   4.928   3.932  10.371  1.0972 -0.8137 -0.1845
 7779TIP3    H144752   4.865   3.873  10.328  1.0409 -3.0837  2.6505
 7779TIP3    H244753   4.962   3.880  10.444  1.9579  2.3464  1.8293
 7780TIP3   OH244754   2.810   0.695  13.843  0.1617 -0.5530 -0.5734
 7780TIP3    H144755   2.799   0.627  13.910  0.9787 -0.9545 -0.8348
 7780TIP3    H244756   2.723   0.706  13.805  0.0166 -1.4433 -0.5090
 7781TIP3   OH244757   5.268   0.369   6.813 -0.0112  1.2717 -0.1724
 7781TIP3    H144758   5.223   0.439   6.861 -1.7922 -0.3766  0.7028
 7781TIP3    H244759   5.208   0.345   6.743 -0.4898 -0.7785  0.8351
 7782TIP3   OH244760   2.236   0.876   1.782 -0.6525  0.2030 -0.2381
 7782TIP3    H144761   2.167   0.936   1.752 -0.4428  0.5949  0.0541
 7782TIP3    H244762   2.299   0.875   1.710 -0.6625  0.3214 -0.2491
 7783TIP3   OH244763   4.686   1.670  16.848  0.4267  0.0356  0.2824
 7783TIP3    H144764   4.766   1.707  16.812  1.0240 -0.2935  1.2239
 7783TIP3    H244765   4.660   1.603  16.785 -0.9679  2.3163 -1.7214
 7784TIP3   OH244766   2.760   1.267   5.810  0.1542 -0.1391 -0.3171
 7784TIP3    H144767   2.808   1.231   5.885  1.0364  0.5246 -0.5554
 7784TIP3    H244768   2.721   1.190   5.768  1.1936 -0.7140 -0.2586
 7785TIP3   OH244769   6.670   1.901   0.170 -0.9880 -0.1434  0.7151
 7785TIP3    H144770   6.617   1.920   0.092 -0.9641  0.9107  0.9427
 7785TIP3    H244771   6.732   1.834   0.141  0.1603  1.4465 -0.6630
 7786TIP3   OH244772   2.754   1.893   0.057 -0.1257 -0.1200 -0.1482
 7786TIP3    H144773   2.682   1.849   0.101 -0.0003 -0.0545  0.1277
 7786TIP3    H244774   2.833   1.856   0.096 -0.0040 -0.3241 -0.5757
 7787TIP3   OH244775   4.201   0.363  15.877 -0.0717  0.0943 -0.2118
 7787TIP3    H144776   4.260   0.330  15.946  0.8533  1.0030 -0.5413
 7787TIP3    H244777   4.207   0.298  15.807 -1.2397 -0.9890  0.6462
 7788TIP3   OH244778   2.136   5.087  12.339 -0.2104 -0.0206  0.1507
 7788TIP3    H144779   2.042   5.066  12.336 -0.3493  0.6085 -0.3610
 7788TIP3    H244780   2.180   5.002  12.342 -0.7520 -0.3883 -1.4044
 7789TIP3   OH244781   3.651   1.490   3.789  0.1871  0.4953 -0.0821
 7789TIP3    H144782   3.641   1.406   3.834  0.8827  1.2071  1.4811
 7789TIP3    H244783   3.727   1.477   3.732  0.6195  0.2271  0.5490
 7790TIP3   OH244784   1.716   5.589  14.319 -0.4465  0.3432 -0.1107
 7790TIP3    H144785   1.693   5.567  14.228 -1.5160 -1.2399  0.4863
 7790TIP3    H244786   1.784   5.526  14.342  0.4307  1.2995 -0.0742
 7791TIP3   OH244787   4.875   0.291  12.496  0.2357 -0.2791  0.3873
 7791TIP3    H144788   4.830   0.374  12.515  0.4305 -0.3080  0.9810
 7791TIP3    H244789   4.945   0.286  12.561 -2.1805 -2.8109  3.0719
 7792TIP3   OH244790   6.068   1.345  14.752 -0.5418  0.3164  0.1192
 7792TIP3    H144791   6.046   1.255  14.726 -1.4593  0.8873 -1.2362
 7792TIP3    H244792   6.031   1.355  14.839  1.1150 -1.1473  1.0584
 7793TIP3   OH244793   1.142   3.230  16.749  0.4494  0.3635 -0.4054
 7793TIP3    H144794   1.072   3.261  16.807  1.3680  0.9318  0.4241
 7793TIP3    H244795   1.181   3.310  16.715 -0.7239  0.0505 -2.6715
 7794TIP3   OH244796   0.859   4.081   2.848 -0.4272 -0.2159 -0.2503
 7794TIP3    H144797   0.831   3.991   2.830 -0.0471 -0.3832 -0.0185
 7794TIP3    H244798   0.778   4.132   2.844 -0.5566 -0.4742 -0.9628
 7795TIP3   OH244799   2.069   1.610   4.157  0.2743  0.3649 -0.1318
 7795TIP3    H144800   2.091   1.557   4.234 -0.8905  0.1937  0.1047
 7795TIP3    H244801   2.038   1.546   4.093  0.5521  0.5875 -0.4917
 7796TIP3   OH244802   0.801   3.611  15.579 -0.0818 -0.1675  0.0081
 7796TIP3    H144803   0.888   3.608  15.619  0.8895  0.3061 -1.9441
 7796TIP3    H244804   0.781   3.705  15.573  0.5629 -0.1150 -2.0779
 7797TIP3   OH244805   5.976   2.594  14.420  0.4830  0.0401 -0.2632
 7797TIP3    H144806   5.948   2.508  14.390  0.3913 -0.2879  0.7170
 7797TIP3    H244807   6.072   2.592  14.414  0.4125  0.5334 -1.9507
 7798TIP3   OH244808   6.512   0.140   2.141 -0.5057 -0.1062  0.1263
 7798TIP3    H144809   6.576   0.118   2.208  0.2504  0.9558 -0.2177
 7798TIP3    H244810   6.427   0.118   2.180 -0.0553  0.1419  1.2887
 7799TIP3   OH244811   5.442   1.916  15.908 -0.2328 -0.7520  0.1096
 7799TIP3    H144812   5.446   1.941  16.000 -0.4939 -0.3895  0.0240
 7799TIP3    H244813   5.533   1.899  15.883 -0.0888 -0.2175  0.2592
 7800TIP3   OH244814   0.237   2.423   0.275 -0.4472 -0.4929  0.1173
 7800TIP3    H144815   0.302   2.362   0.309  0.5016  1.1622  1.4336
 7800TIP3    H244816   0.159   2.407   0.328 -0.4583 -1.0927 -0.0790
 7801TIP3   OH244817   5.490   1.480   3.330  0.7747 -0.2762 -0.3923
 7801TIP3    H144818   5.426   1.411   3.346  0.4870  0.0634 -0.0491
 7801TIP3    H244819   5.553   1.472   3.401  0.3436  0.2592  0.0679
 7802TIP3   OH244820   1.119   1.606   0.005  0.4269  0.2754  0.2926
 7802TIP3    H144821   1.153   1.526  -0.034  1.3112 -0.2320  1.9873
 7802TIP3    H244822   1.139   1.597   0.098 -1.6893  1.3531  0.9132
 7803TIP3   OH244823   4.057   3.567  15.999 -0.2549 -0.0608  0.0586
 7803TIP3    H144824   4.005   3.595  15.924  1.3458 -1.2490 -1.5926
 7803TIP3    H244825   4.147   3.588  15.975  0.2182  0.7437  2.2559
 7804TIP3   OH244826   4.485   0.102   0.954 -0.1121 -0.6281 -0.3279
 7804TIP3    H144827   4.399   0.118   0.917  0.3516  0.6088 -0.9083
 7804TIP3    H244828   4.527   0.040   0.894 -0.1439 -0.2871 -0.6967
 7805TIP3   OH244829   2.750   0.225  13.528  0.5146 -0.1057 -0.0602
 7805TIP3    H144830   2.757   0.311  13.570 -0.6464  0.4861 -0.9966
 7805TIP3    H244831   2.808   0.169  13.578  3.0821  1.7265 -0.7858
 7806TIP3   OH244832   2.202   2.802   2.938 -0.1508 -0.5330  0.3233
 7806TIP3    H144833   2.230   2.830   2.851 -0.4273 -1.0847  0.0488
 7806TIP3    H244834   2.116   2.843   2.950  0.4835  0.6751  0.9205
 7807TIP3   OH244835   2.532   4.529   1.890 -0.0181 -0.7625  0.4259
 7807TIP3    H144836   2.611   4.583   1.884 -0.8692  0.5941  0.9098
 7807TIP3    H244837   2.519   4.496   1.801  0.1194  0.4571 -0.0701
 7808TIP3   OH244838   2.774   0.108   0.802 -0.2608  0.5456  0.5063
 7808TIP3    H144839   2.736   0.027   0.835  1.2258  0.2376  1.5152
 7808TIP3    H244840   2.861   0.112   0.839  0.9096  1.0292 -2.0499
 7809TIP3   OH244841   6.592   6.295   1.014 -0.1315 -0.1177 -0.4074
 7809TIP3    H144842   6.576   6.340   1.097 -1.4000  0.9784 -1.2038
 7809TIP3    H244843   6.638   6.215   1.039 -2.3090 -0.8596  1.5827
 7810TIP3   OH244844   3.745   1.867  11.606 -0.0818  0.1351  0.1955
 7810TIP3    H144845   3.754   1.810  11.683  4.1288  2.0107  1.3848
 7810TIP3    H244846   3.732   1.806  11.533  0.8142 -2.1484  1.8056
 7811TIP3   OH244847   5.398   6.332   4.680  0.3078  0.5694 -0.5089
 7811TIP3    H144848   5.455   6.324   4.604  1.3554  0.8299  0.2238
 7811TIP3    H244849   5.455   6.367   4.749 -0.8428  1.2330  0.1369
 7812TIP3   OH244850   5.188   2.669  14.187 -0.6295  0.1112  0.0934
 7812TIP3    H144851   5.185   2.724  14.266 -0.1973  0.5411 -0.1870
 7812TIP3    H244852   5.246   2.597  14.211  0.8809  1.1275 -0.3759
 7813TIP3   OH244853   0.169   4.025   2.107  0.6032 -0.0297 -0.9028
 7813TIP3    H144854   0.226   4.044   2.181  0.9842  0.5758 -1.3458
 7813TIP3    H244855   0.120   3.948   2.134  1.2125 -0.2091 -0.2870
 7814TIP3   OH244856   4.485   0.449   4.432  0.0559 -0.1300  0.3092
 7814TIP3    H144857   4.448   0.413   4.352  0.0837  0.9766 -0.2247
 7814TIP3    H244858   4.473   0.380   4.497 -1.8697 -0.2591 -0.1315
 7815TIP3   OH244859   3.393   5.966   4.312 -0.1621 -0.2423 -0.0865
 7815TIP3    H144860   3.321   6.018   4.349 -1.5329 -1.5178 -0.8587
 7815TIP3    H244861   3.410   6.007   4.227  1.9047  1.6992  1.1509
 7816TIP3   OH244862   4.863   3.085   1.544  0.3052 -0.4633  0.6365
 7816TIP3    H144863   4.908   3.015   1.592  0.2035 -0.9417  0.0570
 7816TIP3    H244864   4.771   3.060   1.546  0.4524 -1.2806 -1.0337
 7817TIP3   OH244865   6.335   5.279   2.177 -0.1553 -0.2693  0.2659
 7817TIP3    H144866   6.295   5.197   2.205  1.3050 -0.4685  1.9335
 7817TIP3    H244867   6.264   5.344   2.185 -1.0270 -1.1500 -0.0568
 7818TIP3   OH244868   4.523   4.359  12.245 -0.3325 -0.6740  0.0872
 7818TIP3    H144869   4.470   4.380  12.168  0.2135  1.1140  0.1704
 7818TIP3    H244870   4.497   4.423  12.311 -0.5050 -1.9324  1.2886
 7819TIP3   OH244871   3.918   6.475   1.927 -0.9587  0.2437  0.1650
 7819TIP3    H144872   3.986   6.423   1.970 -1.5910 -0.5793  0.2057
 7819TIP3    H244873   3.950   6.565   1.932  0.1533 -0.1331  0.1152
 7820TIP3   OH244874   4.661   6.459  12.531 -0.1773 -0.1906 -0.2251
 7820TIP3    H144875   4.723   6.387  12.547 -2.5997 -1.9495  2.2217
 7820TIP3    H244876   4.615   6.433  12.451 -0.8157 -1.3316  0.4657
 7821TIP3   OH244877   3.983   0.423  17.228  0.8209  0.7846  0.7650
 7821TIP3    H144878   3.918   0.464  17.286 -2.5607 -1.3182 -1.1858
 7821TIP3    H244879   3.947   0.433  17.140  2.8551 -1.0996 -0.3896
 7822TIP3   OH244880   0.768   0.225   3.878 -0.4611  0.4570  0.1231
 7822TIP3    H144881   0.856   0.259   3.897  0.4179 -1.1744 -0.7467
 7822TIP3    H244882   0.710   0.300   3.889  0.8809  1.3335  1.8379
 7823TIP3   OH244883   1.201   6.529   2.535 -0.5345  0.0643 -0.6155
 7823TIP3    H144884   1.150   6.574   2.468  1.0246 -0.3993 -2.1909
 7823TIP3    H244885   1.283   6.506   2.492 -0.4045 -2.4286  0.7379
 7824TIP3   OH244886   2.873   2.918   0.501  0.6442  0.1513  0.1216
 7824TIP3    H144887   2.937   2.952   0.564  2.0952 -1.5693 -0.3443
 7824TIP3    H244888   2.858   2.828   0.529 -1.9386  0.6257  0.4492
 7825TIP3   OH244889   2.413   6.484   2.675 -0.2162 -0.1928  0.1463
 7825TIP3    H144890   2.460   6.463   2.594 -0.4117  3.8465 -1.2593
 7825TIP3    H244891   2.427   6.578   2.687 -1.5346 -0.3069  4.0170
 7826TIP3   OH244892   3.331   3.946  12.848 -0.1309  0.3582  0.1045
 7826TIP3    H144893   3.378   4.022  12.883  0.1246  0.1286  0.2593
 7826TIP3    H244894   3.253   3.983  12.806 -0.6708  0.6055  1.2869
 7827TIP3   OH244895   4.861   5.340   0.164 -0.6156 -0.2412 -0.1350
 7827TIP3    H144896   4.878   5.379   0.079 -1.2320  1.1139  0.3422
 7827TIP3    H244897   4.768   5.355   0.180 -0.4563 -0.2461  0.8889
 7828TIP3   OH244898   3.424   5.499  14.978 -0.3764 -0.1680  0.0390
 7828TIP3    H144899   3.396   5.475  14.890 -2.0982 -1.0861  0.7780
 7828TIP3    H244900   3.388   5.430  15.034  2.3418 -0.6970  1.2835
 7829TIP3   OH244901   1.903   3.255   3.258  0.2623  0.0417 -0.7238
 7829TIP3    H144902   1.938   3.322   3.317 -1.5679  1.9019 -1.6524
 7829TIP3    H244903   1.887   3.180   3.315  0.7262  0.9831  0.7035
 7830TIP3   OH244904   6.668   1.404   0.511  0.8018  0.0776 -0.2500
 7830TIP3    H144905   6.723   1.473   0.473  1.7199 -0.4090  0.1563
 7830TIP3    H244906   6.613   1.449   0.574  1.4232  0.4352  0.0400
 7831TIP3   OH244907   5.744   0.248   3.748 -0.2401  0.0513  0.5001
 7831TIP3    H144908   5.718   0.278   3.836  0.1546 -0.8733  0.9504
 7831TIP3    H244909   5.733   0.325   3.692 -0.4761  0.6666  1.3660
 7832TIP3   OH244910   3.604   0.351  13.739 -0.1411  0.0006  0.5046
 7832TIP3    H144911   3.522   0.393  13.716 -0.6590 -1.0901  0.3133
 7832TIP3    H244912   3.579   0.273  13.789  0.7025 -0.9305 -0.4456
 7833TIP3   OH244913   6.035   1.253  13.151  0.5968 -0.5342  0.2404
 7833TIP3    H144914   5.940   1.237  13.147  0.3228  1.0929 -0.6815
 7833TIP3    H244915   6.074   1.176  13.111 -0.3399 -1.1398  0.4489
 7834TIP3   OH244916   4.190   4.948   2.873 -0.4318  0.0081  0.1450
 7834TIP3    H144917   4.107   4.904   2.891 -0.8608  1.0787  0.8402
 7834TIP3    H244918   4.256   4.880   2.887 -1.1207 -0.5800  0.6031
 7835TIP3   OH244919   1.645   0.928   5.810  0.3455  0.0592 -0.5078
 7835TIP3    H144920   1.581   0.957   5.875  0.1986 -0.0285 -0.6134
 7835TIP3    H244921   1.595   0.876   5.747  0.6585 -0.6906 -0.1499
 7836TIP3   OH244922   6.473   6.598   5.609  0.1220 -0.0909 -0.2768
 7836TIP3    H144923   6.525   6.557   5.677 -0.9355 -0.6854  0.1918
 7836TIP3    H244924   6.444   6.526   5.553 -3.1415 -0.3304  1.4931
 7837TIP3   OH244925   6.157   4.015  16.782 -0.0341  0.2849  0.1497
 7837TIP3    H144926   6.253   4.015  16.776 -0.0802  0.3754 -0.7522
 7837TIP3    H244927   6.129   4.083  16.720 -0.7396 -0.9275 -0.9307
 7838TIP3   OH244928   5.593   2.427  11.949 -0.2034  0.0259 -0.0789
 7838TIP3    H144929   5.599   2.491  12.020  0.2839  0.5582 -0.5867
 7838TIP3    H244930   5.505   2.440  11.913 -0.6168 -0.5467  0.6923
 7839TIP3   OH244931   1.786   2.397   4.327  0.4361 -0.4829 -0.0879
 7839TIP3    H144932   1.868   2.377   4.373  0.0582 -1.7618  0.0744
 7839TIP3    H244933   1.785   2.336   4.253 -0.0902 -0.0795 -0.4145
 7840TIP3   OH244934   5.193   2.897  13.703  0.0817  0.3040  0.0367
 7840TIP3    H144935   5.250   2.950  13.758 -0.0266 -0.0797  0.5216
 7840TIP3    H244936   5.162   2.827  13.760  1.4431 -1.1986 -0.9868
 7841TIP3   OH244937   0.712   4.552   4.037  0.4107 -0.3015  0.0593
 7841TIP3    H144938   0.779   4.566   3.970  1.5333  0.6958  1.3457
 7841TIP3    H244939   0.751   4.486   4.095 -0.5538 -1.1551 -0.2335
 7842TIP3   OH244940   6.353   1.575   2.774 -0.0948 -0.1922  0.2558
 7842TIP3    H144941   6.329   1.531   2.692  0.3669  0.2316 -0.1123
 7842TIP3    H244942   6.415   1.515   2.816 -0.2091 -0.3373  0.2184
 7843TIP3   OH244943   1.872   3.707  16.374  0.6410  0.0537 -0.1728
 7843TIP3    H144944   1.797   3.701  16.315  1.2315  1.6929 -1.1671
 7843TIP3    H244945   1.917   3.788  16.348  1.8439 -0.0239  1.4654
 7844TIP3   OH244946   2.808   6.558  13.343 -0.0512 -0.3542  0.4641
 7844TIP3    H144947   2.735   6.499  13.360  0.9889 -1.1934  2.3115
 7844TIP3    H244948   2.767   6.645  13.338 -1.0644 -0.5513  3.3222
 7845TIP3   OH244949   1.457   1.840  10.650  0.0115 -0.4104 -0.3671
 7845TIP3    H144950   1.381   1.807  10.699 -0.4883  1.5624  0.2612
 7845TIP3    H244951   1.532   1.802  10.694 -0.4957  0.1482  1.0544
 7846TIP3   OH244952   1.219   5.978  12.449 -0.2535 -0.4646 -0.0856
 7846TIP3    H144953   1.294   5.982  12.509  0.5670 -2.1162 -0.9231
 7846TIP3    H244954   1.245   5.913  12.383 -1.4568  0.6896 -1.7782
 7847TIP3   OH244955   0.276   3.806   1.489  0.8179  0.2782 -0.3172
 7847TIP3    H144956   0.306   3.782   1.577 -1.2627 -0.1713  0.3286
 7847TIP3    H244957   0.262   3.901   1.494 -0.9286  0.0175  0.4199
 7848TIP3   OH244958   5.940   3.483   4.671 -0.3424  0.3880 -0.0771
 7848TIP3    H144959   5.977   3.405   4.712  1.7293  1.6168  0.5299
 7848TIP3    H244960   5.913   3.454   4.584 -0.0460 -1.0921  0.2912
 7849TIP3   OH244961   5.276   3.455  16.335  0.2313 -0.0149 -0.4995
 7849TIP3    H144962   5.276   3.473  16.429  0.7634  0.0258 -0.5084
 7849TIP3    H244963   5.235   3.532  16.296  0.4001  0.1587 -0.3368
 7850TIP3   OH244964   1.536   5.119   3.358  0.5972  0.1463 -0.1719
 7850TIP3    H144965   1.569   5.048   3.412  2.4099  1.4985  0.5899
 7850TIP3    H244966   1.501   5.183   3.421  1.0587  0.9259 -0.6895
 7851TIP3   OH244967   6.105   1.222   4.472 -0.3168 -0.8086 -0.2007
 7851TIP3    H144968   6.040   1.239   4.404  0.2815 -1.1407 -0.8678
 7851TIP3    H244969   6.055   1.220   4.553 -1.1767 -1.3050 -0.7304
 7852TIP3   OH244970   2.198   2.140  10.938  0.1029 -0.0785  0.0141
 7852TIP3    H144971   2.269   2.076  10.941 -0.1409 -0.4843 -1.5924
 7852TIP3    H244972   2.119   2.087  10.923 -0.2807  0.4903  0.0044
 7853TIP3   OH244973   6.327   1.764  17.157  0.6830  0.6088  0.5828
 7853TIP3    H144974   6.243   1.798  17.189  1.0499  0.7119  1.4587
 7853TIP3    H244975   6.339   1.682  17.204 -0.3244 -0.9626 -1.7189
 7854TIP3   OH244976   0.669   2.773   0.975 -0.1681 -0.0957  0.2410
 7854TIP3    H144977   0.649   2.719   1.051  1.3226 -1.4372 -0.2556
 7854TIP3    H244978   0.745   2.730   0.935 -0.0552  1.3698 -1.2082
 7855TIP3   OH244979   1.781   5.148  13.341 -0.5935  0.6389  0.7297
 7855TIP3    H144980   1.694   5.108  13.329 -0.8020  1.0255  0.9372
 7855TIP3    H244981   1.774   5.234  13.299  0.3691 -0.1662 -1.2274
 7856TIP3   OH244982   6.035   2.013  14.615 -0.1667 -0.2086 -1.0977
 7856TIP3    H144983   6.016   1.922  14.637 -1.3377  0.4808  1.0540
 7856TIP3    H244984   6.126   2.012  14.585 -0.0299 -2.0348 -0.7138
 7857TIP3   OH244985   1.065   1.777  12.895 -0.5601  1.0880  0.4158
 7857TIP3    H144986   1.037   1.687  12.883  0.7748  0.6544  0.3556
 7857TIP3    H244987   1.160   1.774  12.886 -0.4966  2.5172  0.3111
 7858TIP3   OH244988   4.034   1.260   2.820 -0.5139 -0.3399  0.0514
 7858TIP3    H144989   4.105   1.259   2.756 -0.2061  0.8123  0.3563
 7858TIP3    H244990   3.957   1.284   2.769 -0.5309 -0.7414 -0.1197
 7859TIP3   OH244991   5.244   3.376  12.547 -0.0655 -0.2961 -0.3817
 7859TIP3    H144992   5.229   3.281  12.550 -0.7553 -0.2604 -2.0177
 7859TIP3    H244993   5.208   3.404  12.463 -2.2037  1.8569  1.1179
 7860TIP3   OH244994   0.528   1.244  15.512 -0.8565 -0.0440  0.1682
 7860TIP3    H144995   0.435   1.268  15.509 -0.6025  0.9290 -2.3937
 7860TIP3    H244996   0.575   1.327  15.521 -0.1948 -0.3139 -0.6514
 7861TIP3   OH244997   2.713   0.630   6.374 -0.3715 -0.4134 -0.1708
 7861TIP3    H144998   2.751   0.705   6.329 -0.2338 -0.8942 -0.8763
 7861TIP3    H244999   2.681   0.665   6.458 -3.7906  1.2726 -1.9844
 7862TIP3   OH245000   4.011   1.924   5.215  0.0402  0.0894 -0.1830
 7862TIP3    H145001   4.018   1.984   5.141  0.1457  0.6067  0.2433
 7862TIP3    H245002   3.991   1.839   5.175 -0.0431  0.3916 -0.7923
 7863TIP3   OH245003   0.945   2.692   0.209 -0.2436  0.6065 -0.0932
 7863TIP3    H145004   0.887   2.726   0.142 -1.3170  0.4830  0.7491
 7863TIP3    H245005   1.008   2.763   0.224 -1.2049  1.4367  0.1726
 7864TIP3   OH245006   4.086   6.311   5.035  0.0217  0.2375 -0.3348
 7864TIP3    H145007   4.092   6.381   4.970 -0.1828  2.4927  1.8954
 7864TIP3    H245008   4.112   6.232   4.988 -1.2786  1.4900 -3.4155
 7865TIP3   OH245009   2.625   2.905   6.458 -0.1503 -0.0944  0.2780
 7865TIP3    H145010   2.625   2.932   6.550 -2.3786 -1.1548  0.6685
 7865TIP3    H245011   2.706   2.855   6.447  0.2677  0.2629  1.6093
 7866TIP3   OH245012   3.114   1.696  13.283 -0.1638 -0.2837  0.1560
 7866TIP3    H145013   3.088   1.614  13.240  0.5160  0.3157 -1.4827
 7866TIP3    H245014   3.156   1.668  13.364 -2.5465 -1.4221  1.1260
 7867TIP3   OH245015   2.539   4.589   0.873  0.2519 -0.3220 -0.3005
 7867TIP3    H145016   2.476   4.518   0.858 -1.3331  0.6740  1.1729
 7867TIP3    H245017   2.622   4.555   0.841 -0.5590 -2.6272 -0.1473
 7868TIP3   OH245018   3.724   4.110   3.202  0.0739  0.1672 -0.0543
 7868TIP3    H145019   3.759   4.069   3.122  0.3202  0.1048  0.0847
 7868TIP3    H245020   3.692   4.195   3.173 -0.9746 -0.3528 -0.4632
 7869TIP3   OH245021   2.473   5.510  17.028 -0.0622  0.0512 -0.0753
 7869TIP3    H145022   2.520   5.503  17.110 -2.1160 -1.2914  1.0884
 7869TIP3    H245023   2.494   5.429  16.981 -0.6904 -0.2682  0.1803
 7870TIP3   OH245024   1.442   0.587   0.505 -0.1905 -0.1012 -0.4518
 7870TIP3    H145025   1.388   0.662   0.482 -0.3235 -0.1421 -0.2768
 7870TIP3    H245026   1.497   0.572   0.428  0.2140  0.5096 -0.2923
 7871TIP3   OH245027   3.035   6.582   3.859  0.2608  0.1450  0.1479
 7871TIP3    H145028   3.126   6.572   3.887  0.6149  0.0889 -0.9828
 7871TIP3    H245029   3.023   6.515   3.791 -0.4000  0.6459 -0.2394
 7872TIP3   OH245030   6.555   4.768  15.425  0.0390  0.2700 -0.4473
 7872TIP3    H145031   6.629   4.764  15.485  0.3351 -1.0017 -0.8551
 7872TIP3    H245032   6.486   4.812  15.474  1.5576  3.0716 -0.6337
 7873TIP3   OH245033   6.530   2.498   3.306  0.2587  0.2088 -0.4764
 7873TIP3    H145034   6.456   2.520   3.249 -0.2103 -0.0920  0.0040
 7873TIP3    H245035   6.586   2.442   3.252 -1.3586 -2.0558  0.0529
 7874TIP3   OH245036   5.608   3.526   5.475 -0.8194 -0.2631  0.4251
 7874TIP3    H145037   5.670   3.453   5.478 -1.2160 -0.6706 -0.6687
 7874TIP3    H245038   5.588   3.544   5.567 -1.1876 -1.9737  0.7232
 7875TIP3   OH245039   3.199   4.306  10.954 -0.2763  0.6208 -0.0673
 7875TIP3    H145040   3.281   4.280  10.996 -0.6315  1.1090  0.9719
 7875TIP3    H245041   3.223   4.326  10.863  0.3106 -1.5550 -0.4513
 7876TIP3   OH245042   1.596   4.023   3.829 -0.3225  0.3466  0.3574
 7876TIP3    H145043   1.616   3.938   3.789 -0.6343 -0.4135  1.7394
 7876TIP3    H245044   1.681   4.059   3.853 -0.1845  0.4556 -0.2878
 7877TIP3   OH245045   2.749   2.003   4.887  0.1348 -0.1215  0.4085
 7877TIP3    H145046   2.841   2.022   4.905 -0.4270 -0.4571  4.9342
 7877TIP3    H245047   2.743   1.907   4.890 -0.2920 -0.1395 -0.5838
 7878TIP3   OH245048   1.775   5.930   6.219  0.6910  0.5896  0.5548
 7878TIP3    H145049   1.771   5.931   6.314  0.4683 -0.5575  0.5681
 7878TIP3    H245050   1.857   5.885   6.199  0.0291 -0.5244  0.2231
 7879TIP3   OH245051   4.022   5.899   4.775  0.9498 -0.1212 -0.3621
 7879TIP3    H145052   3.977   5.877   4.693 -1.5785 -0.7405  1.0884
 7879TIP3    H245053   4.011   5.994   4.783 -1.2446 -0.4134  0.5476
 7880TIP3   OH245054   4.752   1.332  11.585  0.0335 -0.0049  0.5422
 7880TIP3    H145055   4.811   1.306  11.514 -1.8545  2.1079 -1.9962
 7880TIP3    H245056   4.796   1.407  11.626  0.5262 -0.4287  0.8162
 7881TIP3   OH245057   1.830   6.104  16.320 -0.5147 -0.7659  0.7084
 7881TIP3    H145058   1.889   6.030  16.338  0.9203 -0.0398 -0.7256
 7881TIP3    H245059   1.744   6.064  16.313  0.1512 -2.2457  0.5224
 7882TIP3   OH245060   4.256   5.500  10.663  0.3850 -0.1211 -0.0283
 7882TIP3    H145061   4.274   5.411  10.634  0.1820 -0.3621  0.5802
 7882TIP3    H245062   4.167   5.518  10.633  1.4261  0.9876 -2.8352
 7883TIP3   OH245063   6.159   0.713   2.120 -0.5049 -0.1705 -0.1626
 7883TIP3    H145064   6.239   0.675   2.084 -1.0606 -0.9561 -0.5977
 7883TIP3    H245065   6.088   0.665   2.077 -1.2818  1.9916 -1.4661
 7884TIP3   OH245066   1.239   3.172   0.141  0.6415  0.2160 -0.2135
 7884TIP3    H145067   1.288   3.168   0.223  1.2783 -0.2394 -0.6124
 7884TIP3    H245068   1.286   3.115   0.081 -2.0686 -2.7761  0.2520
 7885TIP3   OH245069   0.690   0.426   0.450  0.7068  0.4681  0.7768
 7885TIP3    H145070   0.606   0.390   0.421  0.9700 -0.2695  0.9259
 7885TIP3    H245071   0.680   0.436   0.545  0.7895  0.3790  0.7947
 7886TIP3   OH245072   3.355   2.785  11.383  0.4204  0.4387 -0.5158
 7886TIP3    H145073   3.357   2.808  11.290 -1.0735  0.4246 -0.5736
 7886TIP3    H245074   3.283   2.836  11.419 -0.1917 -0.8978  0.2497
 7887TIP3   OH245075   1.565   1.794  12.528 -0.3988  0.0128 -0.1492
 7887TIP3    H145076   1.633   1.746  12.575 -0.6415 -0.2385 -0.0543
 7887TIP3    H245077   1.518   1.727  12.478 -2.3394 -0.2475  1.9091
 7888TIP3   OH245078   2.076   5.574   3.429  0.8482  0.0987 -0.1978
 7888TIP3    H145079   2.124   5.626   3.493  0.1097  0.2221  0.2627
 7888TIP3    H245080   2.116   5.598   3.345  1.5416  0.2472  0.1620
 7889TIP3   OH245081   4.388   6.711  11.447  0.1508  0.2318 -0.4034
 7889TIP3    H145082   4.370   6.666  11.364 -0.9563 -0.4069  0.1600
 7889TIP3    H245083   4.483   6.713  11.453  0.3201  1.5633 -2.3735
 7890TIP3   OH245084   0.920   6.375  16.753  0.1266 -0.4183 -0.4243
 7890TIP3    H145085   0.839   6.405  16.712 -0.5666 -2.3649 -0.6031
 7890TIP3    H245086   0.902   6.284  16.777  1.7667 -0.4462  0.9056
 7891TIP3   OH245087   5.284   2.426   0.792 -0.4723  0.0807 -0.0040
 7891TIP3    H145088   5.346   2.420   0.719 -2.3824 -2.1455 -1.5790
 7891TIP3    H245089   5.336   2.401   0.869  1.1493  0.6921 -0.8480
 7892TIP3   OH245090   5.373   1.374  12.302 -0.6456 -0.3327  0.0020
 7892TIP3    H145091   5.412   1.296  12.262 -0.9364 -0.2772 -0.3950
 7892TIP3    H245092   5.282   1.372  12.275 -0.4863  0.5579 -0.6568
 7893TIP3   OH245093   0.606   5.346  16.798  0.6488 -0.0099 -0.1303
 7893TIP3    H145094   0.548   5.417  16.769 -0.6319 -0.0137  2.1727
 7893TIP3    H245095   0.689   5.389  16.817 -0.1866  0.9833  1.4788
 7894TIP3   OH245096   0.010   3.380   0.276  0.4783 -0.1950 -0.8523
 7894TIP3    H145097   0.092   3.333   0.286  0.9075  0.5461 -0.8446
 7894TIP3    H245098   0.029   3.470   0.304 -0.4309 -0.1016 -0.4613
 7895TIP3   OH245099   0.559   3.887  17.008  0.6443 -0.3234  0.2962
 7895TIP3    H145100   0.632   3.913  16.951 -0.4459  1.5655 -0.3459
 7895TIP3    H245101   0.538   3.798  16.980  3.0118 -1.1385  0.8734
 7896TIP3   OH245102   0.668   5.077  11.316 -0.5132 -0.0192 -0.3767
 7896TIP3    H145103   0.709   5.163  11.317 -0.8024  0.2423 -3.0718
 7896TIP3    H245104   0.575   5.095  11.303 -0.8399 -0.7262  0.8389
 7897TIP3   OH245105   0.132   6.710  11.952  0.1123 -0.1697 -0.2318
 7897TIP3    H145106   0.038   6.707  11.973  0.1359  0.6667  0.0724
 7897TIP3    H245107   0.151   6.627  11.909 -0.5998 -0.6835  0.4300
 7898TIP3   OH245108   6.012   4.119  16.228  0.9099 -0.3952 -0.0530
 7898TIP3    H145109   6.040   4.027  16.229  1.9024 -0.1140 -0.3819
 7898TIP3    H245110   6.048   4.154  16.147 -0.2652  0.0551 -0.4037
 7899TIP3   OH245111   5.571   4.827  10.908 -0.5521  0.7506 -0.7420
 7899TIP3    H145112   5.649   4.789  10.867  0.0108  2.0440 -0.9094
 7899TIP3    H245113   5.504   4.824  10.840  0.0318  1.7832 -1.3822
 7900TIP3   OH245114   5.432   2.801   4.206 -0.1268  0.4066 -0.0545
 7900TIP3    H145115   5.473   2.722   4.170 -1.4990 -0.2870 -0.1767
 7900TIP3    H245116   5.500   2.868   4.202  0.9874 -0.7034 -0.2006
 7901TIP3   OH245117   4.892   6.660  16.613  0.8030 -0.8991 -0.1858
 7901TIP3    H145118   4.833   6.634  16.684  1.9582  0.2084  1.2394
 7901TIP3    H245119   4.966   6.599  16.620  1.9148  0.4990  0.9897
 7902TIP3   OH245120   3.304   1.676   3.952  0.1513 -0.3124  0.4407
 7902TIP3    H145121   3.302   1.685   4.048 -1.6809  0.2247  0.3999
 7902TIP3    H245122   3.226   1.625   3.931  0.8589 -0.9484 -0.7401
 7903TIP3   OH245123   5.647   0.830  12.449 -0.0536  0.3874  0.1293
 7903TIP3    H145124   5.658   0.823  12.354  4.1352  0.2911  0.4721
 7903TIP3    H245125   5.594   0.754  12.473 -0.9615  0.2667 -2.0454
 7904TIP3   OH245126   4.773   5.245  17.010  0.2923  0.0022  0.4362
 7904TIP3    H145127   4.858   5.267  17.049  0.9310  1.0995 -1.4656
 7904TIP3    H245128   4.760   5.310  16.942 -1.1981 -1.2856 -0.5793
 7905TIP3   OH245129   3.831   0.397  15.146  0.3411 -0.3972 -0.2655
 7905TIP3    H145130   3.751   0.345  15.150 -0.6371  1.0740  0.1004
 7905TIP3    H245131   3.840   0.422  15.054 -1.6368  2.3355  0.1551
 7906TIP3   OH245132   1.639   0.183  15.548  0.5980 -0.0179 -0.0052
 7906TIP3    H145133   1.650   0.089  15.561 -3.0678 -0.2849  2.6546
 7906TIP3    H245134   1.621   0.218  15.635  2.4266  3.3542 -0.8023
 7907TIP3   OH245135   3.541   1.790  12.495 -0.2254 -0.0138  0.4285
 7907TIP3    H145136   3.637   1.788  12.487 -0.3574 -0.0621 -1.7361
 7907TIP3    H245137   3.519   1.883  12.486 -0.3492  0.0972  1.7563
 7908TIP3   OH245138   4.608   3.960   3.752 -0.9550 -0.1656 -0.0607
 7908TIP3    H145139   4.692   4.004   3.741  0.2510 -1.3713  3.0210
 7908TIP3    H245140   4.594   3.913   3.670  2.0172 -0.8676 -0.2857
 7909TIP3   OH245141   5.548   1.365   6.675  0.8399  0.9203 -0.0417
 7909TIP3    H145142   5.629   1.415   6.670  1.3442  0.0070 -1.8603
 7909TIP3    H245143   5.505   1.380   6.591  0.8692 -1.3771 -0.5470
 7910TIP3   OH245144   2.668   1.175   5.064  0.1764  1.1274  0.0356
 7910TIP3    H145145   2.637   1.248   5.010 -0.4434  0.7604 -0.1216
 7910TIP3    H245146   2.588   1.125   5.084  0.6207  0.3670 -0.0587
 7911TIP3   OH245147   3.477   0.636  13.551  0.0433 -0.5378 -0.1018
 7911TIP3    H145148   3.536   0.676  13.616 -1.1815  2.0127 -0.4408
 7911TIP3    H245149   3.513   0.664  13.467  0.3718 -2.0177 -0.4819
 7912TIP3   OH245150   3.751   1.242  12.404 -0.2963  0.5440 -0.3159
 7912TIP3    H145151   3.703   1.306  12.455 -0.5029  1.2123 -1.3387
 7912TIP3    H245152   3.830   1.288  12.375  0.4670 -0.2183  0.4520
 7913TIP3   OH245153   4.484   5.392  16.507  1.0728  0.3211 -0.2061
 7913TIP3    H145154   4.469   5.423  16.418  1.4488  3.1536  0.6227
 7913TIP3    H245155   4.506   5.299  16.497  1.7284  0.7027 -3.0952
 7914TIP3   OH245156   1.965   0.657   1.951  0.3177 -0.6040 -0.5313
 7914TIP3    H145157   1.941   0.566   1.936 -0.1352 -0.3322 -1.5186
 7914TIP3    H245158   2.060   0.658   1.948  0.3537 -1.1447  0.1485
 7915TIP3   OH245159   0.825   0.928  14.272  0.0290  0.9104  0.2545
 7915TIP3    H145160   0.877   0.913  14.351 -0.8641 -0.6946  0.5765
 7915TIP3    H245161   0.885   0.914  14.199 -0.3857 -3.4752  0.5291
 7916TIP3   OH245162   2.486   6.186  17.075 -0.1774 -0.3568 -0.3278
 7916TIP3    H145163   2.503   6.098  17.107  0.2981 -0.0665  0.2575
 7916TIP3    H245164   2.400   6.208  17.109  0.8210  0.4104  1.9037
 7917TIP3   OH245165   4.939   6.729   1.631  0.1412  0.4141 -0.4104
 7917TIP3    H145166   4.905   6.800   1.686  1.7096 -0.7445  2.2970
 7917TIP3    H245167   4.864   6.700   1.579 -0.9370  2.9141 -0.3526
 7918TIP3   OH245168   0.582   4.806  16.923  0.5534  0.6476  0.5776
 7918TIP3    H145169   0.625   4.727  16.891  1.9438  1.8843 -0.7697
 7918TIP3    H245170   0.628   4.826  17.005 -0.2082 -0.2489  1.2337
 7919TIP3   OH245171   4.593   1.010  14.594 -0.3588 -0.3142 -0.6827
 7919TIP3    H145172   4.542   1.062  14.657  1.4215  1.1652 -0.3748
 7919TIP3    H245173   4.571   0.919  14.616 -0.4257  0.1692  1.5539
 7920TIP3   OH245174   0.139   6.366   5.913  0.4199 -0.3377 -0.1630
 7920TIP3    H145175   0.096   6.451   5.927  2.6938  0.6958  1.0692
 7920TIP3    H245176   0.218   6.386   5.864  1.7746 -1.4741  1.4261
 7921TIP3   OH245177   5.703   0.557   6.715  0.2881  0.1839  0.4120
 7921TIP3    H145178   5.780   0.597   6.674  0.0932  1.4989  1.2784
 7921TIP3    H245179   5.736   0.475   6.752  1.0443  0.2654 -0.0543
 7922TIP3   OH245180   4.353   1.408  12.336  0.1905  0.3295  0.0708
 7922TIP3    H145181   4.426   1.470  12.335 -0.9534  1.7806  1.0863
 7922TIP3    H245182   4.358   1.364  12.252  1.6523  1.0747 -0.2713
 7923TIP3   OH245183   6.357   5.098  14.149 -0.4377  0.2431  0.2309
 7923TIP3    H145184   6.281   5.080  14.204 -0.9558  0.6501 -0.3270
 7923TIP3    H245185   6.377   5.015  14.106 -2.1680  0.6817 -1.5517
 7924TIP3   OH245186   1.543   2.188   0.142  0.2436  0.3494  0.1720
 7924TIP3    H145187   1.543   2.284   0.133  1.8990  0.4687  1.0147
 7924TIP3    H245188   1.607   2.158   0.078 -0.9440 -0.3004 -0.7425
 7925TIP3   OH245189   3.239   4.777   0.153  0.2250  1.1550 -0.1542
 7925TIP3    H145190   3.315   4.723   0.128 -1.8347 -2.0128 -0.2212
 7925TIP3    H245191   3.269   4.826   0.229  2.3820  0.1412 -0.2625
 7926TIP3   OH245192   1.636   3.498  14.111  0.1100  0.0713  0.3033
 7926TIP3    H145193   1.559   3.528  14.062 -0.5749 -0.6682  0.9023
 7926TIP3    H245194   1.653   3.570  14.173  1.2878  1.2383 -1.2897
 7927TIP3   OH245195   5.738   1.049   2.204  0.0926  0.0527 -0.1969
 7927TIP3    H145196   5.762   0.978   2.265 -5.0487 -1.3167  0.6911
 7927TIP3    H245197   5.716   1.123   2.260 -0.3000  0.3396 -0.7224
 7928TIP3   OH245198   3.326   0.019  16.280 -0.0170  0.0038 -0.2403
 7928TIP3    H145199   3.351  -0.041  16.350 -1.8225 -0.2075  0.2536
 7928TIP3    H245200   3.339  -0.031  16.200  2.0314  0.2344 -0.1140
 7929TIP3   OH245201   0.218   1.006  13.911  0.1288  0.0037  0.2836
 7929TIP3    H145202   0.221   0.949  13.987  0.6991  2.4497  2.2021
 7929TIP3    H245203   0.126   1.003  13.883  0.3014 -2.4739 -0.2839
 7930TIP3   OH245204   0.328   0.817   1.235  0.4244  0.7087  0.5367
 7930TIP3    H145205   0.396   0.789   1.174 -0.4911 -0.7531  0.1542
 7930TIP3    H245206   0.375   0.869   1.300  1.7435  0.5728 -0.2652
 7931TIP3   OH245207   3.249   3.870  15.578  0.2048 -0.2293 -0.0194
 7931TIP3    H145208   3.301   3.879  15.658  0.6067 -1.8452 -0.0614
 7931TIP3    H245209   3.165   3.836  15.607 -0.5106  1.3859 -0.0709
 7932TIP3   OH245210   1.897   3.159   1.825  0.4015 -0.2945  0.8032
 7932TIP3    H145211   1.831   3.227   1.832  2.2619  1.7154  0.1049
 7932TIP3    H245212   1.860   3.095   1.764 -1.5234 -0.1310  1.7282
 7933TIP3   OH245213   5.881   2.126   3.559 -0.0652 -0.3676  0.2247
 7933TIP3    H145214   5.804   2.182   3.551  0.3547  0.3039  0.7024
 7933TIP3    H245215   5.945   2.165   3.499  0.4285  0.0235  0.9915
 7934TIP3   OH245216   4.440   3.196  11.280  0.3591 -0.3736  0.0137
 7934TIP3    H145217   4.367   3.144  11.247  0.3190  0.5811 -1.5286
 7934TIP3    H245218   4.459   3.258  11.209  2.4175 -0.3511  0.5268
 7935TIP3   OH245219   1.745   3.297   0.458  0.0674  0.3846  0.3203
 7935TIP3    H145220   1.690   3.224   0.487 -0.5406  0.9067  0.5061
 7935TIP3    H245221   1.762   3.347   0.538 -0.7805  1.2772 -0.0506
 7936TIP3   OH245222   2.646   4.313   5.986 -0.1974 -0.6272  0.1298
 7936TIP3    H145223   2.650   4.399   5.944 -0.1533 -0.5786  0.2331
 7936TIP3    H245224   2.722   4.266   5.952 -1.2602 -1.3103 -1.4042
 7937TIP3   OH245225   3.582   1.497  15.778  0.3145 -0.0862  0.6656
 7937TIP3    H145226   3.551   1.499  15.688 -0.7017  0.0041  1.0021
 7937TIP3    H245227   3.560   1.410  15.810 -0.1109  0.1713  1.0860
 7938TIP3   OH245228   6.743   3.909  12.798  0.2658  0.1872  0.7392
 7938TIP3    H145229   6.655   3.896  12.833 -0.4720 -0.8812 -1.4008
 7938TIP3    H245230   6.741   3.996  12.760  0.0819  0.0898  0.5275
 7939TIP3   OH245231   2.687   1.767  11.432 -0.0010 -0.0270 -0.1531
 7939TIP3    H145232   2.639   1.776  11.515 -0.3014  0.4679 -0.3800
 7939TIP3    H245233   2.774   1.802  11.451  0.0540 -0.2771  0.0638
 7940TIP3   OH245234   2.726   6.603  16.726  0.0761  0.2181 -0.2201
 7940TIP3    H145235   2.704   6.540  16.659  1.4344 -0.2462 -0.2649
 7940TIP3    H245236   2.732   6.687  16.680 -0.5874  0.1841 -0.3710
 7941TIP3   OH245237   1.077   6.073  12.698 -0.5192 -0.0858  0.0670
 7941TIP3    H145238   1.100   6.166  12.696 -2.4632  0.4673  0.8158
 7941TIP3    H245239   1.111   6.038  12.616  0.7379  1.1382  0.0171
 7942TIP3   OH245240   2.770   4.131  15.084 -0.3308  0.1883 -0.6558
 7942TIP3    H145241   2.799   4.207  15.034 -3.1031  1.3089 -0.7908
 7942TIP3    H245242   2.826   4.130  15.162  0.5128  1.6997 -1.2019
 7943TIP3   OH245243   6.362   4.862   3.053 -0.0909 -0.2062  0.4626
 7943TIP3    H145244   6.271   4.846   3.029  0.5021 -2.2575 -0.5739
 7943TIP3    H245245   6.387   4.940   3.003 -0.8390 -0.5111 -0.4000
 7944TIP3   OH245246   1.637   5.968   2.253  0.0471 -0.0070 -0.4510
 7944TIP3    H145247   1.623   5.877   2.228  0.2219 -0.2884  0.4658
 7944TIP3    H245248   1.675   6.008   2.174 -0.6578 -0.5542 -1.0858
 7945TIP3   OH245249   1.770   0.095   1.614  0.0884  0.1573  0.2392
 7945TIP3    H145250   1.847   0.149   1.594 -0.9852  1.3343 -0.9008
 7945TIP3    H245251   1.787   0.012   1.569  1.2112 -0.0334  0.9847
 7946TIP3   OH245252   1.386   2.029   3.356  0.2464 -0.1166  0.8585
 7946TIP3    H145253   1.401   2.078   3.275 -2.1075  0.8279  0.9204
 7946TIP3    H245254   1.430   1.945   3.341  0.8789  0.4820 -0.9139
 7947TIP3   OH245255   2.890   2.105  16.454 -0.0865  0.2073 -0.4132
 7947TIP3    H145256   2.906   2.134  16.364 -1.6457  1.2446 -0.4073
 7947TIP3    H245257   2.828   2.033  16.445 -0.6025  0.6089 -0.1774
 7948TIP3   OH245258   1.407   2.736  11.808  0.0694  0.3386 -0.5609
 7948TIP3    H145259   1.444   2.769  11.726  0.3480  1.4183 -0.0165
 7948TIP3    H245260   1.407   2.812  11.866 -0.1808 -0.4065  0.4228
 7949TIP3   OH245261   3.375   3.383   5.529 -0.3011 -0.4648 -0.0711
 7949TIP3    H145262   3.370   3.416   5.618  1.4366  2.5461 -0.9544
 7949TIP3    H245263   3.308   3.432   5.481 -0.2384 -0.9761 -0.7073
 7950TIP3   OH245264   4.816   2.244   4.978 -0.3616  0.6069 -0.0303
 7950TIP3    H145265   4.759   2.299   4.924 -1.1332 -0.6629 -0.5532
 7950TIP3    H245266   4.900   2.244   4.932 -0.9862 -0.3840 -1.2369
 7951TIP3   OH245267   4.675   3.996  11.229  0.2145  0.1445  0.1096
 7951TIP3    H145268   4.581   4.011  11.215  0.4424  0.7814 -0.8716
 7951TIP3    H245269   4.697   3.923  11.171  0.0738 -0.9244  1.3523
 7952TIP3   OH245270   4.780   3.258  11.155  0.5738 -0.3775  0.2283
 7952TIP3    H145271   4.751   3.331  11.100 -1.8212  0.3077  2.1991
 7952TIP3    H245272   4.728   3.184  11.124 -1.0658  0.0976  1.6796
 7953TIP3   OH245273   2.171   6.559   1.275  0.5339  0.6368 -0.3555
 7953TIP3    H145274   2.251   6.531   1.231 -0.4746 -1.9651 -0.7145
 7953TIP3    H245275   2.101   6.513   1.228 -1.0492  1.7250  0.8439
 7954TIP3   OH245276   1.656   6.042   3.989 -0.1220  0.2194 -0.0122
 7954TIP3    H145277   1.675   6.095   3.912 -0.0477  0.4474  0.1640
 7954TIP3    H245278   1.717   6.073   4.056 -0.8372  0.6922  0.4371
 7955TIP3   OH245279   1.029   4.532   5.013  0.5930  0.1408 -0.2399
 7955TIP3    H145280   1.017   4.561   4.923 -0.2370  1.8341  0.3705
 7955TIP3    H245281   1.100   4.586   5.047 -0.1448  0.6638  0.5548
 7956TIP3   OH245282   0.790   3.850   1.974  0.2440  0.1010  0.3336
 7956TIP3    H145283   0.701   3.847   2.009  0.6935 -0.5945  1.4821
 7956TIP3    H245284   0.819   3.759   1.972  0.3529  0.1459 -1.6400
 7957TIP3   OH245285   2.228   4.680  13.104  0.4944 -0.1044  0.1427
 7957TIP3    H145286   2.290   4.738  13.059 -0.0033  0.5694  0.3046
 7957TIP3    H245287   2.211   4.609  13.042  0.4038  0.4056 -0.4201
 7958TIP3   OH245288   2.828   4.459   5.589 -0.6771 -1.0228 -0.1314
 7958TIP3    H145289   2.821   4.365   5.574  0.0880 -0.9603 -0.9696
 7958TIP3    H245290   2.825   4.497   5.501  2.4450 -0.5074 -0.1129
 7959TIP3   OH245291   1.724   3.937   6.126  0.0046 -0.8468  0.1803
 7959TIP3    H145292   1.652   3.970   6.180  1.3723 -0.9628  2.1495
 7959TIP3    H245293   1.738   3.848   6.157  1.2444 -0.6999  0.0748
 7960TIP3   OH245294   3.773   3.539  15.376 -0.3389 -0.1792 -0.0403
 7960TIP3    H145295   3.798   3.602  15.309 -0.4577  0.4204  0.4699
 7960TIP3    H245296   3.796   3.454  15.339  2.0122  0.2980  0.2146
 7961TIP3   OH245297   5.901   6.631   1.445 -0.2559  0.7235  0.1593
 7961TIP3    H145298   5.849   6.696   1.397  0.9396  1.4817 -0.1650
 7961TIP3    H245299   5.973   6.611   1.386  0.0686  0.0346  0.7810
 7962TIP3   OH245300   1.849   0.473  13.455 -0.2301 -0.0260  0.1644
 7962TIP3    H145301   1.856   0.555  13.503  0.9459 -1.4979  2.6918
 7962TIP3    H245302   1.784   0.422  13.502  0.1375 -1.1145 -0.4609
 7963TIP3   OH245303   3.822   3.953   4.053  0.4503 -0.0416  0.1338
 7963TIP3    H145304   3.851   3.869   4.090 -1.9599 -0.5551  1.0416
 7963TIP3    H245305   3.894   4.013   4.071  2.8855 -2.1628 -1.7897
 7964TIP3   OH245306   1.162   4.177   2.538 -0.4393 -0.0722  0.0070
 7964TIP3    H145307   1.182   4.153   2.628  4.2530 -2.6761 -1.3805
 7964TIP3    H245308   1.208   4.260   2.524 -1.9720  0.8453  0.1482
 7965TIP3   OH245309   1.673   2.744  15.531  0.2592  0.6691  0.1536
 7965TIP3    H145310   1.667   2.807  15.603  0.0462  0.2622  0.4980
 7965TIP3    H245311   1.745   2.686  15.556  1.0802  1.3345 -0.6134
 7966TIP3   OH245312   6.368   4.545  14.488 -0.0170  0.6501 -0.1216
 7966TIP3    H145313   6.416   4.509  14.562 -0.4376  1.3362  0.4987
 7966TIP3    H245314   6.352   4.637  14.512 -0.5968  0.7448 -0.8305
 7967TIP3   OH245315   1.225   2.681   0.358 -1.1402 -0.3730  0.5572
 7967TIP3    H145316   1.175   2.758   0.331 -0.7334 -0.2401  0.1669
 7967TIP3    H245317   1.227   2.625   0.280  0.4625  0.2328  0.1095
 7968TIP3   OH245318   0.901   2.789  15.579  0.0632 -0.3659 -0.2071
 7968TIP3    H145319   0.921   2.843  15.655  0.3645 -0.6353 -0.0916
 7968TIP3    H245320   0.985   2.751  15.554  0.3884  1.3443 -1.9502
 7969TIP3   OH245321   0.577   4.741   0.129 -0.2692  0.0190 -0.0433
 7969TIP3    H145322   0.540   4.722   0.215 -0.6583 -1.9876 -0.5959
 7969TIP3    H245323   0.662   4.781   0.147 -0.1006 -0.8993  1.2948
 7970TIP3   OH245324   0.975   4.895  11.473 -0.8271  0.3305  0.1100
 7970TIP3    H145325   0.993   4.812  11.430 -1.7986 -0.3743  1.0131
 7970TIP3    H245326   0.895   4.880  11.523  0.5248  0.9004  2.6541
 7971TIP3   OH245327   4.203   3.676  12.112  0.6607 -0.1795 -0.3416
 7971TIP3    H145328   4.168   3.622  12.042 -0.5462 -0.3508  0.3744
 7971TIP3    H245329   4.274   3.624  12.150  0.1159 -0.8603 -0.2568
 7972TIP3   OH245330   3.342   0.333  15.428  0.4395 -0.1613 -0.5021
 7972TIP3    H145331   3.280   0.374  15.368  0.2080 -0.0729 -0.2053
 7972TIP3    H245332   3.427   0.344  15.386  0.7769  2.9955  0.7557
 7973TIP3   OH245333   0.716   2.198  14.815  0.1820  0.9905 -0.2440
 7973TIP3    H145334   0.683   2.287  14.823  0.0441  0.8194  1.4096
 7973TIP3    H245335   0.690   2.155  14.896  0.2667 -0.5575 -1.0018
 7974TIP3   OH245336   3.245   4.972  17.012 -0.1890 -0.1641 -0.0933
 7974TIP3    H145337   3.245   4.940  17.102 -0.9647  1.3689  0.5036
 7974TIP3    H245338   3.173   4.925  16.970 -1.2110  0.6034  0.7172
 7975TIP3   OH245339   4.022   6.122  15.437  0.3522  0.0267  0.6834
 7975TIP3    H145340   4.097   6.064  15.429  1.1963  1.1823 -0.1097
 7975TIP3    H245341   3.946   6.065  15.428  1.0665 -1.3756  2.7866
 7976TIP3   OH245342   3.871   4.724  14.359 -0.3027 -0.1522  0.3003
 7976TIP3    H145343   3.937   4.780  14.400 -2.0907  1.0639  1.7015
 7976TIP3    H245344   3.836   4.777  14.287 -0.5141 -0.3297  0.2716
 7977TIP3   OH245345   3.208   4.940  14.654  0.5255 -0.0940  0.5143
 7977TIP3    H145346   3.185   4.881  14.725 -0.8124  1.1229  1.1468
 7977TIP3    H245347   3.213   5.026  14.695  1.8133  0.3456 -0.4974
 7978TIP3   OH245348   1.187   0.715  13.755 -0.1187 -0.0940 -0.9671
 7978TIP3    H145349   1.167   0.675  13.670 -1.1650 -0.6369 -0.4886
 7978TIP3    H245350   1.149   0.803  13.750 -1.2155 -0.5322 -0.6669
 7979TIP3   OH245351   5.406   1.676   3.940 -0.5752  0.3781 -0.4346
 7979TIP3    H145352   5.395   1.673   3.845  0.0207 -1.5259 -0.4800
 7979TIP3    H245353   5.496   1.704   3.954 -1.2014  2.5461 -0.3399
 7980TIP3   OH245354   3.761   2.494  15.067  0.3885 -0.4154  0.2382
 7980TIP3    H145355   3.786   2.497  15.159 -1.7750 -1.2209  0.9097
 7980TIP3    H245356   3.705   2.571  15.055 -0.0279 -0.7732 -0.1632
 7981TIP3   OH245357   3.699   3.135  16.138  0.1112 -0.2215 -0.2856
 7981TIP3    H145358   3.661   3.142  16.226  4.6385 -2.2585  2.1546
 7981TIP3    H245359   3.713   3.226  16.111 -1.0601  0.4579  1.2270
 7982TIP3   OH245360   3.063   4.395  14.687 -0.0926 -0.2465 -0.1251
 7982TIP3    H145361   3.089   4.378  14.596  0.2642  2.3723 -0.6011
 7982TIP3    H245362   2.971   4.419  14.682 -0.1515 -0.3991  0.2326
 7983TIP3   OH245363   4.930   4.876   1.638 -0.1351 -0.0307  0.3909
 7983TIP3    H145364   4.846   4.913   1.664  0.5953  1.7097  0.4345
 7983TIP3    H245365   4.994   4.922   1.694  0.8616 -1.2040  0.2618
 7984TIP3   OH245366   5.977   3.831  11.161 -0.7206 -0.0590  0.2866
 7984TIP3    H145367   6.051   3.852  11.105 -0.8143 -0.0100  0.1807
 7984TIP3    H245368   6.016   3.791  11.239 -0.6576 -1.1921 -0.3029
 7985TIP3   OH245369   2.720   0.005  10.875 -0.3740 -0.1719  0.4455
 7985TIP3    H145370   2.736   0.033  10.784 -0.4468 -0.4248  0.3544
 7985TIP3    H245371   2.637  -0.042  10.871  0.5155 -1.8238  0.2869
 7986TIP3   OH245372   3.737   5.788   1.577  0.0869 -0.4803 -0.0534
 7986TIP3    H145373   3.748   5.816   1.668  1.7091  1.7526 -0.8757
 7986TIP3    H245374   3.647   5.814   1.555  0.2352  0.4590  0.4165
 7987TIP3   OH245375   0.830   1.530   1.023 -0.4039 -0.2537 -0.1327
 7987TIP3    H145376   0.793   1.444   1.000 -0.6472 -0.2083  0.0875
 7987TIP3    H245377   0.754   1.585   1.041 -0.2040 -0.4294  1.3157
 7988TIP3   OH245378   2.999   0.151  14.566 -0.6521  0.0522 -0.1374
 7988TIP3    H145379   2.990   0.083  14.499  3.3038  1.3787 -2.3349
 7988TIP3    H245380   2.955   0.227  14.528 -0.2281  0.2336 -0.2665
 7989TIP3   OH245381   3.240   2.239   0.895  0.1780  0.1529 -0.7149
 7989TIP3    H145382   3.166   2.281   0.853 -0.7990 -0.4841  0.3119
 7989TIP3    H245383   3.205   2.158   0.931  1.6678 -0.7989 -1.2979
 7990TIP3   OH245384   5.581   0.845   6.084 -0.2309 -0.0395  0.2240
 7990TIP3    H145385   5.576   0.941   6.084  1.8008  0.2157 -2.8068
 7990TIP3    H245386   5.666   0.825   6.046 -1.4477 -3.0267 -1.2773
 7991TIP3   OH245387   1.746   1.321   1.293  0.3080 -0.1338  0.4893
 7991TIP3    H145388   1.820   1.379   1.312  0.5767 -0.6143  0.9498
 7991TIP3    H245389   1.708   1.302   1.379 -0.4410  0.2234  0.2435
 7992TIP3   OH245390   4.904   0.345   1.098 -0.6477 -0.1680  0.2640
 7992TIP3    H145391   4.831   0.329   1.039 -1.9131  0.0883  1.7077
 7992TIP3    H245392   4.935   0.433   1.076 -0.5561 -0.3933 -0.5475
 7993TIP3   OH245393   4.441   6.039   0.352 -0.7998  0.2414 -0.1650
 7993TIP3    H145394   4.419   5.949   0.378 -0.7404  0.3741  0.3544
 7993TIP3    H245395   4.475   6.030   0.263  2.4961 -0.7550  1.0334
 7994TIP3   OH245396   2.625   5.434   0.417  0.6089  0.6848  0.8592
 7994TIP3    H145397   2.703   5.421   0.470  1.2103  0.2846 -0.0827
 7994TIP3    H245398   2.576   5.353   0.426  0.9521  0.4225  0.4395
 7995TIP3   OH245399   1.960   1.485  15.395 -0.3886 -0.2110  0.4155
 7995TIP3    H145400   1.964   1.390  15.385  0.7233 -0.0223 -1.4164
 7995TIP3    H245401   1.878   1.510  15.353  1.4980 -0.0092 -3.6070
 7996TIP3   OH245402   4.401   5.318   5.384 -0.7300  0.3931  0.4555
 7996TIP3    H145403   4.389   5.303   5.290  0.8702  0.1680  0.2642
 7996TIP3    H245404   4.330   5.378   5.408 -1.8410 -0.4218 -0.6470
 7997TIP3   OH245405   4.344   5.614  14.755 -0.3384 -0.0730 -0.1583
 7997TIP3    H145406   4.308   5.700  14.774 -0.4201 -0.4894  1.8364
 7997TIP3    H245407   4.269   5.554  14.760 -0.4189 -0.2103 -2.2661
 7998TIP3   OH245408   1.476   5.746   3.594  0.0642 -0.2424  0.1072
 7998TIP3    H145409   1.434   5.660   3.596  1.1534 -0.8686 -1.7310
 7998TIP3    H245410   1.429   5.794   3.526 -1.0162  0.9305  1.6194
 7999TIP3   OH245411   3.776   0.032  16.653 -0.2248  0.1197 -0.4283
 7999TIP3    H145412   3.761   0.123  16.680  0.7024  0.0144  0.4718
 7999TIP3    H245413   3.790  -0.016  16.734 -0.3301 -0.7684 -0.9210
 8000TIP3   OH245414   4.350   2.335   4.787  0.2740  0.4953 -0.6346
 8000TIP3    H145415   4.369   2.311   4.696 -0.2183  1.9888 -1.1640
 8000TIP3    H245416   4.436   2.353   4.825  0.3841  1.3615 -1.2626
 8001TIP3   OH245417   2.211   6.477  16.972  0.0721  0.5664  0.3782
 8001TIP3    H145418   2.213   6.389  17.009 -3.2334 -1.5184 -3.6525
 8001TIP3    H245419   2.122   6.509  16.990 -0.0414  1.4150 -1.4758
 8002TIP3   OH245420   0.128   2.695  15.634 -0.1483  0.6337  0.0738
 8002TIP3    H145421   0.115   2.790  15.629 -0.1572  0.6927  1.1275
 8002TIP3    H245422   0.096   2.662  15.550 -0.4891  1.5254 -0.1506
 8003TIP3   OH245423   1.561   0.207   5.090  0.0259 -0.3934  0.3032
 8003TIP3    H145424   1.545   0.200   4.995 -2.8333 -2.1240  0.7858
 8003TIP3    H245425   1.629   0.142   5.107  1.3965  0.7275 -0.6736
 8004TIP3   OH245426   3.839   1.821  16.575  0.4472  0.0509  0.1635
 8004TIP3    H145427   3.820   1.914  16.565 -1.9846 -0.2768  1.0037
 8004TIP3    H245428   3.845   1.808  16.670  1.6588 -0.5087  0.0202
 8005TIP3   OH245429   0.024   4.947  14.142  0.1279 -0.3267  0.2665
 8005TIP3    H145430   0.026   4.982  14.052 -1.0810  0.9154  0.6784
 8005TIP3    H245431   0.058   5.018  14.196  1.4474 -1.3011  0.7531
 8006TIP3   OH245432   5.995   5.724  12.624 -0.7388  0.1395  0.0582
 8006TIP3    H145433   6.073   5.772  12.652  0.8257 -1.8606 -0.5817
 8006TIP3    H245434   5.947   5.707  12.705 -0.7159  1.6832  0.4275
 8007TIP3   OH245435   5.441   0.190   1.867 -0.6565 -0.0200  0.2030
 8007TIP3    H145436   5.522   0.147   1.839  0.3269  1.2439  1.0083
 8007TIP3    H245437   5.423   0.255   1.800 -1.2195 -0.5115 -0.1428
 8008TIP3   OH245438   3.587   6.147  14.605  0.4132  0.5577 -0.0691
 8008TIP3    H145439   3.624   6.113  14.523  2.5531 -0.4355  1.2220
 8008TIP3    H245440   3.549   6.070  14.647  0.2102  0.8738  0.3287
 8009TIP3   OH245441   2.796   3.324  15.917 -0.5639  0.1092 -0.0453
 8009TIP3    H145442   2.860   3.258  15.946 -1.5170 -0.8466 -0.0542
 8009TIP3    H245443   2.738   3.276  15.858 -1.9084  0.7011  0.7549
 8010TIP3   OH245444   6.413   5.099  12.719 -0.4517  0.2554 -0.7686
 8010TIP3    H145445   6.458   5.077  12.801 -1.3602 -1.3276 -0.6632
 8010TIP3    H245446   6.464   5.172  12.683  0.0290  0.9346  1.1438
 8011TIP3   OH245447   1.517   3.460   5.167  0.8265  0.0731 -0.3359
 8011TIP3    H145448   1.602   3.493   5.196  0.8412 -0.0431 -0.2438
 8011TIP3    H245449   1.476   3.425   5.247  0.5567  0.4228 -0.3188
 8012TIP3   OH245450   5.896   4.727  13.942  0.2813  0.1642 -0.4611
 8012TIP3    H145451   5.882   4.808  13.894 -0.0153  1.4757  1.6804
 8012TIP3    H245452   5.833   4.731  14.014  1.9177 -0.7694  1.1132
 8013TIP3   OH245453   1.783   4.987   1.517  0.1806  0.1985 -0.0492
 8013TIP3    H145454   1.731   5.007   1.439  1.7929  0.1367 -1.1908
 8013TIP3    H245455   1.779   4.891   1.524 -1.6744  0.3132  1.2262
 8014TIP3   OH245456   5.813   1.539   4.540 -0.3555  0.2115 -0.5978
 8014TIP3    H145457   5.738   1.497   4.583  0.1330  1.0053  1.1081
 8014TIP3    H245458   5.802   1.632   4.557  0.5460  0.4284 -1.1143
 8015TIP3   OH245459   5.334   4.278  11.556 -0.0428  0.2118 -0.0521
 8015TIP3    H145460   5.318   4.288  11.462 -1.0705  1.0415  0.1901
 8015TIP3    H245461   5.403   4.212  11.562 -0.9553 -0.9041 -1.3327
 8016TIP3   OH245462   4.106   4.884   5.529 -0.0622 -0.5239  0.6278
 8016TIP3    H145463   4.170   4.826   5.487 -0.0611  0.5614 -0.9803
 8016TIP3    H245464   4.159   4.958   5.560 -0.4195  0.0927 -0.1786
 8017TIP3   OH245465   1.104   2.690  14.171 -0.3707  0.3072  0.1483
 8017TIP3    H145466   1.086   2.751  14.241  1.4609  0.2789  0.7087
 8017TIP3    H245467   1.175   2.730  14.121  0.1242 -0.8452 -0.1252
 8018TIP3   OH245468   3.224   0.926   2.203 -0.4585  0.3066 -0.4019
 8018TIP3    H145469   3.309   0.967   2.185 -0.6794 -0.3189 -3.4438
 8018TIP3    H245470   3.237   0.876   2.283  1.9466  0.5471 -0.5784
 8019TIP3   OH245471   2.636   0.140   1.135  0.2311 -0.5007  0.3379
 8019TIP3    H145472   2.597   0.224   1.113 -0.1307 -0.6727  0.3165
 8019TIP3    H245473   2.673   0.152   1.222 -0.6778 -0.6086  0.7418
 8020TIP3   OH245474   2.077   3.305  13.944 -0.3416  0.1672  0.1351
 8020TIP3    H145475   2.101   3.217  13.976  0.3033  0.4451  0.4485
 8020TIP3    H245476   2.080   3.360  14.022 -1.3872  0.3545  0.0573
 8021TIP3   OH245477   3.220   4.312   0.277  0.3337  0.2340 -0.0010
 8021TIP3    H145478   3.218   4.245   0.346 -0.7036  0.2867  0.0279
 8021TIP3    H245479   3.130   4.342   0.270  0.6544  1.0976 -0.5466
 8022TIP3   OH245480   0.895   5.859  11.916 -0.2536  0.2404  0.3856
 8022TIP3    H145481   0.911   5.798  11.844  1.9855 -0.1789  1.1803
 8022TIP3    H245482   0.918   5.945  11.880 -2.2573  0.5155 -0.3567
 8023TIP3   OH245483   2.700   0.303   4.420  0.0854  0.0090 -0.5305
 8023TIP3    H145484   2.679   0.210   4.429  0.3956  0.0901  1.4889
 8023TIP3    H245485   2.618   0.348   4.437  0.2984  0.1218  0.2781
 8024TIP3   OH245486   1.402   6.585   5.770  0.1469  0.7874  0.2850
 8024TIP3    H145487   1.376   6.548   5.854  0.6421  0.4704  0.3095
 8024TIP3    H245488   1.353   6.667   5.763 -0.6211  0.3542  0.4455
 8025TIP3   OH245489   1.246   3.926   2.889 -0.2568  0.0088 -0.8519
 8025TIP3    H145490   1.225   3.904   2.799  2.0276 -2.6893 -0.8763
 8025TIP3    H245491   1.308   3.999   2.882 -2.4966  1.9962 -1.1860
 8026TIP3   OH245492   6.203   4.556   4.495  0.1754  0.3188  0.3489
 8026TIP3    H145493   6.146   4.554   4.418 -1.0820 -0.0004  1.2583
 8026TIP3    H245494   6.292   4.552   4.459 -0.4076 -1.7913 -1.0090
 8027TIP3   OH245495   1.177   1.857  16.213 -0.6810 -0.1361 -0.0348
 8027TIP3    H145496   1.136   1.825  16.133  0.1442  1.8025 -1.2959
 8027TIP3    H245497   1.114   1.921  16.248 -0.2935  0.2662 -0.0670
 8028TIP3   OH245498   1.030   5.594   3.838  0.4661 -0.4781 -0.3703
 8028TIP3    H145499   0.959   5.657   3.853  0.6351 -0.7465  1.8901
 8028TIP3    H245500   1.106   5.648   3.816  0.2413  0.0054  0.0168
 8029TIP3   OH245501   0.117   0.334   0.039  0.2785 -0.2389  0.3965
 8029TIP3    H145502   0.079   0.290   0.115  2.0978 -0.0616  1.4618
 8029TIP3    H245503   0.142   0.262  -0.020 -1.0131 -0.3820 -0.0140
 8030TIP3   OH245504   5.431   3.637  13.316 -0.6435 -0.0708  0.3524
 8030TIP3    H145505   5.355   3.695  13.311 -0.1398  0.5583 -0.4362
 8030TIP3    H245506   5.454   3.620  13.224  0.2639 -0.1062  0.5700
 8031TIP3   OH245507   5.773   1.176  13.116  0.1034  0.1934  0.4034
 8031TIP3    H145508   5.769   1.219  13.030  0.1943 -0.1240  0.2393
 8031TIP3    H245509   5.694   1.205  13.161  0.4220  0.9461  0.4908
 8032TIP3   OH245510   4.383   3.359   4.727  0.0082 -0.3084  0.1561
 8032TIP3    H145511   4.338   3.298   4.670  0.2052  1.0079 -1.4956
 8032TIP3    H245512   4.465   3.380   4.681 -1.0358  2.8681 -0.5269
 8033TIP3   OH245513   1.932   4.023  11.696  0.0940  0.3972 -0.3380
 8033TIP3    H145514   1.988   4.076  11.639 -1.0423  0.9186 -0.9906
 8033TIP3    H245515   1.894   3.957  11.637 -0.8337  0.7375 -0.1299
 8034TIP3   OH245516   4.813   3.757  15.605  0.4577 -0.5353 -0.3397
 8034TIP3    H145517   4.787   3.665  15.611  0.4275 -0.5944 -1.2083
 8034TIP3    H245518   4.763   3.791  15.530 -0.9708  0.6956  1.1067
 8035TIP3   OH245519   6.168   1.159   4.881 -0.1123 -0.5338 -0.1413
 8035TIP3    H145520   6.131   1.223   4.942  0.1419  1.5967 -2.0636
 8035TIP3    H245521   6.141   1.074   4.916  1.7167  0.3548  4.0356
 8036TIP3   OH245522   2.118   4.874   5.091 -0.0789 -0.0630  0.2090
 8036TIP3    H145523   2.148   4.897   5.003 -0.0184  1.9408  0.6977
 8036TIP3    H245524   2.177   4.923   5.149 -1.1378 -0.0686  1.3215
 8037TIP3   OH245525   0.586   0.223   0.031  0.6429 -0.2151  0.4058
 8037TIP3    H145526   0.609   0.143  -0.017 -0.4877 -1.1816  1.4107
 8037TIP3    H245527   0.645   0.224   0.106  0.2241 -0.4769  0.7460
 8038TIP3   OH245528   4.967   1.292  15.898 -0.5469 -0.1551  0.6328
 8038TIP3    H145529   5.026   1.355  15.939  0.7854 -1.3595  0.6722
 8038TIP3    H245530   4.929   1.339  15.823  1.5963  0.2575 -0.2791
 8039TIP3   OH245531   1.249   4.010  10.037  0.6592 -0.3733 -0.5353
 8039TIP3    H145532   1.222   4.083  10.092  2.8192 -0.4453  0.7213
 8039TIP3    H245533   1.266   4.049   9.951  0.4937  0.3450 -0.2433
 8040TIP3   OH245534   3.535   1.644  15.274 -0.3699 -0.0361 -0.0010
 8040TIP3    H145535   3.466   1.706  15.250  0.3026  0.8490  0.2515
 8040TIP3    H245536   3.508   1.607  15.358 -0.0909  1.0378  0.5820
 8041TIP3   OH245537   6.513   0.173   4.367 -0.1764  0.4279 -0.1491
 8041TIP3    H145538   6.539   0.250   4.419  2.2652  0.9089 -1.9294
 8041TIP3    H245539   6.440   0.204   4.314  0.4811  1.3858 -0.5086
 8042TIP3   OH245540   0.272   4.074   5.939  0.4233  0.5501  0.5524
 8042TIP3    H145541   0.202   4.046   5.880  1.8770  1.0422 -1.5462
 8042TIP3    H245542   0.311   3.992   5.969  1.2205  0.2114 -1.2315
 8043TIP3   OH245543   4.375   0.180  15.434 -0.2323 -0.7143 -0.5125
 8043TIP3    H145544   4.434   0.232  15.489  2.0816 -2.2912 -1.3934
 8043TIP3    H245545   4.329   0.245  15.381  0.2220  0.5992  0.6420
 8044TIP3   OH245546   4.618   1.228   5.745  0.3008  0.8656  0.2241
 8044TIP3    H145547   4.536   1.239   5.793  1.1682  1.1144  1.7115
 8044TIP3    H245548   4.591   1.202   5.657 -1.3391 -0.0333  0.9530
 8045TIP3   OH245549   0.085   5.016  15.567  0.0124 -0.3063  0.3945
 8045TIP3    H145550   0.163   5.023  15.511  0.2915 -0.5169  0.7493
 8045TIP3    H245551   0.020   5.072  15.526  1.0826  1.7106  1.3293
 8046TIP3   OH245552   3.736   6.350   4.101 -0.0329  0.5803 -0.5111
 8046TIP3    H145553   3.736   6.443   4.123 -0.9200  0.3593  0.4714
 8046TIP3    H245554   3.774   6.346   4.013  1.2544  1.7309 -0.0293
 8047TIP3   OH245555   4.172   5.532  12.695 -0.3752 -0.0053  0.2808
 8047TIP3    H145556   4.151   5.543  12.787 -0.5657 -0.9054  0.3494
 8047TIP3    H245557   4.243   5.594  12.679  1.1802 -1.3852  1.5683
 8048TIP3   OH245558   2.989   5.623   1.987 -0.0634 -0.5774  0.3539
 8048TIP3    H145559   3.078   5.625   1.953  0.0200 -0.5486  0.5721
 8048TIP3    H245560   2.995   5.568   2.066 -0.2508 -0.6334  0.3286
 8049TIP3   OH245561   5.467   2.190   1.285 -0.0719 -0.2702 -0.1075
 8049TIP3    H145562   5.537   2.133   1.319  0.1209  0.1274  0.1659
 8049TIP3    H245563   5.498   2.279   1.302 -1.1287 -0.0909  1.0261
 8050TIP3   OH245564   6.285   4.488   1.852  0.1989 -0.2669  0.6477
 8050TIP3    H145565   6.354   4.445   1.802  0.6477  0.1775  0.8774
 8050TIP3    H245566   6.262   4.424   1.920  1.4803  0.1683  1.5354
 8051TIP3   OH245567   3.743   3.220   4.493 -0.1645 -0.4080 -0.1456
 8051TIP3    H145568   3.708   3.287   4.551  0.0523  0.0538 -0.5462
 8051TIP3    H245569   3.671   3.196   4.436 -0.0158  0.0800 -0.5452
 8052TIP3   OH245570   2.802   3.374   3.142  0.1869 -0.0495 -0.2785
 8052TIP3    H145571   2.801   3.407   3.232 -0.1411 -0.8740  0.0333
 8052TIP3    H245572   2.888   3.334   3.132 -0.4017 -1.5607  0.2992
 8053TIP3   OH245573   2.047   1.027   2.029  0.0191 -0.1925  0.3842
 8053TIP3    H145574   2.101   0.996   1.956 -1.9160 -0.0101 -1.2153
 8053TIP3    H245575   2.097   1.098   2.068  0.2530  1.1229 -2.1206
 8054TIP3   OH245576   0.746   3.036  12.102 -0.1484 -0.0234  0.9078
 8054TIP3    H145577   0.720   3.075  12.019  1.4556 -0.0937  0.3493
 8054TIP3    H245578   0.698   2.952  12.105  3.1769 -2.3324 -2.2155
 8055TIP3   OH245579   2.772   6.074  15.347 -0.4483  0.0873  0.6758
 8055TIP3    H145580   2.693   6.035  15.309  0.3123 -0.7254 -0.1624
 8055TIP3    H245581   2.795   6.144  15.286 -1.0202  0.9371  1.4168
 8056TIP3   OH245582   6.546   4.381   4.543  0.0541 -0.0121 -0.4802
 8056TIP3    H145583   6.516   4.323   4.613 -0.5797 -0.4556 -1.1026
 8056TIP3    H245584   6.555   4.466   4.585  0.7454 -0.4977  0.3883
 8057TIP3   OH245585   4.866   4.024   3.921  0.0432 -0.7392  0.2314
 8057TIP3    H145586   4.838   4.016   3.830 -1.3340  0.5211  0.5046
 8057TIP3    H245587   4.786   4.012   3.972  0.7454 -1.1603  1.2766
 8058TIP3   OH245588   4.813   3.309   3.085  0.3131 -0.4851  0.6017
 8058TIP3    H145589   4.853   3.240   3.140  1.2841 -0.5960 -0.2131
 8058TIP3    H245590   4.814   3.387   3.141 -0.7499 -1.0901  1.5206
 8059TIP3   OH245591   4.690   0.456  11.487  0.7641 -0.1792  0.0923
 8059TIP3    H145592   4.675   0.548  11.465  1.0726 -0.4272 -1.2719
 8059TIP3    H245593   4.712   0.415  11.403  0.1464 -1.6007  0.5945
 8060TIP3   OH245594   0.837   1.964  15.985 -0.5140  0.1682 -0.2833
 8060TIP3    H145595   0.804   1.874  15.991 -0.9357  0.4010  1.3287
 8060TIP3    H245596   0.900   1.971  16.057 -3.4566  2.3151  2.3183
 8061TIP3   OH245597   3.160   5.160   4.895  0.0021  0.1843  0.2663
 8061TIP3    H145598   3.237   5.168   4.951  1.2472 -0.1760 -1.3243
 8061TIP3    H245599   3.181   5.213   4.818 -0.8512 -0.8576 -0.7083
 8062TIP3   OH245600   5.990   4.314  16.429  0.5121  0.4379  0.5137
 8062TIP3    H145601   6.053   4.381  16.400 -0.1344  0.4188 -1.0446
 8062TIP3    H245602   6.008   4.239  16.373 -1.3575  0.6798 -0.4797
 8063TIP3   OH245603   6.601   0.261  10.660 -0.6514  0.5261  0.1909
 8063TIP3    H145604   6.585   0.289  10.750 -0.4594  0.7786  0.1465
 8063TIP3    H245605   6.558   0.176  10.654 -0.8022  0.5804  0.4749
 8064TIP3   OH245606   5.964   1.999   1.727  0.5802  0.1906  0.1799
 8064TIP3    H145607   6.007   1.915   1.744  0.8896 -0.0697 -1.6929
 8064TIP3    H245608   5.899   2.007   1.797  1.3749 -1.0123  1.1014
 8065TIP3   OH245609   5.963   1.459   3.335 -0.1542 -0.4270  0.1840
 8065TIP3    H145610   5.937   1.393   3.399  1.6634  1.3600  2.9900
 8065TIP3    H245611   5.894   1.526   3.341 -1.7159 -1.6396 -2.2766
 8066TIP3   OH245612   5.165   0.897  15.571  0.3964  0.1347  0.5198
 8066TIP3    H145613   5.107   0.935  15.637  0.6707 -0.6281  1.2165
 8066TIP3    H245614   5.109   0.834  15.524  0.8695 -1.3156  1.8300
 8067TIP3   OH245615   6.218   0.885   2.699  0.7136  0.1433  0.0224
 8067TIP3    H145616   6.258   0.799   2.686  1.2615  0.2775  0.7668
 8067TIP3    H245617   6.252   0.914   2.784 -0.6054  0.4624  0.4572
 8068TIP3   OH245618   4.633   6.149  15.829 -0.4723  0.1068  0.5318
 8068TIP3    H145619   4.588   6.172  15.910 -0.3345  0.7113  0.4421
 8068TIP3    H245620   4.563   6.137  15.765 -0.5268  3.9313 -0.3812
 8069TIP3   OH245621   1.135   1.263   2.952 -0.1378  0.2845  0.2928
 8069TIP3    H145622   1.223   1.298   2.963  0.0220 -0.5551  1.8744
 8069TIP3    H245623   1.112   1.226   3.037 -0.4496 -3.1243 -1.1425
 8070TIP3   OH245624   5.865   4.911  16.971  0.2379 -0.0621 -0.6112
 8070TIP3    H145625   5.777   4.892  16.938 -0.8946  3.6624 -0.2943
 8070TIP3    H245626   5.910   4.952  16.897 -0.1120  2.5182  0.4874
 8071TIP3   OH245627   1.377   5.787  15.770  0.0156 -0.1869  0.0266
 8071TIP3    H145628   1.288   5.816  15.791  0.3425  0.4124  0.6152
 8071TIP3    H245629   1.396   5.720  15.835 -1.0290 -2.4170 -1.7940
 8072TIP3   OH245630   5.452   1.200  13.045  0.0658 -0.4795 -0.8056
 8072TIP3    H145631   5.393   1.269  13.014  2.0946  0.2219 -3.4478
 8072TIP3    H245632   5.476   1.228  13.134 -1.0010  0.9124 -0.9220
 8073TIP3   OH245633   6.101   4.210  15.189 -0.5669 -0.2281  0.6635
 8073TIP3    H145634   6.072   4.252  15.108 -0.1588  0.0055  0.6344
 8073TIP3    H245635   6.093   4.116  15.172  1.6730 -0.2702 -0.4783
 8074TIP3   OH245636   2.337   6.556  14.395  0.2330  0.9269 -0.1065
 8074TIP3    H145637   2.253   6.576  14.436  0.2280  0.4843  0.1046
 8074TIP3    H245638   2.318   6.484  14.335  1.0211 -1.4290  2.2667
 8075TIP3   OH245639   3.503   6.469  13.527  0.3173  0.1567  0.1191
 8075TIP3    H145640   3.445   6.491  13.455 -1.8592  0.0766  1.7625
 8075TIP3    H245641   3.568   6.540  13.529 -0.0302  0.5475 -1.3961
 8076TIP3   OH245642   4.119   0.777  16.046  0.3323 -0.0538 -0.0029
 8076TIP3    H145643   4.091   0.848  15.988 -0.1620 -0.4240 -0.2179
 8076TIP3    H245644   4.153   0.821  16.123  1.0166  0.4513 -0.5763
 8077TIP3   OH245645   1.671   6.165   3.451 -0.2608  0.5313 -0.2658
 8077TIP3    H145646   1.760   6.134   3.433  0.2103  1.1143  1.0187
 8077TIP3    H245647   1.638   6.106   3.519  0.3043  2.2064  1.5227
 8078TIP3   OH245648   0.844   4.136  11.863  0.0306 -0.1698  0.1720
 8078TIP3    H145649   0.777   4.136  11.931  0.9060 -0.6485  1.0571
 8078TIP3    H245650   0.898   4.060  11.882  2.1941  1.4250  0.9072
 8079TIP3   OH245651   5.548   2.475   3.076  0.2354 -0.5084  0.2152
 8079TIP3    H145652   5.580   2.489   2.987  0.9126 -0.9441  0.3771
 8079TIP3    H245653   5.453   2.466   3.067  0.1652  0.6467 -0.3095
 8080TIP3   OH245654   6.640   0.817  11.328 -0.2507 -0.3546  0.3294
 8080TIP3    H145655   6.591   0.781  11.254 -0.0500 -0.1167  0.0783
 8080TIP3    H245656   6.613   0.909  11.332  2.0932  0.5285 -1.4695
 8081TIP3   OH245657   3.113   1.643  15.491  0.1784 -0.0382  0.1662
 8081TIP3    H145658   3.169   1.675  15.562 -0.6476 -2.3040  1.9711
 8081TIP3    H245659   3.076   1.561  15.525 -2.7991  0.4126 -1.6579
 8082TIP3   OH245660   5.612   6.474   0.149  0.1291  0.2666  0.0015
 8082TIP3    H145661   5.573   6.558   0.171 -1.4880  0.0542 -1.8025
 8082TIP3    H245662   5.538   6.420   0.121  1.3773 -1.0624 -0.8785
 8083TIP3   OH245663   2.776   2.837  14.188 -0.2447 -0.3237  0.1585
 8083TIP3    H145664   2.692   2.865  14.224  0.2082  0.3969  0.6798
 8083TIP3    H245665   2.842   2.882  14.241  0.5057 -1.6253  0.3946
 8084TIP3   OH245666   5.997   2.624   0.672  0.9359  0.4658  0.1884
 8084TIP3    H145667   6.076   2.599   0.624  1.4564  1.3869  0.5300
 8084TIP3    H245668   5.941   2.547   0.669  0.7775  0.5718 -2.2358
 8085TIP3   OH245669   1.924   2.540  17.207  0.1238 -0.5149 -0.7889
 8085TIP3    H145670   1.978   2.618  17.221 -1.0297  0.1768 -0.0071
 8085TIP3    H245671   1.884   2.555  17.121 -1.2175  0.5016 -0.0374
 8086TIP3   OH245672   5.062   5.360  12.689  0.6254  0.7313  0.2474
 8086TIP3    H145673   5.118   5.340  12.764 -0.7476  1.0230  1.3922
 8086TIP3    H245674   4.995   5.291  12.690  1.8550 -0.6460 -2.1406
 8087TIP3   OH245675   3.767   4.834   3.694 -0.0795  1.0596 -0.1864
 8087TIP3    H145676   3.760   4.822   3.599 -0.3720 -0.7073  0.0255
 8087TIP3    H245677   3.701   4.774   3.730  1.9577 -0.4401  1.2160
 8088TIP3   OH245678   4.658   4.555  13.248 -0.3020 -0.0372 -0.0861
 8088TIP3    H145679   4.723   4.621  13.224  0.4616 -0.6297  0.3126
 8088TIP3    H245680   4.575   4.593  13.221  0.3171  0.1651 -1.8973
 8089TIP3   OH245681   0.574   0.188  12.856  0.1643 -0.0699 -0.6076
 8089TIP3    H145682   0.548   0.116  12.913  0.9402  0.4550  0.4537
 8089TIP3    H245683   0.508   0.189  12.787 -2.6913  1.2111  1.9032
 8090TIP3   OH245684   4.883   4.015  15.735  0.0683 -0.6254  0.2874
 8090TIP3    H145685   4.866   3.932  15.691 -0.3082 -0.0440 -0.6939
 8090TIP3    H245686   4.962   4.049  15.693  0.5376 -0.7252  1.0593
 8091TIP3   OH245687   0.253   4.553  16.377 -0.1551  0.1999 -0.0281
 8091TIP3    H145688   0.288   4.591  16.296  1.6726  1.1939  1.1403
 8091TIP3    H245689   0.285   4.612  16.446  1.4517 -2.5240  1.7627
 8092TIP3   OH245690   0.047   1.244  13.295  0.2948 -0.0594  0.1421
 8092TIP3    H145691   0.130   1.219  13.255  0.7294 -0.0125  0.9779
 8092TIP3    H245692   0.059   1.335  13.321  0.1880 -0.2178  0.7684
 8093TIP3   OH245693   2.045   2.262   1.863  0.3163  0.0022  0.5220
 8093TIP3    H145694   2.094   2.251   1.782  1.0896 -0.8748  1.0804
 8093TIP3    H245695   2.111   2.283   1.929 -0.3659  1.2944  0.8329
 8094TIP3   OH245696   0.906   3.045  14.547 -0.3399  0.1107 -0.3914
 8094TIP3    H145697   0.930   3.115  14.487  0.1230 -0.6707 -1.1338
 8094TIP3    H245698   0.811   3.048  14.552 -0.3466  0.5186 -0.7476
 8095TIP3   OH245699   5.857   1.930  10.768 -0.0145  0.0517 -0.2700
 8095TIP3    H145700   5.813   1.932  10.683 -0.8941 -0.0947  0.1692
 8095TIP3    H245701   5.788   1.904  10.830  0.8042 -0.6549  0.3694
 8096TIP3   OH245702   3.245   2.749  12.363 -0.0852 -0.2091 -0.2087
 8096TIP3    H145703   3.162   2.708  12.337  0.6878 -1.8710 -0.1344
 8096TIP3    H245704   3.309   2.718  12.300  0.4121  1.5589 -0.6482
 8097TIP3   OH245705   3.021   1.448  12.800 -0.3892 -0.0474 -0.0612
 8097TIP3    H145706   3.089   1.403  12.850 -0.7841 -2.7681 -1.7306
 8097TIP3    H245707   2.943   1.443  12.855 -0.5194 -1.8839 -0.3522
 8098TIP3   OH245708   0.286   6.424  13.061  0.4142  0.2644 -0.0572
 8098TIP3    H145709   0.272   6.377  12.979  0.3304 -0.8586  0.5775
 8098TIP3    H245710   0.201   6.464  13.080  0.6431  1.1891 -0.8976
 8099TIP3   OH245711   0.142   1.202   1.054  0.6587 -0.9236  0.4156
 8099TIP3    H145712   0.181   1.165   1.133 -0.9269 -0.2313  1.5651
 8099TIP3    H245713   0.130   1.295   1.074  2.2191 -0.2482 -1.4719
 8100TIP3   OH245714   4.268   3.166   4.524  0.1886  0.0542 -0.0579
 8100TIP3    H145715   4.194   3.204   4.476 -0.6962 -0.3587  0.9209
 8100TIP3    H245716   4.245   3.073   4.532 -0.0076  0.2317  1.6940
 8101TIP3   OH245717   6.127   0.551   5.367 -0.1463  0.1918  0.3389
 8101TIP3    H145718   6.184   0.480   5.397  2.4215  2.5512  1.4004
 8101TIP3    H245719   6.100   0.523   5.279  3.3158 -0.7796 -0.5835
 8102TIP3   OH245720   4.935   1.514   2.464 -0.0427 -0.2137 -0.4724
 8102TIP3    H145721   4.930   1.484   2.373 -1.1005 -1.5885  0.0092
 8102TIP3    H245722   4.919   1.608   2.459 -1.2240 -0.4473 -1.6142
 8103TIP3   OH245723   3.238   2.232   5.445  0.1577  0.5099 -0.4086
 8103TIP3    H145724   3.290   2.300   5.487  0.1270  0.6286 -0.5626
 8103TIP3    H245725   3.228   2.262   5.355 -0.8211  0.8603 -0.1976
 8104TIP3   OH245726   5.666   4.297   5.380 -0.3180 -0.0194  0.0063
 8104TIP3    H145727   5.610   4.272   5.307  1.9182  0.0467 -1.8522
 8104TIP3    H245728   5.688   4.214   5.423 -1.6487 -0.0570  0.6513
 8105TIP3   OH245729   0.928   4.082   0.343 -0.3593  0.7707  0.0963
 8105TIP3    H145730   0.889   4.167   0.362 -0.0897  1.7387 -3.0379
 8105TIP3    H245731   0.928   4.077   0.247  0.6202 -2.3200  0.1476
 8106TIP3   OH245732   1.086   1.760  12.358 -0.2863 -0.2727  0.5475
 8106TIP3    H145733   1.060   1.688  12.302 -0.1048 -0.1190  0.2603
 8106TIP3    H245734   1.124   1.719  12.436 -0.1683 -0.4845  0.3771
 8107TIP3   OH245735   1.496   2.625  17.322 -0.0586  0.1945 -0.0729
 8107TIP3    H145736   1.567   2.563  17.342 -0.9364 -1.5172 -1.9039
 8107TIP3    H245737   1.510   2.647  17.230 -1.5099  0.3423 -0.2715
 8108TIP3   OH245738   5.536   6.409   3.734  0.1466 -0.2620 -0.8632
 8108TIP3    H145739   5.470   6.350   3.698 -2.3483  1.4496  0.5515
 8108TIP3    H245740   5.494   6.496   3.731  1.0393  0.4768  2.9143
 8109TIP3   OH245741   2.966   1.805  11.493 -0.4397 -0.1565 -0.7459
 8109TIP3    H145742   2.960   1.900  11.484 -0.7559 -0.2782 -2.1535
 8109TIP3    H245743   3.060   1.788  11.501 -0.4908  0.4133  2.0764
 8110TIP3   OH245744   0.072   2.119  11.596  0.5130  0.2561  0.2652
 8110TIP3    H145745   0.126   2.161  11.663  2.9596 -3.1768  0.7333
 8110TIP3    H245746   0.024   2.050  11.643 -2.6325  1.6897 -0.5781
 8111TIP3   OH245747   1.210   6.773   1.006 -0.2345  0.2283 -0.6858
 8111TIP3    H145748   1.140   6.794   1.068 -0.6745 -2.5778 -0.0681
 8111TIP3    H245749   1.282   6.741   1.061  1.3469  2.4109 -1.3658
 8112TIP3   OH245750   4.672   1.789   5.345 -0.2674  0.6036  0.4303
 8112TIP3    H145751   4.681   1.883   5.365  1.5544  0.7083 -0.6523
 8112TIP3    H245752   4.762   1.758   5.337 -0.8547 -1.1382  0.2239
 8113TIP3   OH245753   3.023   4.471  11.895 -0.0888 -0.2818  0.4696
 8113TIP3    H145754   3.039   4.563  11.877  1.9727 -0.4554  1.1178
 8113TIP3    H245755   3.056   4.424  11.818  0.6573 -0.5534  0.9394
 8114TIP3   OH245756   5.353   0.114   2.591  0.2267  0.4297  0.1503
 8114TIP3    H145757   5.441   0.079   2.607  0.9234  1.0730 -1.9027
 8114TIP3    H245758   5.334   0.089   2.500 -0.8178  2.0895 -0.1325
 8115TIP3   OH245759   3.482   4.319   0.556 -0.3502  0.0286  0.1912
 8115TIP3    H145760   3.482   4.351   0.465  0.8220  1.1612  0.5520
 8115TIP3    H245761   3.397   4.346   0.591 -0.4591  0.3600 -0.3168
 8116TIP3   OH245762   3.890   1.125  14.484 -0.8131 -0.4995 -0.3740
 8116TIP3    H145763   3.815   1.065  14.480 -0.9229 -0.3194 -1.6331
 8116TIP3    H245764   3.867   1.188  14.552 -2.4910  0.4002 -1.7029
 8117TIP3   OH245765   5.264   5.213   1.918  0.1463  0.2149 -0.1546
 8117TIP3    H145766   5.195   5.276   1.938  0.7622 -0.0157  3.4832
 8117TIP3    H245767   5.277   5.165   2.000  3.2382 -1.1474 -1.2701
 8118TIP3   OH245768   2.768   4.353   2.992  0.0116  0.5358 -0.0636
 8118TIP3    H145769   2.711   4.276   2.984  0.0624  0.4853  0.0562
 8118TIP3    H245770   2.708   4.426   3.004 -0.0516  0.5680 -0.5651
 8119TIP3   OH245771   0.702   6.539  16.934 -0.3413  0.6991  0.2761
 8119TIP3    H145772   0.685   6.503  16.846  2.5195  1.2783 -0.6380
 8119TIP3    H245773   0.681   6.632  16.926 -0.5891  0.6481  0.3501
 8120TIP3   OH245774   2.233   3.985  15.249  0.1628 -0.3089 -0.2565
 8120TIP3    H145775   2.156   3.934  15.227  1.5893 -1.6077 -2.7156
 8120TIP3    H245776   2.267   4.015  15.164  0.8819  2.5571  0.9077
 8121TIP3   OH245777   4.159   3.411  12.834 -0.9338 -0.5476 -0.4140
 8121TIP3    H145778   4.141   3.494  12.877 -0.3288 -0.6143 -0.0215
 8121TIP3    H245779   4.073   3.377  12.810 -1.1126  0.8468 -1.8564
 8122TIP3   OH245780   5.295   5.148  11.438  0.0922  0.1010  0.1043
 8122TIP3    H145781   5.288   5.157  11.533 -1.5709 -0.3165  0.0637
 8122TIP3    H245782   5.307   5.054  11.425  2.1549  0.3435 -0.0614
 8123TIP3   OH245783   2.276   1.578  12.509  0.4481  0.9128 -0.0551
 8123TIP3    H145784   2.324   1.497  12.494 -0.4739  0.5312 -1.0999
 8123TIP3    H245785   2.206   1.577  12.444 -1.6579  0.9326  2.0847
 8124TIP3   OH245786   2.128   5.238   3.359 -0.0103  0.2208  0.3251
 8124TIP3    H145787   2.210   5.283   3.380  1.3376 -1.0073 -1.9067
 8124TIP3    H245788   2.138   5.151   3.396 -0.1000 -0.0761 -0.3306
 8125TIP3   OH245789   2.481   3.798  10.711 -0.2679 -0.0713  0.3258
 8125TIP3    H145790   2.467   3.870  10.772 -2.5682 -0.4107  0.3020
 8125TIP3    H245791   2.394   3.758  10.701 -0.2348  0.5048 -3.8261
 8126TIP3   OH245792   2.150   1.282  17.256  0.2160 -0.2590 -0.3305
 8126TIP3    H145793   2.198   1.355  17.295 -0.9809  0.1881  0.3619
 8126TIP3    H245794   2.063   1.317  17.240 -0.6817 -1.8050  0.9222
 8127TIP3   OH245795   4.005   1.563  12.069 -0.0433  0.0972 -0.7231
 8127TIP3    H145796   3.919   1.541  12.106 -0.2764  0.3542 -1.1003
 8127TIP3    H245797   4.040   1.630  12.128  0.4223 -0.8665  0.1075
 8128TIP3   OH245798   1.491   2.268  10.968 -0.0626 -0.4659 -0.6746
 8128TIP3    H145799   1.401   2.288  10.943 -0.0655  0.6288  0.1197
 8128TIP3    H245800   1.538   2.351  10.957  0.6962 -0.8552 -0.4470
 8129TIP3   OH245801   3.573   6.541  14.515 -0.0613  0.0710  0.2216
 8129TIP3    H145802   3.569   6.532  14.420 -0.8348  1.0242  0.1403
 8129TIP3    H245803   3.488   6.508  14.546  0.0797  0.0156  0.5597
 8130TIP3   OH245804   5.210   6.220   1.637 -0.7409  0.4079  0.5396
 8130TIP3    H145805   5.133   6.255   1.593 -1.2312 -0.3561  0.7737
 8130TIP3    H245806   5.183   6.209   1.728 -0.7263 -0.8837  0.4159
 8131TIP3   OH245807   4.293   0.494  16.770  0.3464  0.2664  0.6594
 8131TIP3    H145808   4.347   0.471  16.844 -0.8846  0.7526  1.7544
 8131TIP3    H245809   4.209   0.451  16.787  1.0849 -2.7985 -2.3550
 8132TIP3   OH245810   5.101   5.837  16.776  0.1058  0.7859  0.2244
 8132TIP3    H145811   5.028   5.778  16.797  0.4225  0.0117 -0.7597
 8132TIP3    H245812   5.080   5.871  16.689  1.4256 -0.3192 -0.5762
 8133TIP3   OH245813   1.495   1.298  14.147  0.0097 -0.3438  0.3129
 8133TIP3    H145814   1.467   1.313  14.057  0.1518 -0.1338  0.3045
 8133TIP3    H245815   1.414   1.281  14.195  0.0276 -1.6462 -0.0863
 8134TIP3   OH245816   4.298   4.923   3.299  0.1027  0.6806  0.0458
 8134TIP3    H145817   4.316   4.872   3.220  2.7726  1.3815  0.0986
 8134TIP3    H245818   4.336   5.009   3.281 -1.3371  1.6351  1.2353
 8135TIP3   OH245819   5.186   5.215  13.140 -0.2602  0.3832  0.0112
 8135TIP3    H145820   5.226   5.252  13.219  3.5050 -2.4904 -0.2580
 8135TIP3    H245821   5.222   5.267  13.068  0.3420 -0.0734 -0.0301
 8136TIP3   OH245822   3.533   2.039   3.040  0.4996 -0.4620 -0.2277
 8136TIP3    H145823   3.482   1.959   3.054  2.4137 -1.4329  2.0596
 8136TIP3    H245824   3.514   2.093   3.117  0.0858  0.8236 -1.2057
 8137TIP3   OH245825   5.387   3.111  14.324 -0.1385  0.4719 -0.5168
 8137TIP3    H145826   5.327   3.131  14.396  0.7591 -0.0720  0.4192
 8137TIP3    H245827   5.430   3.195  14.305 -0.2457  0.5790 -0.2935
 8138TIP3   OH245828   0.713   3.042   4.019  0.5833 -0.2459 -0.3285
 8138TIP3    H145829   0.663   2.972   3.977  1.6285 -1.9904  1.1629
 8138TIP3    H245830   0.779   3.066   3.954  1.5632 -2.2029 -0.1349
 8139TIP3   OH245831   1.927   3.158   4.432  0.4534 -0.0212 -0.0025
 8139TIP3    H145832   1.888   3.083   4.477  0.0839  0.0471 -0.1986
 8139TIP3    H245833   2.018   3.134   4.419  0.7113  0.1982  1.2938
 8140TIP3   OH245834   4.662   5.552   1.392 -0.8342 -0.3113  1.1307
 8140TIP3    H145835   4.583   5.607   1.400 -0.8880 -0.3212  0.6609
 8140TIP3    H245836   4.724   5.591   1.454 -0.7665  0.4653  0.5869
 8141TIP3   OH245837   4.235   3.040   3.115 -0.4899 -0.9096  0.5893
 8141TIP3    H145838   4.216   3.074   3.028  0.6324 -0.2297  0.5884
 8141TIP3    H245839   4.274   3.114   3.162 -0.3000 -1.5048  1.3942
 8142TIP3   OH245840   3.240   4.014  12.131 -0.2452  0.4988 -0.0919
 8142TIP3    H145841   3.163   4.067  12.149  1.1823  2.3101  0.9787
 8142TIP3    H245842   3.279   4.054  12.054  0.0841  0.0910 -0.1419
 8143TIP3   OH245843   1.086   5.580   1.473 -0.2316  0.1962  0.5600
 8143TIP3    H145844   1.123   5.501   1.434 -1.0354  0.8630 -1.6974
 8143TIP3    H245845   1.070   5.556   1.565  3.3452 -0.9140  1.0389
 8144TIP3   OH245846   0.205   6.066   1.316 -0.1211 -0.3367 -0.0648
 8144TIP3    H145847   0.251   5.990   1.352 -0.7432 -0.4272  0.5585
 8144TIP3    H245848   0.119   6.064   1.357 -0.2429  0.5559 -0.2469
 8145TIP3   OH245849   3.200   1.152  13.718 -0.2815 -0.3893  0.5134
 8145TIP3    H145850   3.133   1.178  13.655  0.5726 -0.3059 -0.3806
 8145TIP3    H245851   3.283   1.170  13.674  0.3536  0.5632  2.0196
 8146TIP3   OH245852   4.910   3.851   5.555 -1.2372  0.4668  0.4596
 8146TIP3    H145853   4.976   3.792   5.590 -1.0094 -0.2416 -1.0918
 8146TIP3    H245854   4.960   3.920   5.511 -1.5026  1.7842  2.1069
 8147TIP3   OH245855   0.180   5.562   3.164  0.5112  0.4485 -0.0090
 8147TIP3    H145856   0.090   5.549   3.192  0.8721 -0.1809  0.9097
 8147TIP3    H245857   0.232   5.507   3.222  1.4540  0.4249 -0.8338
 8148TIP3   OH245858   2.894   3.005   4.879 -0.1396  0.1105 -0.4836
 8148TIP3    H145859   2.942   3.057   4.814  0.6235  1.0681  0.7997
 8148TIP3    H245860   2.866   2.927   4.831  2.9443 -0.6754 -1.2791
 8149TIP3   OH245861   3.183   0.743   2.448 -0.2293  0.2757 -0.0192
 8149TIP3    H145862   3.091   0.755   2.426 -0.0450  0.1600 -0.8882
 8149TIP3    H245863   3.188   0.653   2.481 -0.7500  0.8974  1.8782
 8150TIP3   OH245864   1.578   2.393   5.378  0.1091 -0.8943 -0.0410
 8150TIP3    H145865   1.492   2.410   5.340 -0.6736 -2.3619  0.9692
 8150TIP3    H245866   1.629   2.355   5.307  0.1319  0.5286 -0.8092
 8151TIP3   OH245867   0.807   5.311  11.343  1.1938 -0.3415  0.2161
 8151TIP3    H145868   0.889   5.262  11.347  0.0705 -2.4654 -1.1204
 8151TIP3    H245869   0.783   5.325  11.434  3.3201  0.8766  0.6378
 8152TIP3   OH245870   5.677   4.470  14.743  0.1687  0.7833 -0.4635
 8152TIP3    H145871   5.738   4.512  14.682  1.0197 -0.9407 -0.8641
 8152TIP3    H245872   5.718   4.482  14.829  0.4672  0.6926 -0.5886
 8153TIP3   OH245873   6.422   4.137   2.215  0.7745  0.9174 -0.7307
 8153TIP3    H145874   6.513   4.151   2.240  0.4198  0.7508  0.7123
 8153TIP3    H245875   6.415   4.043   2.197  0.6784  0.7717  0.0592
 8154TIP3   OH245876   4.195   6.171   0.139  0.0676 -0.3335 -0.0578
 8154TIP3    H145877   4.218   6.206   0.225  1.2826 -1.6573  0.1950
 8154TIP3    H245878   4.241   6.228   0.077  1.2422 -0.8645  0.3012
 8155TIP3   OH245879   2.855   3.010   2.443 -0.5883  0.0119  0.5647
 8155TIP3    H145880   2.809   3.094   2.454  0.1912  0.3585  1.3401
 8155TIP3    H245881   2.898   3.018   2.358 -0.4599  0.4434  0.6626
 8156TIP3   OH245882   2.870   5.198   2.334 -0.0842  0.0855  0.0440
 8156TIP3    H145883   2.845   5.170   2.423 -0.5414  0.5158  0.0512
 8156TIP3    H245884   2.794   5.177   2.280  0.2532 -0.3175 -0.2819
 8157TIP3   OH245885   1.204   2.917  14.681  0.2919 -0.5052 -0.6221
 8157TIP3    H145886   1.173   2.993  14.632 -0.5715 -0.0681  0.5406
 8157TIP3    H245887   1.245   2.954  14.759  0.8690 -1.2115 -0.5785
 8158TIP3   OH245888   3.359   0.922  13.771  0.4117  0.1083 -0.5590
 8158TIP3    H145889   3.304   1.000  13.771 -0.5599 -0.5208  1.0029
 8158TIP3    H245890   3.444   0.953  13.804  0.1326  0.5803 -0.2698
 8159TIP3   OH245891   2.180   1.139  14.780  0.4614  0.2326 -0.2236
 8159TIP3    H145892   2.113   1.195  14.820 -0.0918 -0.7320  0.2476
 8159TIP3    H245893   2.261   1.162  14.826  0.3660  1.0596 -0.4538
 8160TIP3   OH245894   5.592   4.317  13.761  0.2426  0.0855  0.1554
 8160TIP3    H145895   5.660   4.311  13.828  1.0256  1.8608 -0.4285
 8160TIP3    H245896   5.638   4.301  13.678 -0.5280 -1.0931 -0.0658
 8161TIP3   OH245897   3.667   0.119  10.736  0.6390  0.0135  0.6610
 8161TIP3    H145898   3.630   0.040  10.698  0.7825 -0.0441  0.6392
 8161TIP3    H245899   3.593   0.179  10.743  0.1654 -0.6899  2.2116
 8162TIP3   OH245900   5.855   3.534   0.567  0.0908 -0.2988 -0.0906
 8162TIP3    H145901   5.900   3.515   0.484 -0.7574 -2.2477 -0.1444
 8162TIP3    H245902   5.852   3.630   0.570 -0.0444 -0.1572 -2.4237
 8163TIP3   OH245903   6.023   5.697  12.162 -0.0236 -0.0509  0.0599
 8163TIP3    H145904   6.031   5.768  12.098 -0.8747  0.4304  0.4831
 8163TIP3    H245905   6.027   5.740  12.247 -3.5884 -0.0734  0.3741
 8164TIP3   OH245906   5.590   2.394   0.941 -0.3083  0.4331  0.1298
 8164TIP3    H145907   5.595   2.488   0.961  1.3884  0.0553  1.7784
 8164TIP3    H245908   5.644   2.353   1.009  0.0564 -1.6207 -1.3302
 8165TIP3   OH245909   0.639   1.333   0.101 -0.7349  0.7660  0.4237
 8165TIP3    H145910   0.553   1.375   0.103 -1.0172  0.2893 -0.7640
 8165TIP3    H245911   0.660   1.318   0.193 -1.2002  2.3192  0.8125
 8166TIP3   OH245912   5.120   3.107   0.089  0.0432 -0.0354  0.7856
 8166TIP3    H145913   5.027   3.120   0.110  0.3928  0.7762  1.9597
 8166TIP3    H245914   5.166   3.173   0.142  1.2086  0.4455 -0.7413
 8167TIP3   OH245915   6.059   1.924  13.075  0.4415 -0.4911  0.1241
 8167TIP3    H145916   6.028   2.009  13.108  1.7247 -1.4246  4.4032
 8167TIP3    H245917   6.005   1.860  13.120  0.9222 -2.0141 -1.3702
 8168TIP3   OH245918   6.341   1.097  14.511 -0.0584  0.6121  0.5024
 8168TIP3    H145919   6.317   1.005  14.503 -0.3249  0.6824  0.5063
 8168TIP3    H245920   6.277   1.144  14.457  0.8624  0.6801 -0.5752
 8169TIP3   OH245921   6.535   0.487  16.698 -0.2160 -0.3444 -0.3600
 8169TIP3    H145922   6.561   0.577  16.681 -2.4400  0.7903  1.4948
 8169TIP3    H245923   6.503   0.488  16.789  1.2646 -3.4266  0.3500
 8170TIP3   OH245924   2.059   1.377  12.480 -0.2374  0.1613  0.1801
 8170TIP3    H145925   1.979   1.353  12.432  0.3310 -1.6044  0.0472
 8170TIP3    H245926   2.078   1.301  12.534  0.7950  0.9697  0.9879
 8171TIP3   OH245927   3.856   2.594  10.720  0.0217 -0.1860  0.2500
 8171TIP3    H145928   3.934   2.543  10.699  0.9488  1.2735 -0.0207
 8171TIP3    H245929   3.839   2.576  10.812  2.8008  2.0629  1.3608
 8172TIP3   OH245930   4.503   1.932   1.179  0.0423 -0.3812 -0.3232
 8172TIP3    H145931   4.570   1.933   1.247 -1.8933  0.2918  1.7173
 8172TIP3    H245932   4.504   2.021   1.143  0.0566 -0.2852 -0.0876
 8173TIP3   OH245933   0.753   3.754  10.773  0.4522  0.2895  0.3549
 8173TIP3    H145934   0.669   3.785  10.739  0.8582 -2.0516 -3.2332
 8173TIP3    H245935   0.738   3.662  10.793  2.4239 -0.6128 -1.8796
 8174TIP3   OH245936   6.074   0.479  14.050 -0.3249 -0.2309 -0.0959
 8174TIP3    H145937   6.063   0.394  14.093 -0.8375  0.0027  0.2338
 8174TIP3    H245938   5.987   0.518  14.051  0.1199  0.7673  0.7112
 8175TIP3   OH245939   4.540   1.992  12.490  0.5444 -0.4214  0.4093
 8175TIP3    H145940   4.623   2.031  12.516  0.3998 -0.9910  1.7799
 8175TIP3    H245941   4.477   2.026  12.553 -0.0199 -1.0346  0.1844
 8176TIP3   OH245942   2.648   5.917   3.301  0.0062 -0.0124 -0.0399
 8176TIP3    H145943   2.592   5.906   3.225  0.9019 -0.1087 -0.6998
 8176TIP3    H245944   2.657   5.829   3.337 -0.7674  0.0974  0.4428
 8177TIP3   OH245945   4.020   6.252  15.676  0.0971 -0.1819  0.1581
 8177TIP3    H145946   4.014   6.213  15.589  0.5848  0.8213 -0.3343
 8177TIP3    H245947   3.943   6.308  15.683  0.8721  0.9710 -0.2680
 8178TIP3   OH245948   0.900   0.145   5.447 -0.1937 -0.6088  0.2967
 8178TIP3    H145949   0.929   0.231   5.417  0.7856 -1.1549 -0.3527
 8178TIP3    H245950   0.810   0.160   5.477  0.2881  0.8477  1.1566
 8179TIP3   OH245951   4.321   2.375   1.375  0.1621 -0.2089  0.2443
 8179TIP3    H145952   4.260   2.356   1.304 -0.7730  0.5920  0.7943
 8179TIP3    H245953   4.391   2.311   1.366  0.5068  0.4000 -1.9037
 8180TIP3   OH245954   1.040   2.124   4.302 -0.3783 -0.0046 -0.5962
 8180TIP3    H145955   0.960   2.163   4.339  0.9212  1.7918  0.4801
 8180TIP3    H245956   1.096   2.109   4.378  0.0597 -1.9697 -1.2544
 8181TIP3   OH245957   5.681   3.755  12.184  0.1555 -0.7268 -0.0259
 8181TIP3    H145958   5.687   3.772  12.278 -0.4693 -0.7542  0.0222
 8181TIP3    H245959   5.661   3.840  12.145  0.7044 -0.6572 -0.1735
 8182TIP3   OH245960   5.997   3.572   5.299 -0.0201 -0.0760  0.0784
 8182TIP3    H145961   5.991   3.477   5.294  0.0056 -0.0276 -1.0831
 8182TIP3    H245962   6.090   3.591   5.288 -0.0477  0.0960  0.1266
 8183TIP3   OH245963   5.586   5.521  14.672  0.1374  0.1248  0.1416
 8183TIP3    H145964   5.677   5.550  14.669 -0.0107  0.5353 -1.2777
 8183TIP3    H245965   5.540   5.591  14.718  0.2487  0.8378 -0.7951
 8184TIP3   OH245966   5.115   1.943   3.304 -0.1605 -0.2247  0.4377
 8184TIP3    H145967   5.020   1.937   3.298 -0.1938  1.4302 -2.3690
 8184TIP3    H245968   5.145   1.854   3.287 -1.2066 -0.4623 -0.2982
 8185TIP3   OH245969   3.268   5.199   4.197 -0.0694  0.2045 -0.1510
 8185TIP3    H145970   3.330   5.269   4.179 -2.1177  2.5411  1.2598
 8185TIP3    H245971   3.182   5.237   4.179 -1.2746 -2.0346  0.4090
 8186TIP3   OH245972   0.113   3.457  17.235  0.6188  0.4887  0.1904
 8186TIP3    H145973   0.054   3.514  17.185  1.1341  2.1098  1.3646
 8186TIP3    H245974   0.136   3.507  17.312  1.6516 -1.0745  0.9570
 8187TIP3   OH245975   5.215   1.043   5.612  0.0761  0.3449 -0.3906
 8187TIP3    H145976   5.293   0.990   5.621  0.0583  0.4193  0.2372
 8187TIP3    H245977   5.203   1.084   5.698 -0.9806 -0.1283 -0.2956
 8188TIP3   OH245978   2.619   2.123   3.617 -0.7308  0.8454 -1.2493
 8188TIP3    H145979   2.557   2.184   3.575 -2.0536  1.7382  1.6988
 8188TIP3    H245980   2.695   2.177   3.638  0.2176  0.2425 -2.9903
 8189TIP3   OH245981   5.113   0.254   0.277  0.0999  0.4233  0.3382
 8189TIP3    H145982   5.206   0.231   0.287 -0.0444 -0.0344  0.6616
 8189TIP3    H245983   5.102   0.333   0.330  0.3893  0.6985 -0.0104
 8190TIP3   OH245984   4.835   3.201  11.870  0.1979 -0.3782  0.1706
 8190TIP3    H145985   4.879   3.116  11.868 -1.2442 -1.1595  0.5011
 8190TIP3    H245986   4.767   3.195  11.802  0.1108  0.5247  0.1601
 8191TIP3   OH245987   4.078   3.131  16.501  0.1856  0.3246  0.8631
 8191TIP3    H145988   3.988   3.110  16.477 -0.3653  2.5088  0.7751
 8191TIP3    H245989   4.113   3.178  16.425  2.4462 -2.9201 -0.3165
 8192TIP3   OH245990   4.342   0.705  16.383 -0.5841 -0.1776 -0.4409
 8192TIP3    H145991   4.363   0.760  16.308  1.3735 -1.2607 -0.7611
 8192TIP3    H245992   4.370   0.756  16.459 -0.3221 -0.0411 -0.6248
 8193TIP3   OH245993   0.792   3.619  13.669 -0.5947  0.2579  0.2007
 8193TIP3    H145994   0.739   3.540  13.667  0.5767 -0.6414  1.7282
 8193TIP3    H245995   0.831   3.625  13.582 -0.9862 -0.6585 -0.0416
 8194TIP3   OH245996   4.943   0.651  15.008  0.5109 -0.2988  0.0458
 8194TIP3    H145997   4.952   0.556  14.998  1.1743 -0.2108 -0.2220
 8194TIP3    H245998   5.018   0.688  14.962  0.5588  0.3383  0.6055
 8195TIP3   OH245999   1.925   2.186  11.567 -0.5365  0.1915 -0.1027
 8195TIP3    H146000   1.992   2.137  11.519 -0.2952  0.6668 -0.2486
 8195TIP3    H246001   1.948   2.176  11.659  0.2789  1.1341 -0.1923
 8196TIP3   OH246002   4.890   2.392   5.217 -0.3384  0.0911 -0.2878
 8196TIP3    H146003   4.861   2.329   5.151  1.5306 -2.6969  1.3345
 8196TIP3    H246004   4.811   2.411   5.268 -1.1298 -0.1906 -1.3602
 8197TIP3   OH246005   0.325   4.791   1.108  0.1531  0.0757 -0.0490
 8197TIP3    H146006   0.240   4.803   1.152 -0.2453 -0.4562 -0.6529
 8197TIP3    H246007   0.390   4.814   1.175 -0.4445 -0.2154  0.6516
 8198TIP3   OH246008   3.460   3.152  16.347 -0.2055  0.2487  0.7647
 8198TIP3    H146009   3.527   3.216  16.371  1.3743 -0.8186 -0.6094
 8198TIP3    H246010   3.494   3.069  16.378 -0.8150 -0.3425 -0.1150
 8199TIP3   OH246011   3.368   6.297   1.589  0.2480 -0.6753 -0.1959
 8199TIP3    H146012   3.436   6.231   1.587  1.0001  0.0343  0.7451
 8199TIP3    H246013   3.404   6.371   1.540 -0.4167 -0.7909 -0.8825
 8200TIP3   OH246014   6.665   1.564  10.906 -0.2402 -0.6443  0.1196
 8200TIP3    H146015   6.719   1.553  10.984  0.7924  1.7465 -0.1848
 8200TIP3    H246016   6.702   1.502  10.843  1.1201 -0.1887  0.4455
 8201TIP3   OH246017   3.548   0.983   1.781 -0.2087 -0.4646  0.3406
 8201TIP3    H146018   3.596   0.922   1.724 -0.0600 -0.6105  0.6233
 8201TIP3    H246019   3.461   0.943   1.790  0.4093 -1.5680  1.9539
 8202TIP3   OH246020   1.645   5.398  12.576  0.8181  0.5595  0.3899
 8202TIP3    H146021   1.563   5.352  12.560  0.7504  0.3086  1.4185
 8202TIP3    H246022   1.618   5.483  12.611  0.9932  0.2367  1.3404
 8203TIP3   OH246023   0.177   1.522  12.204  0.6692 -0.2134 -0.2656
 8203TIP3    H146024   0.120   1.525  12.128 -0.6403  1.0707  0.7050
 8203TIP3    H246025   0.264   1.540  12.169  0.3733 -1.3097 -1.6503
 8204TIP3   OH246026   1.907   0.761  13.637 -0.4850 -0.1828  0.5892
 8204TIP3    H146027   1.860   0.683  13.668  0.0070 -0.0496  1.7529
 8204TIP3    H246028   1.839   0.827  13.626 -0.6110  0.0248  2.3183
 8205TIP3   OH246029   4.038   3.699  16.262 -0.4756 -0.0652  0.2436
 8205TIP3    H146030   4.125   3.717  16.298  0.2154 -1.6531 -0.5478
 8205TIP3    H246031   4.054   3.681  16.169 -1.3839 -2.1259  0.4434
 8206TIP3   OH246032   1.803   2.177   3.260 -0.0222  0.2828  0.2589
 8206TIP3    H146033   1.830   2.165   3.351 -0.9916  0.7508  0.6234
 8206TIP3    H246034   1.879   2.150   3.208  0.4111 -0.3288  1.1950
 8207TIP3   OH246035   4.087   6.173   5.709  0.0277  0.2782 -0.9882
 8207TIP3    H146036   4.174   6.137   5.691  0.3815  1.5551 -2.0220
 8207TIP3    H246037   4.098   6.267   5.700 -0.9157  0.6777  1.4240
 8208TIP3   OH246038   0.284   3.791   6.297  0.1762  0.4470  0.2684
 8208TIP3    H146039   0.331   3.799   6.215  0.7728  1.2451  0.6781
 8208TIP3    H246040   0.197   3.826   6.279  0.4003  0.8955  0.0523
 8209TIP3   OH246041   0.389   5.066  11.258 -0.2954 -0.9142 -0.2718
 8209TIP3    H146042   0.421   5.003  11.193  0.9148 -0.7780  0.1845
 8209TIP3    H246043   0.338   5.013  11.319 -0.5065 -1.2153 -0.6980
 8210TIP3   OH246044   6.549   0.150  16.042  0.0023  0.0916 -0.1848
 8210TIP3    H146045   6.553   0.103  15.958  0.7696 -2.5531  1.2412
 8210TIP3    H246046   6.473   0.208  16.033  0.5056  0.4901 -2.9596
 8211TIP3   OH246047   3.943   2.854   1.003  0.5687  0.6780 -0.2346
 8211TIP3    H146048   3.954   2.936   0.955  0.4244  0.0976 -1.2823
 8211TIP3    H246049   3.852   2.830   0.989  0.4177  0.6784  0.6564
 8212TIP3   OH246050   2.832   1.147  11.377  0.0105  0.0473 -0.0934
 8212TIP3    H146051   2.860   1.140  11.468 -0.3612  0.9306  0.0989
 8212TIP3    H246052   2.902   1.106  11.327  0.0989 -0.6686  0.6078
 8213TIP3   OH246053   6.585   4.681   1.523  0.6988  0.1184  0.1858
 8213TIP3    H146054   6.501   4.635   1.529 -1.2022  3.2569 -0.1724
 8213TIP3    H246055   6.644   4.617   1.484 -1.6057 -2.1123  0.0760
 8214TIP3   OH246056   6.315   1.215  16.100  0.4223  0.4877  0.2870
 8214TIP3    H146057   6.364   1.268  16.162  4.2640  1.3927 -3.0616
 8214TIP3    H246058   6.283   1.277  16.035 -0.4503 -0.7085 -0.4810
 8215TIP3   OH246059   5.408   0.514   6.606  0.4384  0.0552  0.6279
 8215TIP3    H146060   5.494   0.541   6.638  1.7200 -2.0831 -0.8098
 8215TIP3    H246061   5.371   0.464   6.678  2.0638 -2.2331 -0.0356
 8216TIP3   OH246062   4.018   0.051   0.819  0.2419 -0.6582 -0.3446
 8216TIP3    H146063   4.065   0.088   0.894 -0.9917  0.6626 -0.1588
 8216TIP3    H246064   3.931   0.031   0.854 -0.8594  1.3886 -1.6913
 8217TIP3   OH246065   3.554   0.638  12.322 -0.4191 -0.0389  0.4198
 8217TIP3    H146066   3.648   0.655  12.321 -0.3547 -0.3754  0.7547
 8217TIP3    H246067   3.519   0.703  12.382 -0.3814 -0.0272  0.4294
 8218TIP3   OH246068   3.688   3.887  12.670  0.0881 -0.0771 -0.6841
 8218TIP3    H146069   3.659   3.959  12.613 -2.3365  1.6507  2.4383
 8218TIP3    H246070   3.628   3.815  12.649 -1.1071  0.7034 -0.0901
 8219TIP3   OH246071   1.907   4.507  12.135  0.6157  0.3562 -0.2757
 8219TIP3    H146072   1.857   4.544  12.208  1.5434 -0.6995  0.9467
 8219TIP3    H246073   1.841   4.480  12.072 -0.2182  1.2831  0.1690
 8220TIP3   OH246074   1.736   2.021  13.635  0.4639  0.3633 -0.4499
 8220TIP3    H146075   1.674   1.982  13.573 -0.7777  1.2634  0.1632
 8220TIP3    H246076   1.756   1.951  13.696 -0.8282  0.3278 -0.0286
 8221TIP3   OH246077   2.517   4.401   1.627  0.5496 -0.1166  0.0355
 8221TIP3    H146078   2.587   4.420   1.564  0.4062  0.0734 -0.0661
 8221TIP3    H246079   2.549   4.324   1.675 -0.9185 -2.6887 -2.7313
 8222TIP3   OH246080   4.468   1.870  13.269  0.0138  0.3215 -0.1856
 8222TIP3    H146081   4.503   1.908  13.349 -0.3153  0.6024 -0.1727
 8222TIP3    H246082   4.545   1.838  13.221  0.2096  0.1269  0.2527
 8223TIP3   OH246083   0.849   4.860   0.209 -0.9138 -0.2013  0.2630
 8223TIP3    H146084   0.934   4.821   0.228  0.0561  1.0495 -1.3016
 8223TIP3    H246085   0.858   4.952   0.231 -1.7542  0.0203 -0.2674
 8224TIP3   OH246086   6.463   2.134  16.759 -0.3327 -0.2832  0.5782
 8224TIP3    H146087   6.473   2.176  16.674  2.6360  1.0065  1.4535
 8224TIP3    H246088   6.521   2.058  16.756 -1.5831 -1.2941  0.8837
 8225TIP3   OH246089   2.341   5.448  16.667 -0.4026  0.3488 -0.1573
 8225TIP3    H146090   2.376   5.398  16.742 -0.1937  1.5383  0.5630
 8225TIP3    H246091   2.405   5.433  16.597 -0.2648 -0.2794  0.0965
 8226TIP3   OH246092   1.393   6.549  15.426  0.0564 -0.1293 -0.1054
 8226TIP3    H146093   1.382   6.644  15.420  1.3703 -0.0139 -1.0851
 8226TIP3    H246094   1.450   6.526  15.352  0.1996 -1.6098  0.4233
 8227TIP3   OH246095   0.845   4.673   4.715  0.0742 -0.1340  0.2302
 8227TIP3    H146096   0.799   4.722   4.646  0.7390 -1.4787 -1.2325
 8227TIP3    H246097   0.795   4.592   4.723  1.2524 -0.9302 -0.2534
 8228TIP3   OH246098   2.692   2.846   0.967 -0.0014  0.8592 -0.4539
 8228TIP3    H146099   2.649   2.899   1.033  0.2065  0.6656 -0.1620
 8228TIP3    H246100   2.765   2.804   1.013  1.7345  2.7002 -1.3674
 8229TIP3   OH246101   2.981   5.417   1.377  0.3822 -0.5974 -0.4502
 8229TIP3    H146102   2.965   5.436   1.285  1.6532 -0.8695 -0.7397
 8229TIP3    H246103   3.068   5.452   1.395 -0.0501 -0.0951  0.7868
 8230TIP3   OH246104   3.452   1.384   2.762 -0.1859 -0.6477 -0.0007
 8230TIP3    H146105   3.413   1.463   2.798  1.8002  1.0910 -1.4083
 8230TIP3    H246106   3.424   1.383   2.670 -0.1086 -1.5359 -0.0268
 8231TIP3   OH246107   6.287   1.531   0.404 -0.0903  0.0642  0.6778
 8231TIP3    H146108   6.322   1.553   0.490 -0.4081 -0.6058  0.9902
 8231TIP3    H246109   6.315   1.440   0.389  2.0493  0.9186 -1.0182
 8232TIP3   OH246110   5.734   3.108   0.781 -0.4648  0.5238 -0.0532
 8232TIP3    H146111   5.817   3.082   0.821  0.0236  1.3945 -0.4705
 8232TIP3    H246112   5.751   3.195   0.745 -0.4400 -0.6852 -3.3196
 8233TIP3   OH246113   0.306   0.986  15.939  0.6781  0.4718  0.3224
 8233TIP3    H146114   0.279   0.919  15.877 -0.7602  1.0222  0.3229
 8233TIP3    H246115   0.386   0.950  15.980 -0.8121 -1.8995  1.3688
 8234TIP3   OH246116   6.194   4.005  12.566 -0.0598 -0.4100 -0.3525
 8234TIP3    H146117   6.159   4.000  12.477  1.4388 -1.2683 -0.9359
 8234TIP3    H246118   6.193   4.098  12.588  0.4617 -0.0720 -1.6766
 8235TIP3   OH246119   6.364   5.563  12.460 -0.4029 -0.7020  0.2782
 8235TIP3    H146120   6.332   5.565  12.371 -0.8367  3.1023  0.3707
 8235TIP3    H246121   6.459   5.563  12.451 -0.4428 -0.1450 -0.2154
 8236TIP3   OH246122   0.093   0.533  12.914  0.1118  0.3723  0.0217
 8236TIP3    H146123   0.071   0.441  12.900  3.0940 -0.6959  1.6314
 8236TIP3    H246124   0.184   0.541  12.887 -0.1965  3.0146 -0.5059
 8237TIP3   OH246125   3.233   1.118  17.057  0.0324 -0.5412  0.2265
 8237TIP3    H146126   3.260   1.188  16.998  0.3695 -1.9560 -1.3847
 8237TIP3    H246127   3.254   1.151  17.145  1.8526  0.6597 -0.6019
 8238TIP3   OH246128   3.509   2.047  15.319  0.1646 -0.1751  0.2445
 8238TIP3    H146129   3.597   2.009  15.320  0.1444 -0.2466 -0.3790
 8238TIP3    H246130   3.520   2.132  15.277 -0.4763 -1.2900 -2.3909
 8239TIP3   OH246131   5.336   2.580   5.918  1.1147  0.1331  0.2593
 8239TIP3    H146132   5.418   2.625   5.938  0.2351  2.2821 -0.6380
 8239TIP3    H246133   5.335   2.573   5.823 -0.2108  1.1641  0.1664
 8240TIP3   OH246134   4.569   4.421  15.198  0.1477 -0.0738 -0.0469
 8240TIP3    H146135   4.619   4.470  15.132  1.2026 -0.9062  0.1003
 8240TIP3    H246136   4.498   4.480  15.223 -0.2320  0.2971 -1.8588
 8241TIP3   OH246137   4.095   1.508   2.937 -0.0839  0.6886 -0.4969
 8241TIP3    H146138   4.038   1.575   2.898 -1.7699  0.6005  1.5772
 8241TIP3    H246139   4.068   1.426   2.896 -1.0976  0.7357  0.0223
 8242TIP3   OH246140   2.523   0.037   2.909  0.4122  0.1258  0.2940
 8242TIP3    H146141   2.516   0.131   2.891 -0.2398  0.0949  0.3592
 8242TIP3    H246142   2.478  -0.005   2.835  1.8818 -0.2093 -0.4590
 8243TIP3   OH246143   4.761   4.378  12.109  0.3116 -0.3323 -0.2113
 8243TIP3    H146144   4.814   4.446  12.149  0.4355 -0.5040 -0.0852
 8243TIP3    H246145   4.677   4.383  12.156 -0.1494  0.6128 -1.0759
 8244TIP3   OH246146   3.144   3.052  16.343  0.4558 -0.3627  0.3103
 8244TIP3    H146147   3.094   2.976  16.314 -0.2922  0.5857 -0.9752
 8244TIP3    H246148   3.205   3.069  16.271 -0.6472  1.3464 -0.2911
 8245TIP3   OH246149   0.450   0.195  10.956 -0.1288 -0.2020 -0.1364
 8245TIP3    H146150   0.538   0.222  10.932  0.2576 -0.8431  0.5390
 8245TIP3    H246151   0.399   0.204  10.875  0.7448 -0.6392 -0.7454
 8246TIP3   OH246152   3.550   3.459  16.186  0.1522 -0.2922 -0.0469
 8246TIP3    H146153   3.607   3.523  16.145 -0.7177  0.1698 -0.5615
 8246TIP3    H246154   3.592   3.439  16.270  1.1225 -0.0613 -0.4733
 8247TIP3   OH246155   1.920   2.978   1.185 -0.0227  0.0775 -0.3449
 8247TIP3    H146156   2.011   3.008   1.185 -0.1760  0.6746 -2.1287
 8247TIP3    H246157   1.871   3.047   1.230  0.2025  0.4959 -0.7381
 8248TIP3   OH246158   2.706   5.158  12.544 -0.2194 -0.0186  0.2660
 8248TIP3    H146159   2.614   5.186  12.549 -0.1191  0.8139 -1.5876
 8248TIP3    H246160   2.756   5.239  12.542  0.2965 -0.3081 -2.0028
 8249TIP3   OH246161   2.822   6.185  13.542 -0.5595  0.1966  0.3184
 8249TIP3    H146162   2.807   6.091  13.542  2.9929 -0.5504 -1.5822
 8249TIP3    H246163   2.779   6.216  13.462 -1.1566  0.1008  0.5949
 8250TIP3   OH246164   1.549   6.061   3.220  0.2119 -0.2838 -0.1110
 8250TIP3    H146165   1.498   5.990   3.258  2.7219 -2.6061 -0.7790
 8250TIP3    H246166   1.563   6.122   3.293  0.0092 -1.6997  1.1517
 8251TIP3   OH246167   5.790   4.961  14.978 -0.7212 -0.2644 -0.1318
 8251TIP3    H146168   5.757   4.978  15.066  0.5243  0.5777  0.1923
 8251TIP3    H246169   5.872   4.914  14.991 -0.7151 -0.4774 -0.8608
 8252TIP3   OH246170   0.831   6.002   2.985  0.0556 -0.0603 -0.1031
 8252TIP3    H146171   0.777   5.953   2.924 -0.3252 -0.3645  0.4637
 8252TIP3    H246172   0.853   6.083   2.939 -2.7814  1.1519  0.4541
 8253TIP3   OH246173   1.187   4.305  15.225  0.0028 -0.3254 -0.1126
 8253TIP3    H146174   1.256   4.356  15.268  1.7312 -3.6616  1.3926
 8253TIP3    H246175   1.207   4.312  15.132  0.8848  0.7049  0.1287
 8254TIP3   OH246176   5.568   1.220   2.381  0.5397  0.8587  0.4510
 8254TIP3    H146177   5.482   1.178   2.383  0.3650  1.2315  0.7368
 8254TIP3    H246178   5.597   1.221   2.472  1.2176 -0.0169  0.2638
 8255TIP3   OH246179   2.547   4.365   3.276 -0.5319  0.1973 -0.1660
 8255TIP3    H146180   2.569   4.301   3.209  1.7844 -0.8614  1.4502
 8255TIP3    H246181   2.516   4.313   3.350  0.7289  0.9251  0.9404
 8256TIP3   OH246182   1.825   4.974  11.422 -0.2090  0.3929 -0.0351
 8256TIP3    H146183   1.747   4.970  11.478 -0.3063  1.8950 -0.0065
 8256TIP3    H246184   1.794   5.014  11.341  0.4885  0.8961 -0.0701
 8257TIP3   OH246185   3.778   1.964   3.858 -0.3418 -0.1276 -0.0328
 8257TIP3    H146186   3.742   1.877   3.845  0.3386 -0.2846 -0.8927
 8257TIP3    H246187   3.725   2.001   3.930  0.6819 -1.9762  1.7650
 8258TIP3   OH246188   0.338   5.495   3.860  0.2413 -0.1390 -0.0513
 8258TIP3    H146189   0.329   5.550   3.938  1.4217 -0.9892  0.7264
 8258TIP3    H246190   0.258   5.511   3.810 -0.9999 -0.2540  1.7951
 8259TIP3   OH246191   4.212   2.256   4.124 -0.3450 -0.6700  0.7727
 8259TIP3    H146192   4.284   2.293   4.073 -1.8795  1.2431 -0.1239
 8259TIP3    H246193   4.248   2.176   4.161  1.9752 -0.2147 -0.3155
 8260TIP3   OH246194   4.472   2.513   1.092  0.0575  0.0387 -0.3543
 8260TIP3    H146195   4.434   2.505   1.179  1.0904  0.7615  0.1849
 8260TIP3    H246196   4.527   2.435   1.083 -0.1168 -0.0795 -0.3922
 8261TIP3   OH246197   6.516   6.513   2.600  0.1693 -0.1643  0.6127
 8261TIP3    H146198   6.564   6.563   2.534 -1.9649  0.0239 -0.9187
 8261TIP3    H246199   6.583   6.484   2.662  2.4403 -1.0681 -2.0545
 8262TIP3   OH246200   1.447   3.897  14.882  0.1830 -0.0346 -0.6466
 8262TIP3    H146201   1.380   3.873  14.946  0.9272  0.4142  0.3155
 8262TIP3    H246202   1.500   3.963  14.926  0.5639  0.4718 -1.8228
 8263TIP3   OH246203   6.732   0.440  15.398 -0.0273  0.0204 -0.1310
 8263TIP3    H146204   6.802   0.421  15.461 -0.0064  0.0342 -0.1500
 8263TIP3    H246205   6.778   0.459  15.316  0.1093  2.4813  0.4328
 8264TIP3   OH246206   2.945   1.059  10.805 -0.4947  0.1304  0.4336
 8264TIP3    H146207   3.016   0.998  10.826 -0.9257 -0.8075 -0.7007
 8264TIP3    H246208   2.870   1.028  10.856 -0.8618 -0.6538 -0.5409
 8265TIP3   OH246209   6.030   3.671   4.824  0.5991 -0.2095 -0.3647
 8265TIP3    H146210   5.988   3.600   4.774 -0.2512  0.7865 -1.0962
 8265TIP3    H246211   5.966   3.694   4.891  1.1636 -0.5723  0.3286
 8266TIP3   OH246212   3.635   4.435  15.812  0.0323 -0.1840 -0.5115
 8266TIP3    H146213   3.550   4.429  15.855  0.3930 -2.2970 -0.0128
 8266TIP3    H246214   3.615   4.472  15.726 -1.3009 -0.0948 -0.1859
 8267TIP3   OH246215   2.024   1.442   5.744 -0.4467 -0.4519  0.1372
 8267TIP3    H146216   2.099   1.427   5.686 -0.2246  1.3809 -0.0961
 8267TIP3    H246217   1.950   1.404   5.697 -0.3265  1.2762 -1.5469
 8268TIP3   OH246218   3.053   6.250   5.390 -0.5347  0.2909 -0.3306
 8268TIP3    H146219   3.017   6.209   5.469 -0.1221 -0.6000 -0.6014
 8268TIP3    H246220   2.979   6.300   5.354 -1.6049 -1.6592 -0.9778
 8269TIP3   OH246221   1.184   3.856   2.611  0.0083 -0.0834  0.0730
 8269TIP3    H146222   1.221   3.905   2.537  0.4861  0.2568  0.5334
 8269TIP3    H246223   1.189   3.764   2.583 -0.9310  0.1158 -0.8135
 8270TIP3   OH246224   1.387   2.215   6.132  0.0507  0.3764  0.0974
 8270TIP3    H146225   1.383   2.186   6.041 -1.8891  0.9362 -0.0366
 8270TIP3    H246226   1.451   2.157   6.173 -0.1687 -0.8881 -1.2650
 8271TIP3   OH246227   1.279   6.420   0.256  0.3220 -0.0688 -0.3141
 8271TIP3    H146228   1.356   6.389   0.303 -0.1644 -1.4295 -0.3695
 8271TIP3    H246229   1.297   6.513   0.239  1.6683 -0.2105  0.2038
 8272TIP3   OH246230   0.874   3.604  14.944  0.1632 -0.2129  0.1701
 8272TIP3    H146231   0.818   3.682  14.940  0.4184 -0.0367  0.0082
 8272TIP3    H246232   0.828   3.539  14.891 -1.2932 -0.9851  2.2476
 8273TIP3   OH246233   4.544   3.082  13.407  0.8748 -0.4140  0.1902
 8273TIP3    H146234   4.456   3.052  13.383  0.9662 -1.0772  0.6613
 8273TIP3    H246235   4.530   3.133  13.487  1.1151 -2.0876  1.3640
 8274TIP3   OH246236   1.924   0.270  17.001 -0.7276 -0.7857 -0.0904
 8274TIP3    H146237   2.015   0.263  17.030  0.0591  0.5189 -2.0243
 8274TIP3    H246238   1.885   0.185  17.023  0.9745 -1.4135  0.6838
 8275TIP3   OH246239   6.241   3.138   3.032  0.6649 -0.1352  0.4213
 8275TIP3    H146240   6.189   3.181   2.964 -0.5012 -0.6556  0.9632
 8275TIP3    H246241   6.319   3.107   2.986  1.5769  2.4732 -0.0190
 8276TIP3   OH246242   3.674   2.373   5.106 -0.0063  0.4465 -0.2269
 8276TIP3    H146243   3.724   2.315   5.049 -1.2667  0.6466 -1.5917
 8276TIP3    H246244   3.593   2.326   5.124  0.2929  0.4498  1.3380
 8277TIP3   OH246245   3.598   2.211  13.471  0.0532 -0.3526 -0.3694
 8277TIP3    H146246   3.660   2.221  13.399 -0.1409 -2.8369 -0.9716
 8277TIP3    H246247   3.631   2.137  13.522 -0.8419  0.1589  1.0393
 8278TIP3   OH246248   2.009   5.228  13.641  0.0272 -0.8458 -0.1921
 8278TIP3    H146249   2.011   5.316  13.679 -0.9370 -0.6416 -0.5735
 8278TIP3    H246250   2.096   5.217  13.602 -0.1866  0.3872 -1.1048
 8279TIP3   OH246251   5.850   4.626  11.516  0.1850  0.3198  0.4639
 8279TIP3    H146252   5.906   4.550  11.499 -1.0330 -0.3300 -0.7806
 8279TIP3    H246253   5.847   4.673  11.433 -2.7784 -0.8203 -0.1918
 8280TIP3   OH246254   0.165   6.603  13.366 -0.1117 -0.3462 -0.0682
 8280TIP3    H146255   0.260   6.615  13.378  0.0468 -1.8288  0.3792
 8280TIP3    H246256   0.149   6.512  13.393 -1.5956 -0.2566 -0.5731
 8281TIP3   OH246257   5.666   4.128  14.933 -0.0361 -0.3981  0.2647
 8281TIP3    H146258   5.657   4.062  15.001  0.7620  0.7304  1.5154
 8281TIP3    H246259   5.742   4.101  14.882  0.7376 -0.0949  1.2206
 8282TIP3   OH246260   4.621   0.152   5.180  0.0295 -0.5237  0.0389
 8282TIP3    H146261   4.558   0.186   5.244 -0.6115 -0.0059 -0.8441
 8282TIP3    H246262   4.672   0.087   5.229  0.2248  0.5609  1.3264
 8283TIP3   OH246263   4.750   5.784  11.089 -0.2164 -0.3509  0.2910
 8283TIP3    H146264   4.815   5.854  11.095 -0.6653 -0.0162  1.5186
 8283TIP3    H246265   4.788   5.712  11.139 -0.0255 -0.7917 -0.4649
 8284TIP3   OH246266   1.813   5.975  15.642  0.5482  0.2684 -0.5279
 8284TIP3    H146267   1.822   5.894  15.691  0.5483 -0.9537 -2.4517
 8284TIP3    H246268   1.720   5.979  15.620  0.5093  0.9199 -0.2756
 8285TIP3   OH246269   3.389   4.255  14.742  0.7547  0.6013  0.1111
 8285TIP3    H146270   3.317   4.233  14.682 -0.6994 -0.0629  2.0029
 8285TIP3    H246271   3.468   4.250  14.687 -0.3404 -1.3385 -1.4408
 8286TIP3   OH246272   0.385   4.452   5.120 -0.0825 -0.1836  0.2277
 8286TIP3    H146273   0.296   4.446   5.155  0.2019 -0.2207  0.9651
 8286TIP3    H246274   0.381   4.405   5.037 -0.7609 -0.1401  0.2256
 8287TIP3   OH246275   1.548   1.863  15.233  0.5760 -0.7613 -0.5435
 8287TIP3    H146276   1.460   1.898  15.250  1.0338  0.8541 -1.3129
 8287TIP3    H246277   1.605   1.940  15.234  1.8382 -1.6556 -1.0800
 8288TIP3   OH246278   0.360   6.468  12.446  0.0182  0.1995  0.2606
 8288TIP3    H146279   0.311   6.435  12.370 -0.3422  1.4159 -0.0528
 8288TIP3    H246280   0.404   6.547  12.413  0.0987  0.5670  1.2397
 8289TIP3   OH246281   4.388   6.166  13.103 -0.3677 -1.0678  0.1121
 8289TIP3    H146282   4.295   6.190  13.105  0.3997  2.3216  1.0872
 8289TIP3    H246283   4.429   6.232  13.046  1.8415 -0.5623  2.1381
 8290TIP3   OH246284   6.020   5.273   2.009  0.4670  0.3469 -0.4350
 8290TIP3    H146285   5.926   5.277   2.031  0.7007  0.0975  0.6781
 8290TIP3    H246286   6.060   5.337   2.068  1.2596 -1.0854  0.6205
 8291TIP3   OH246287   4.535   1.938  12.205  0.5755  0.2980  0.2168
 8291TIP3    H146288   4.551   1.915  12.296  0.2125 -0.5125  0.0796
 8291TIP3    H246289   4.622   1.939  12.165  0.4899 -4.2077 -0.5550
 8292TIP3   OH246290   2.350   5.831   6.117  0.2494  0.5746  0.6207
 8292TIP3    H146291   2.285   5.887   6.075  2.2177  1.4917 -1.4271
 8292TIP3    H246292   2.348   5.857   6.209 -3.1165 -0.3868  0.9441
 8293TIP3   OH246293   0.840   4.497   1.689 -0.1137 -0.7674 -0.3425
 8293TIP3    H146294   0.843   4.455   1.775  0.4874 -0.2385 -0.0899
 8293TIP3    H246295   0.750   4.528   1.680 -0.4977 -1.8748 -0.4284
 8294TIP3   OH246296   1.620   0.153  15.850  0.5017 -0.9156  0.2286
 8294TIP3    H146297   1.670   0.133  15.929 -0.9511  0.1182  1.4903
 8294TIP3    H246298   1.529   0.155  15.879  0.0059  0.6217 -1.2128
 8295TIP3   OH246299   3.130   0.107   0.492  0.1342 -0.1664  0.0725
 8295TIP3    H146300   3.110   0.168   0.563 -1.6776 -0.9256  0.2796
 8295TIP3    H246301   3.207   0.144   0.449 -0.4800  1.8680  0.6111
 8296TIP3   OH246302   6.753   3.869   1.570 -0.2255  0.2805 -0.0926
 8296TIP3    H146303   6.813   3.868   1.645 -0.1513  0.3849 -0.1510
 8296TIP3    H246304   6.724   3.778   1.563 -0.2705  0.2791  0.0921
 8297TIP3   OH246305   0.171   3.743  13.801  0.3584  0.5999 -0.3883
 8297TIP3    H146306   0.145   3.762  13.892 -0.9384  1.4816 -0.9114
 8297TIP3    H246307   0.265   3.727  13.806  0.0065 -1.3759  1.4099
 8298TIP3   OH246308   0.816   5.756  14.919 -0.0300  0.4675  0.5841
 8298TIP3    H146309   0.844   5.785  15.005 -0.2702 -2.4880  1.7767
 8298TIP3    H246310   0.725   5.728  14.931 -0.0552 -0.0453 -0.6161
 8299TIP3   OH246311   4.655   0.838   5.224 -0.0491  0.0316  0.6254
 8299TIP3    H146312   4.564   0.816   5.203 -0.1650 -0.0499  1.1947
 8299TIP3    H246313   4.674   0.915   5.171  0.5334 -1.6803 -1.8282
 8300TIP3   OH246314   5.392   3.557   2.602  0.4444  0.0774  0.6391
 8300TIP3    H146315   5.347   3.584   2.522  1.3950  0.7236  0.2955
 8300TIP3    H246316   5.442   3.634   2.628 -2.0446  0.8609  3.4969
 8301TIP3   OH246317   4.557   3.913  12.748 -0.0306 -0.0936 -0.9587
 8301TIP3    H146318   4.620   3.979  12.779 -1.4764  0.9708 -0.1378
 8301TIP3    H246319   4.582   3.833  12.793  1.9326 -0.2123 -2.1705
 8302TIP3   OH246320   2.436   0.619   5.258  0.1947  0.1553  0.0192
 8302TIP3    H146321   2.380   0.679   5.307 -0.7297 -1.6037  1.2122
 8302TIP3    H246322   2.384   0.592   5.183 -0.4059 -1.0944  0.8602
 8303TIP3   OH246323   0.490   6.466   4.763  0.1439 -0.4113  0.2147
 8303TIP3    H146324   0.477   6.561   4.772 -0.2841 -0.4716  0.2638
 8303TIP3    H246325   0.436   6.428   4.833 -1.0620 -0.7746 -0.8885
 8304TIP3   OH246326   2.903   2.464   4.079 -0.1245  0.2008 -0.3888
 8304TIP3    H146327   2.962   2.392   4.058  0.8265  1.3414 -1.8061
 8304TIP3    H246328   2.947   2.511   4.150 -0.1135  0.1232 -0.3443
 8305TIP3   OH246329   3.033   4.554  13.344  0.2671 -0.3059  0.2336
 8305TIP3    H146330   3.024   4.555  13.439 -0.8845 -0.7202  0.1442
 8305TIP3    H246331   3.110   4.500  13.327 -0.1500 -1.1325  0.8988
 8306TIP3   OH246332   0.318   0.710  16.142  0.0382 -0.2900  0.8457
 8306TIP3    H146333   0.354   0.668  16.064  1.3723 -1.3285  1.9770
 8306TIP3    H246334   0.234   0.746  16.113  0.6386 -0.3799 -1.1330
 8307TIP3   OH246335   1.442   0.283   4.211 -0.1472 -0.0831 -0.1159
 8307TIP3    H146336   1.389   0.353   4.172  1.3025  0.8795 -0.4551
 8307TIP3    H246337   1.506   0.329   4.265  0.6999 -1.1740 -0.1567
 8308TIP3   OH246338   3.189   2.673  16.691 -0.2364  0.3017 -0.2488
 8308TIP3    H146339   3.156   2.664  16.781  1.5620 -1.1050  0.3225
 8308TIP3    H246340   3.163   2.592  16.648  3.4078 -1.5366  0.6245
 8309TIP3   OH246341   2.839   6.371  15.529 -1.2425  0.4134 -0.5213
 8309TIP3    H146342   2.757   6.333  15.560 -0.4291 -1.7604 -0.8185
 8309TIP3    H246343   2.907   6.327  15.580 -0.2378  3.6570  1.2390
 8310TIP3   OH246344   4.839   6.220   5.509  0.1441  0.0865 -0.9123
 8310TIP3    H146345   4.904   6.187   5.571 -0.3557 -3.6048 -2.1247
 8310TIP3    H246346   4.758   6.224   5.560  0.2695 -0.3336 -0.6719
 8311TIP3   OH246347   1.899   1.264  11.453 -0.0650  0.1740 -0.0754
 8311TIP3    H146348   1.859   1.195  11.506  0.6432  0.9875  1.5909
 8311TIP3    H246349   1.872   1.245  11.363 -1.3270 -1.2399  0.5781
 8312TIP3   OH246350   4.460   4.849  12.416 -0.4620  0.0845 -0.4104
 8312TIP3    H146351   4.475   4.940  12.391  1.2372 -0.4208 -1.3820
 8312TIP3    H246352   4.545   4.818  12.447 -1.2915 -0.8577  1.0515
 8313TIP3   OH246353   6.402   3.161  17.051 -0.4374 -0.1703 -0.3239
 8313TIP3    H146354   6.341   3.121  17.113  0.8811  0.2633  1.3388
 8313TIP3    H246355   6.347   3.216  16.995 -1.5499  0.6083  1.4432
 8314TIP3   OH246356   4.496   5.624  15.002  0.0674 -0.2313  0.1009
 8314TIP3    H146357   4.545   5.577  14.935  1.5859  1.5291 -0.1027
 8314TIP3    H246358   4.404   5.606  14.982  0.4984 -0.3373 -2.0233
 8315TIP3   OH246359   5.741   0.744  15.818 -0.0220  0.4901 -0.1621
 8315TIP3    H146360   5.758   0.739  15.912 -1.7318 -0.2582  0.1418
 8315TIP3    H246361   5.779   0.664  15.782 -0.2092  0.3003  0.0546
 8316TIP3   OH246362   4.038   2.013   3.903  0.8451 -0.6056 -0.2144
 8316TIP3    H146363   4.051   1.957   3.980 -1.5857  0.6453  1.2094
 8316TIP3    H246364   3.945   2.007   3.884  0.5857  2.3757 -0.3906
 8317TIP3   OH246365   0.847   2.394  14.031  0.5931 -0.1616  0.1004
 8317TIP3    H146366   0.849   2.487  14.010 -0.7826 -0.1460 -0.0360
 8317TIP3    H246367   0.762   2.364  14.000  0.9771 -1.4539  0.2305
 8318TIP3   OH246368   0.677   4.317  17.039  0.0601  0.1377 -0.1677
 8318TIP3    H146369   0.754   4.263  17.056  0.9850  1.3013 -0.5990
 8318TIP3    H246370   0.603   4.257  17.052  1.0515 -1.2261 -0.6252
 8319TIP3   OH246371   5.517   0.430  14.133  0.5795  0.1714  0.1226
 8319TIP3    H146372   5.584   0.363  14.148 -0.0831 -1.0658 -2.0192
 8319TIP3    H246373   5.438   0.393  14.173  0.4354  0.1116 -0.2153
 8320TIP3   OH246374   5.499   0.586   0.794 -0.0964  0.6504 -0.4014
 8320TIP3    H146375   5.533   0.563   0.880 -0.1325 -0.7400 -0.7301
 8320TIP3    H246376   5.576   0.615   0.745  0.2392 -0.2147 -0.4129
 8321TIP3   OH246377   0.566   5.679  15.004  0.2373  0.0958 -0.1117
 8321TIP3    H146378   0.498   5.730  15.049 -1.1043 -1.0787 -0.7397
 8321TIP3    H246379   0.609   5.630  15.074  1.8920  2.3531  0.5836
 8322TIP3   OH246380   1.239   6.061  17.111  0.5677 -0.0566 -0.7353
 8322TIP3    H146381   1.164   6.118  17.089  0.2238 -0.4657 -0.6317
 8322TIP3    H246382   1.203   5.973  17.109  1.2102 -0.3170 -1.3725
 8323TIP3   OH246383   4.633   2.317   2.104  0.4063 -0.4147 -0.0242
 8323TIP3    H146384   4.557   2.371   2.125 -1.3794 -2.6458 -0.3656
 8323TIP3    H246385   4.663   2.284   2.188 -0.0799 -0.8710 -0.0254
 8324TIP3   OH246386   3.496   3.983   5.679  0.8151 -0.3641 -0.7479
 8324TIP3    H146387   3.558   4.049   5.710  1.5970 -0.0814 -2.7843
 8324TIP3    H246388   3.410   4.020   5.698  1.2344  1.1843 -1.6773
 8325TIP3   OH246389   2.734   2.144  11.709 -0.0245  0.0370  0.8419
 8325TIP3    H146390   2.714   2.235  11.687 -0.6048 -0.2932 -0.0512
 8325TIP3    H246391   2.829   2.141  11.718 -0.0409  0.8257  1.3539
 8326TIP3   OH246392   1.554   4.243  14.847 -0.2654  0.5226  0.2275
 8326TIP3    H146393   1.615   4.318  14.850  1.2242 -0.5243 -1.7072
 8326TIP3    H246394   1.527   4.239  14.755 -2.5219  0.3272  0.8624
 8327TIP3   OH246395   0.148   4.310  14.284  0.2706 -0.3833  0.0704
 8327TIP3    H146396   0.078   4.316  14.219  0.1369  0.0335  0.2474
 8327TIP3    H246397   0.104   4.276  14.363  0.0577  0.7892  0.4746
 8328TIP3   OH246398   4.157   6.263  13.243  0.1396  0.2657  0.2231
 8328TIP3    H146399   4.081   6.302  13.199 -0.8207 -0.9976  0.7071
 8328TIP3    H246400   4.138   6.273  13.336  1.6017  1.8471  0.4087
 8329TIP3   OH246401   2.637   6.487   4.401  0.3586 -0.1217  0.8510
 8329TIP3    H146402   2.573   6.538   4.450 -1.1002 -1.3545  0.3144
 8329TIP3    H246403   2.600   6.399   4.398  0.6451 -0.2328 -1.9947
 8330TIP3   OH246404   0.007   6.268  16.044  0.0586 -0.7699  0.0046
 8330TIP3    H146405  -0.081   6.250  16.077 -0.2113 -2.9903 -1.6526
 8330TIP3    H246406  -0.007   6.316  15.963  0.3493 -1.0994 -0.2450
 8331TIP3   OH246407   1.752   2.443  14.404 -0.0584  0.5603  0.4369
 8331TIP3    H146408   1.697   2.521  14.395 -1.3983 -0.4441 -0.5734
 8331TIP3    H246409   1.722   2.385  14.334  0.2970 -1.2015  1.6781
 8332TIP3   OH246410   1.352   4.544  15.261  0.2247 -0.3938 -0.2761
 8332TIP3    H146411   1.387   4.633  15.269 -1.9332  0.5618 -0.7143
 8332TIP3    H246412   1.425   4.493  15.225  1.0280  1.5508 -1.6242
 8333TIP3   OH246413   6.652   2.452   4.640  0.3718  0.3381 -0.3760
 8333TIP3    H146414   6.609   2.527   4.680 -0.8265  0.4267 -1.7827
 8333TIP3    H246415   6.715   2.423   4.706 -0.7694  1.1424  1.1211
 8334TIP3   OH246416   6.298   6.760  14.549  0.5073 -0.2268 -0.2655
 8334TIP3    H146417   6.340   6.768  14.464  0.1605  3.6033 -0.2543
 8334TIP3    H246418   6.365   6.787  14.612 -0.8907  3.1519 -0.0120
 8335TIP3   OH246419   0.288   4.632   1.614  0.0616  0.3515  0.0013
 8335TIP3    H146420   0.300   4.540   1.589  1.8376  0.7636 -0.8607
 8335TIP3    H246421   0.226   4.629   1.687  0.3782 -1.5672  0.2571
 8336TIP3   OH246422   0.407   1.886   1.885 -0.1821  0.6946  0.6930
 8336TIP3    H146423   0.389   1.801   1.925 -1.3411 -0.9235 -2.8637
 8336TIP3    H246424   0.500   1.882   1.862 -0.5809 -0.4412 -0.9574
 8337TIP3   OH246425   6.234   2.799  15.740 -0.6179  0.2268  0.2674
 8337TIP3    H146426   6.275   2.722  15.700 -0.5199  0.8880 -0.9770
 8337TIP3    H246427   6.301   2.834  15.799  0.3025  0.7402 -1.0167
 8338TIP3   OH246428   6.164   2.403   0.802  0.0221  0.5839  0.2422
 8338TIP3    H146429   6.087   2.360   0.840  0.6948 -0.3895  0.5434
 8338TIP3    H246430   6.149   2.400   0.707  1.1288 -2.5722  0.0509
 8339TIP3   OH246431   1.638   0.038   3.695 -0.0117  0.9379 -0.2575
 8339TIP3    H146432   1.602   0.124   3.673 -0.7982  0.3134 -1.5551
 8339TIP3    H246433   1.636  -0.010   3.613  1.9233  0.1817  0.0956
 8340TIP3   OH246434   1.710   1.086  13.238  0.2200  0.8553  0.3198
 8340TIP3    H146435   1.636   1.141  13.209  0.6305  0.6760 -1.1807
 8340TIP3    H246436   1.711   1.014  13.175  0.6285 -0.0717  1.3619
 8341TIP3   OH246437   1.254   2.806  17.003 -0.6798  0.1341  0.5431
 8341TIP3    H146438   1.214   2.721  16.985 -0.0320 -0.0685  0.0294
 8341TIP3    H246439   1.347   2.787  17.014 -0.1722  1.0386 -1.7109
 8342TIP3   OH246440   6.269   3.595   3.174 -0.0491 -0.1501  0.0491
 8342TIP3    H146441   6.257   3.506   3.207  0.2043 -0.7631 -1.4321
 8342TIP3    H246442   6.355   3.594   3.131 -0.8678  0.2259 -1.7044
 8343TIP3   OH246443   1.465   1.103  15.107  0.0928 -0.0796  0.5146
 8343TIP3    H146444   1.488   1.142  15.191 -0.4562  0.0816  0.5927
 8343TIP3    H246445   1.450   1.177  15.048  0.3150 -0.1890  0.3186
 8344TIP3   OH246446   3.669   0.728  15.892  0.1411 -0.0861  0.2817
 8344TIP3    H146447   3.668   0.701  15.984  0.9071 -1.1473 -0.0039
 8344TIP3    H246448   3.750   0.777  15.882  1.6178 -2.4568 -0.4454
 8345TIP3   OH246449   5.084   5.429   5.960 -0.6265  0.2279  0.0065
 8345TIP3    H146450   5.156   5.489   5.945 -1.7734  1.5279 -0.5406
 8345TIP3    H246451   5.091   5.404   6.052 -1.2637  2.7954  0.8215
 8346TIP3   OH246452   5.160   4.489  11.628  0.9079 -0.4057  0.2226
 8346TIP3    H146453   5.089   4.452  11.575 -0.5036 -2.3100  3.2001
 8346TIP3    H246454   5.231   4.425  11.621  1.5502  0.3993 -0.9728
 8347TIP3   OH246455   2.552   1.043   1.089 -0.2913 -0.0950 -0.5504
 8347TIP3    H146456   2.462   1.051   1.121 -0.5023 -0.7523 -0.9524
 8347TIP3    H246457   2.555   1.101   1.013  0.2597  1.6018  0.7165
 8348TIP3   OH246458   4.424   3.693   0.166 -0.1568 -0.0022  0.3454
 8348TIP3    H146459   4.404   3.778   0.206  1.0933 -0.3931  1.8835
 8348TIP3    H246460   4.351   3.637   0.192 -1.4689  0.7884 -1.4482
 8349TIP3   OH246461   6.194   1.631   5.661 -0.0229  0.3610  0.2829
 8349TIP3    H146462   6.143   1.678   5.728 -0.9446  0.9817 -0.8053
 8349TIP3    H246463   6.263   1.588   5.709 -1.9584 -1.0747  1.9532
 8350TIP3   OH246464   4.318   3.305   4.974  0.3012 -0.8230  0.9112
 8350TIP3    H146465   4.331   3.395   5.002  0.6109 -1.1018  1.6732
 8350TIP3    H246466   4.350   3.304   4.883  2.3267 -0.6614  1.5776
 8351TIP3   OH246467   5.745   2.684   5.476  0.7056 -0.1297  0.1933
 8351TIP3    H146468   5.783   2.671   5.563  0.6392 -0.8136  0.1251
 8351TIP3    H246469   5.820   2.708   5.421  1.3056 -2.5742 -0.1884
 8352TIP3   OH246470   1.044   0.611  12.283 -0.1564 -0.6121  0.2027
 8352TIP3    H146471   1.120   0.635  12.336 -0.6911 -1.2730  1.2976
 8352TIP3    H246472   0.975   0.672  12.310 -0.0575 -0.0572 -0.7389
 8353TIP3   OH246473   5.551   2.664   1.020 -0.0451 -0.3108 -0.2382
 8353TIP3    H146474   5.512   2.747   0.991  0.3550  0.0487  0.2490
 8353TIP3    H246475   5.569   2.677   1.113 -0.3085 -1.0739 -0.0713
 8354TIP3   OH246476   4.466   1.660   5.192  0.5437 -0.2112  0.3518
 8354TIP3    H146477   4.418   1.734   5.155 -2.3115 -2.0452  0.1342
 8354TIP3    H246478   4.539   1.701   5.239 -0.7880  2.7218  0.0919
 8355TIP3   OH246479   5.149   2.889   1.066 -0.4627  0.4220  0.1841
 8355TIP3    H146480   5.174   2.912   1.156 -1.4888 -0.1811  0.6386
 8355TIP3    H246481   5.061   2.926   1.055 -0.5500  0.0580 -0.3979
 8356TIP3   OH246482   4.492   3.887  11.489  0.5854 -0.2669  0.2391
 8356TIP3    H146483   4.505   3.805  11.537  0.4914 -0.9730 -0.9064
 8356TIP3    H246484   4.475   3.952  11.558 -0.7718 -1.4668  1.1212
 8357TIP3   OH246485   5.089   0.304   6.581  0.5900  0.5839  0.3238
 8357TIP3    H146486   5.037   0.226   6.602 -1.8809  1.7342 -1.0710
 8357TIP3    H246487   5.050   0.338   6.501  0.8095  3.9025  1.4704
 8358TIP3   OH246488   6.401   6.162  13.675  0.1058  0.3484 -0.1017
 8358TIP3    H146489   6.474   6.112  13.710  0.0831 -0.7149 -1.4848
 8358TIP3    H246490   6.401   6.143  13.581 -1.1480  1.3533 -0.3390
 8359TIP3   OH246491   1.861   2.798   5.883 -0.2555  1.0042 -0.9632
 8359TIP3    H146492   1.924   2.806   5.812  1.4364  1.5219  0.5169
 8359TIP3    H246493   1.831   2.887   5.898 -0.9273  0.8362 -1.2998
 8360TIP3   OH246494   2.654   5.226  16.003  0.5596  0.2772  0.3464
 8360TIP3    H146495   2.741   5.188  16.014  0.2717 -0.7357 -0.7032
 8360TIP3    H246496   2.668   5.303  15.948  0.7213 -0.1875 -0.2642
 8361TIP3   OH246497   4.899   1.353  12.238 -0.2859  0.2706  0.1833
 8361TIP3    H146498   4.874   1.292  12.307 -1.6244  0.7756  0.1646
 8361TIP3    H246499   4.867   1.313  12.157  0.6599  0.0201 -0.0828
 8362TIP3   OH246500   1.367   0.262   1.924 -0.3093 -0.3409  0.1874
 8362TIP3    H146501   1.435   0.296   1.867 -0.2768 -1.3086 -0.3749
 8362TIP3    H246502   1.296   0.327   1.919  0.2820  0.3160  0.2252
 8363TIP3   OH246503   3.246   0.513   5.100  0.2985 -0.2786  0.0428
 8363TIP3    H146504   3.209   0.446   5.043  0.2232  0.3553 -0.6785
 8363TIP3    H246505   3.174   0.574   5.116  0.3435 -0.4064  0.7543
 8364TIP3   OH246506   3.843   1.505  15.408 -0.0259  1.0308  0.1403
 8364TIP3    H146507   3.824   1.510  15.314  1.2964  1.1888 -0.1379
 8364TIP3    H246508   3.934   1.476  15.413 -0.7639 -1.3365  1.4269
 8365TIP3   OH246509   4.041   3.853  16.698 -0.1678 -0.3335 -0.2201
 8365TIP3    H146510   4.101   3.781  16.678  2.1030  1.3178  0.2692
 8365TIP3    H246511   4.074   3.927  16.647 -1.2254  0.8747  0.7671
 8366TIP3   OH246512   4.244   4.337  16.335 -0.2507 -0.6753 -0.2021
 8366TIP3    H146513   4.193   4.349  16.256 -1.2079  0.8157  0.5905
 8366TIP3    H246514   4.312   4.274  16.311 -0.5305 -0.2808 -2.1810
 8367TIP3   OH246515   5.307   6.299   4.356 -0.0676  0.4783 -0.4244
 8367TIP3    H146516   5.265   6.250   4.285  1.0099  0.2085 -0.8840
 8367TIP3    H246517   5.392   6.257   4.369  0.7982  2.0681 -0.6837
 8368TIP3   OH246518   0.592   4.433   5.325 -0.0124  0.0670  0.1673
 8368TIP3    H146519   0.539   4.424   5.404  0.9725 -0.2880  0.8096
 8368TIP3    H246520   0.532   4.414   5.253 -1.2684  1.7096  0.7164
 8369TIP3   OH246521   1.760   2.819  16.206 -0.0587  1.1550  0.0872
 8369TIP3    H146522   1.836   2.876  16.197  0.0595  0.7641 -1.9861
 8369TIP3    H246523   1.707   2.859  16.275  1.3764  2.1723  0.6364
 8370TIP3   OH246524   5.334   6.472  12.998 -0.2548  0.5649 -0.5759
 8370TIP3    H146525   5.418   6.462  13.044 -0.6665 -0.4650 -0.0103
 8370TIP3    H246526   5.279   6.521  13.059 -0.2638  0.6880 -0.6826
 8371TIP3   OH246527   6.380   4.657   2.370 -0.0858  0.0994  0.7720
 8371TIP3    H146528   6.437   4.725   2.407  0.8386 -0.4664  0.4159
 8371TIP3    H246529   6.434   4.615   2.303 -1.8129  1.3604 -1.5735
 8372TIP3   OH246530   3.917   1.540   4.859  0.1120  0.4608  0.4452
 8372TIP3    H146531   3.872   1.581   4.785 -0.4175 -0.9789 -0.0626
 8372TIP3    H246532   3.872   1.456   4.871  0.0284  0.7526  2.5670
 8373TIP3   OH246533   5.538   5.159  13.355  0.3040 -0.8223 -0.4832
 8373TIP3    H146534   5.473   5.218  13.392 -0.6050 -2.0476 -0.0609
 8373TIP3    H246535   5.495   5.119  13.280  1.1753 -0.4087 -1.2232
 8374TIP3   OH246536   6.623   3.155  15.451 -0.3779 -0.3426 -0.4830
 8374TIP3    H146537   6.569   3.229  15.478  0.1453  0.2118 -0.9361
 8374TIP3    H246538   6.559   3.089  15.422 -0.8271  0.5119 -1.5366
 8375TIP3   OH246539   2.043   3.163  12.754 -0.6851 -0.0239 -0.2603
 8375TIP3    H146540   1.992   3.102  12.701 -1.6986 -0.0268  0.6715
 8375TIP3    H246541   2.030   3.249  12.714 -0.8498 -0.1326 -0.4335
 8376TIP3   OH246542   4.682   2.816   3.133 -0.4129  0.3906  0.0227
 8376TIP3    H146543   4.730   2.785   3.056 -1.2445 -0.7074 -0.0765
 8376TIP3    H246544   4.629   2.888   3.102 -0.7776 -0.0768 -0.4466
 8377TIP3   OH246545   5.168   3.395  12.260 -0.2786 -0.1995 -0.3221
 8377TIP3    H146546   5.074   3.393  12.277 -0.1670  1.0733  0.5765
 8377TIP3    H246547   5.186   3.486  12.237  0.6771 -0.5165 -0.8593
 8378TIP3   OH246548   2.340   5.259   6.114 -0.3872  0.1114  0.1727
 8378TIP3    H146549   2.248   5.260   6.087 -0.9547 -1.4647  1.8367
 8378TIP3    H246550   2.340   5.209   6.196  2.0747 -0.7303 -0.2669
 8379TIP3   OH246551   6.147   6.133  13.077 -0.0423  0.3197 -0.1707
 8379TIP3    H146552   6.146   6.207  13.017 -1.4192 -0.0227 -0.5944
 8379TIP3    H246553   6.061   6.135  13.119  0.5639  0.0110  1.1303
 8380TIP3   OH246554   2.606   5.766   6.155 -0.6228  0.2220  0.1511
 8380TIP3    H146555   2.591   5.673   6.137 -0.4289  0.1141  0.5481
 8380TIP3    H246556   2.523   5.808   6.133  0.2276  0.4209 -3.2660
 8381TIP3   OH246557   3.308   3.534  15.789  0.1822 -0.2518 -0.4702
 8381TIP3    H146558   3.213   3.524  15.789  0.1340 -0.0810 -2.1425
 8381TIP3    H246559   3.340   3.456  15.834 -0.7801  0.6090  1.8258
 8382TIP3   OH246560   5.981   6.079  15.534 -0.4291  0.2223  0.4189
 8382TIP3    H146561   5.903   6.128  15.507  0.9478  1.8068 -0.9205
 8382TIP3    H246562   6.037   6.145  15.575  0.7491 -0.6040  0.1877
 8383TIP3   OH246563   2.181   3.894   2.825 -0.1762  0.0688 -0.4323
 8383TIP3    H146564   2.104   3.908   2.770 -1.5829  0.4265  1.4991
 8383TIP3    H246565   2.182   3.799   2.841  0.6661 -0.1410 -1.6099
 8384TIP3   OH246566   6.035   3.163   5.232  0.2178 -0.2258  0.0304
 8384TIP3    H146567   6.063   3.220   5.160 -0.7622 -1.0896 -1.0717
 8384TIP3    H246568   6.101   3.093   5.234  0.2994 -0.1492  0.0513
 8385TIP3   OH246569   3.922   4.707   0.013 -0.2734 -0.1081 -0.2043
 8385TIP3    H146570   3.905   4.751  -0.070 -0.3324 -0.0787 -0.1767
 8385TIP3    H246571   4.004   4.746   0.044  0.0630 -0.5464 -0.5403
 8386TIP3   OH246572   0.040   6.114   2.851  0.7292  0.7065  0.0014
 8386TIP3    H146573  -0.033   6.062   2.883 -0.4871  2.0903 -0.4007
 8386TIP3    H246574   0.034   6.109   2.755  0.8041  1.2920 -0.0406
 8387TIP3   OH246575   0.057   3.151   4.005 -0.0497  0.9380  0.1498
 8387TIP3    H146576  -0.025   3.192   3.976 -0.8301 -0.2535  0.6006
 8387TIP3    H246577   0.031   3.092   4.075  1.1521  0.2843  0.0777
 8388TIP3   OH246578   2.408   3.802   5.532  0.1866  0.2575  0.6063
 8388TIP3    H146579   2.450   3.768   5.611  1.4240  0.6798  0.1605
 8388TIP3    H246580   2.480   3.816   5.471 -0.8257 -0.8720 -0.9238
 8389TIP3   OH246581   3.447   3.816   4.775 -0.5008  0.2356  0.1463
 8389TIP3    H146582   3.431   3.757   4.848 -0.7806 -0.4781 -0.4719
 8389TIP3    H246583   3.400   3.896   4.798  0.2645  0.3990  1.2072
 8390TIP3   OH246584   5.579   1.963   4.793 -0.1322  0.5374  0.0349
 8390TIP3    H146585   5.595   2.057   4.794  1.4318  0.2886  0.1899
 8390TIP3    H246586   5.574   1.940   4.701  4.1685  0.0985 -0.2884
 8391TIP3   OH246587   0.618   3.354   0.938  0.0924  0.4037 -0.4819
 8391TIP3    H146588   0.553   3.364   0.868  1.2867  0.2029 -1.6386
 8391TIP3    H246589   0.643   3.443   0.961 -1.5164  0.5596  0.9126
 8392TIP3   OH246590   4.190   4.946   3.839 -0.0291 -0.5279  0.0383
 8392TIP3    H146591   4.203   5.038   3.814  2.0989 -0.4132  1.3393
 8392TIP3    H246592   4.139   4.909   3.767 -2.3441  2.0221  0.2276
 8393TIP3   OH246593   4.854   6.590  16.322 -0.0782 -0.3250  0.2317
 8393TIP3    H146594   4.860   6.631  16.409  0.6937 -0.9948  0.5089
 8393TIP3    H246595   4.848   6.496  16.341  1.6535 -0.6089 -0.4560
 8394TIP3   OH246596   0.387   1.192   0.848 -0.3277  0.0473  0.2933
 8394TIP3    H146597   0.296   1.210   0.871 -0.0790  0.3389  1.0803
 8394TIP3    H246598   0.434   1.273   0.869  0.3818 -0.6301  1.4455
 8395TIP3   OH246599   0.455   3.569   2.752 -0.1311  0.1088  0.3138
 8395TIP3    H146600   0.533   3.551   2.805 -0.2842 -0.3819  0.3778
 8395TIP3    H246601   0.403   3.489   2.758  0.2632 -0.2963 -1.3005
 8396TIP3   OH246602   6.426   3.658  17.024 -0.1268  0.0711  0.5551
 8396TIP3    H146603   6.357   3.694  17.079  0.1210  0.0199  0.9037
 8396TIP3    H246604   6.384   3.588  16.974 -0.5884  0.7792 -0.0613
 8397TIP3   OH246605   5.011   1.935  14.334  0.0241 -0.3881  0.3188
 8397TIP3    H146606   4.985   1.952  14.243  1.0282 -1.6635 -0.2467
 8397TIP3    H246607   5.054   2.016  14.362 -0.5520  0.1218 -0.2293
 8398TIP3   OH246608   6.253   5.724  14.735 -0.2431 -0.6414  0.0935
 8398TIP3    H146609   6.262   5.760  14.647  1.6439 -2.7929 -0.6989
 8398TIP3    H246610   6.307   5.780  14.790  1.7391 -1.4852 -0.9000
 8399TIP3   OH246611   6.275   3.606   5.240 -0.8382 -0.2806  0.3783
 8399TIP3    H146612   6.344   3.540   5.251  1.4283  1.9029  0.1847
 8399TIP3    H246613   6.273   3.622   5.145 -0.1751  1.0414  0.5615
 8400TIP3   OH246614   5.894   0.864   0.797 -0.0387  0.6897  0.0674
 8400TIP3    H146615   5.869   0.772   0.787  0.9441  0.5834 -1.7294
 8400TIP3    H246616   5.857   0.908   0.720  1.0235  1.4489 -0.0317
 8401TIP3   OH246617   1.010   2.181   6.151  0.3210  0.7370 -0.2194
 8401TIP3    H146618   1.045   2.269   6.162 -1.4468  1.2984  1.3665
 8401TIP3    H246619   0.918   2.188   6.178  0.0842 -1.5531 -0.2375
 8402TIP3   OH246620   0.770   6.293   3.183 -0.2870  0.2937  0.7486
 8402TIP3    H146621   0.688   6.258   3.150 -0.3502  0.2966  0.9017
 8402TIP3    H246622   0.810   6.336   3.108  0.0267 -0.5342  0.4313
 8403TIP3   OH246623   5.861   2.654  12.262  0.2959 -0.2138  0.0672
 8403TIP3    H146624   5.836   2.607  12.341 -0.0781  0.7843  0.5697
 8403TIP3    H246625   5.946   2.617  12.237  0.5467 -0.3591  1.0935
 8404TIP3   OH246626   1.179   2.842  11.494  0.2307 -0.2436  0.1038
 8404TIP3    H146627   1.095   2.874  11.462  0.2471  0.2609  0.5271
 8404TIP3    H246628   1.241   2.912  11.471  0.6396 -0.8615 -0.6991
 8405TIP3   OH246629   1.595   6.275  11.503  0.4604  0.2502 -0.1345
 8405TIP3    H146630   1.518   6.273  11.446 -0.0548  0.4626  0.5461
 8405TIP3    H246631   1.648   6.201  11.474 -1.0356 -1.2722  0.8275
 8406TIP3   OH246632   2.017   5.457  11.985 -0.1825 -0.8000 -0.1097
 8406TIP3    H146633   2.092   5.513  11.964  0.2959 -1.4924 -0.3108
 8406TIP3    H246634   1.965   5.454  11.905  0.0222 -0.9887 -0.2365
 8407TIP3   OH246635   1.692   6.495   0.975 -0.4598  0.0072  0.6688
 8407TIP3    H146636   1.705   6.513   0.882  1.2720 -0.2860  0.8215
 8407TIP3    H246637   1.598   6.506   0.989 -0.7787 -0.1147 -1.1497
 8408TIP3   OH246638   5.159   3.552  15.670  0.0260 -0.1719 -0.0527
 8408TIP3    H146639   5.192   3.464  15.687  0.4050 -0.2890 -1.2415
 8408TIP3    H246640   5.229   3.594  15.620 -0.1682  0.7998  0.4717
 8409TIP3   OH246641   6.489   6.372  13.922  0.6094 -0.9620 -0.3735
 8409TIP3    H146642   6.463   6.279  13.925 -1.6028 -0.3980 -0.5132
 8409TIP3    H246643   6.466   6.400  13.834 -1.5825  0.4458  0.5866
 8410TIP3   OH246644   3.711   2.028  11.051  0.5836  0.0407  0.0408
 8410TIP3    H146645   3.696   2.036  10.957  0.6676 -0.6139 -0.0309
 8410TIP3    H246646   3.636   1.979  11.083 -0.7274  2.3626  0.7244
 8411TIP3   OH246647   0.849   5.113   4.099  0.0416  0.6320  0.1659
 8411TIP3    H146648   0.895   5.166   4.164  0.6464  1.2564 -0.7493
 8411TIP3    H246649   0.854   5.164   4.018 -1.4467  0.2629 -0.1845
 8412TIP3   OH246650   1.333   3.054  14.877 -0.2605  0.0086 -0.2786
 8412TIP3    H146651   1.418   3.050  14.921 -0.0054 -0.7280 -0.8066
 8412TIP3    H246652   1.342   3.125  14.814 -0.0044 -0.1173 -0.3870
 8413TIP3   OH246653   1.152   3.853  13.503  0.1670  0.5307  0.5927
 8413TIP3    H146654   1.084   3.903  13.547  0.1787  0.8542  0.2425
 8413TIP3    H246655   1.149   3.767  13.545  0.4424  0.9524  1.4946
 8414TIP3   OH246656   3.717   1.575  12.210 -0.3087 -0.1286  0.9903
 8414TIP3    H146657   3.783   1.603  12.274  0.1219 -1.1290  0.9951
 8414TIP3    H246658   3.640   1.629  12.231  1.0019  2.3528 -0.1354
 8415TIP3   OH246659   0.045   2.784   3.724 -0.2292  1.0328 -0.1590
 8415TIP3    H146660  -0.024   2.850   3.728  0.8300  2.1669  0.4093
 8415TIP3    H246661   0.072   2.772   3.816  1.0018  1.3859 -0.4493
 8416TIP3   OH246662   4.323   2.838   3.708 -0.1680  0.3670  0.1831
 8416TIP3    H146663   4.243   2.866   3.752 -1.3089 -1.5229 -0.5473
 8416TIP3    H246664   4.328   2.893   3.630 -0.6823  0.6222  0.3242
 8417TIP3   OH246665   3.713   4.656   1.907  0.0404  1.0059  0.5007
 8417TIP3    H146666   3.621   4.629   1.918 -0.2304  0.6043 -2.1017
 8417TIP3    H246667   3.723   4.731   1.966 -1.6776  0.5042  1.5237
 8418TIP3   OH246668   2.025   1.283   0.555 -0.7187  0.2251  0.2047
 8418TIP3    H146669   1.970   1.210   0.526 -1.9720  1.7953 -1.5686
 8418TIP3    H246670   2.022   1.279   0.651  2.0469 -4.0461  0.4123
 8419TIP3   OH246671   1.518   4.653  12.912  0.5545 -0.1530 -0.2980
 8419TIP3    H146672   1.610   4.677  12.902  0.3558  0.3424 -1.0134
 8419TIP3    H246673   1.519   4.569  12.958  1.2694  1.3257  2.6180
 8420TIP3   OH246674   2.496   0.200  14.293 -0.5051 -0.7639  0.3690
 8420TIP3    H146675   2.531   0.231  14.210  0.8116  0.5875  1.3755
 8420TIP3    H246676   2.425   0.261  14.314 -0.1061 -0.4284  0.7582
 8421TIP3   OH246677   5.334   4.889  13.901  0.4187 -0.6993 -0.2319
 8421TIP3    H146678   5.300   4.937  13.976 -0.2157  0.5651 -1.2730
 8421TIP3    H246679   5.258   4.839  13.868  0.3134 -0.1498 -0.8434
 8422TIP3   OH246680   0.956   5.962  16.095 -0.9104  0.0955  0.1958
 8422TIP3    H146681   0.919   5.897  16.155  2.7968 -2.6549 -0.1392
 8422TIP3    H246682   1.017   6.013  16.148  1.3168 -1.4022 -0.7718
 8423TIP3   OH246683   5.188   4.081  10.880  0.0507 -0.6308 -0.3251
 8423TIP3    H146684   5.243   4.143  10.832 -0.2460 -0.8500 -0.9610
 8423TIP3    H246685   5.214   4.092  10.972  0.8963 -0.4697 -0.5712
 8424TIP3   OH246686   6.194   2.218   2.316  0.1293 -0.6565  0.2273
 8424TIP3    H146687   6.124   2.238   2.378 -1.2388 -1.2329 -1.0767
 8424TIP3    H246688   6.243   2.148   2.358 -0.3049 -0.5203  0.9880
 8425TIP3   OH246689   4.066   4.525   2.869 -0.0080 -0.1922  0.4560
 8425TIP3    H146690   4.012   4.514   2.790  0.3772 -1.2995  0.3183
 8425TIP3    H246691   4.033   4.458   2.929  0.2909  0.0566  0.8994
 8426TIP3   OH246692   2.123   4.097  11.477 -0.2423 -0.2795 -0.1320
 8426TIP3    H146693   2.159   4.014  11.445 -0.4359  0.4321 -2.2897
 8426TIP3    H246694   2.200   4.148  11.502 -0.0888 -0.8423  0.5807
 8427TIP3   OH246695   4.442   3.870   3.518  0.7000  0.0648  0.3244
 8427TIP3    H146696   4.362   3.916   3.493  0.5997 -1.2273 -2.0470
 8427TIP3    H246697   4.412   3.797   3.572  0.4970  0.6028  0.9613
 8428TIP3   OH246698   1.243   2.045  12.988  0.2979  0.3422 -0.1806
 8428TIP3    H146699   1.230   2.107  12.917 -1.3324  0.4951  0.1960
 8428TIP3    H246700   1.207   1.962  12.954  2.2316 -0.3719 -0.5956
 8429TIP3   OH246701   0.575   3.015   2.395  0.2846  0.4816  0.2381
 8429TIP3    H146702   0.549   2.962   2.471  1.7719 -0.3679  0.2048
 8429TIP3    H246703   0.619   3.091   2.433 -0.4388  0.8920  0.2564
 8430TIP3   OH246704   6.551   1.374   5.726 -0.4847  0.3280 -0.1419
 8430TIP3    H146705   6.473   1.319   5.726  0.1339 -0.5899 -1.2439
 8430TIP3    H246706   6.521   1.458   5.760 -1.5119 -0.5891  1.3659
 8431TIP3   OH246707   1.206   4.265   1.310 -0.0043 -0.3181  0.4564
 8431TIP3    H146708   1.146   4.263   1.385  1.9002 -0.3145  2.0643
 8431TIP3    H246709   1.249   4.350   1.317  2.6417 -1.6350  1.4483
 8432TIP3   OH246710   1.990   1.534  10.618  0.1003 -0.3074  0.1542
 8432TIP3    H146711   1.959   1.519  10.707 -0.6699 -2.3489 -0.3961
 8432TIP3    H246712   1.917   1.579  10.575  0.2800  0.2435  0.4194
 8433TIP3   OH246713   4.761   5.150  14.076  0.0865 -0.3925  0.5248
 8433TIP3    H146714   4.852   5.175  14.092 -0.1003 -0.8744  2.6263
 8433TIP3    H246715   4.762   5.054  14.072 -0.2710 -0.3847  0.1467
 8434TIP3   OH246716   6.287   6.334   6.446  0.3323 -0.0339 -0.4750
 8434TIP3    H146717   6.282   6.305   6.537  3.5977  1.6850  0.3908
 8434TIP3    H246718   6.225   6.407   6.442  0.9423  0.5896  0.7238
 8435TIP3   OH246719   0.527   4.867   1.938 -0.3739 -0.5217 -0.0532
 8435TIP3    H146720   0.606   4.887   1.888 -0.4473  0.1496  0.0940
 8435TIP3    H246721   0.552   4.794   1.995  0.3133  0.0767  0.4191
 8436TIP3   OH246722   3.719   1.475  13.703  0.7428 -0.9194 -0.7738
 8436TIP3    H146723   3.785   1.541  13.680  0.5755 -0.0301  1.1359
 8436TIP3    H246724   3.761   1.423  13.771 -0.2697 -0.7911 -0.0399
 8437TIP3   OH246725   2.703   1.128   0.162 -0.6175  0.0827  0.0209
 8437TIP3    H146726   2.620   1.174   0.146 -0.5182  0.0915 -0.4928
 8437TIP3    H246727   2.679   1.035   0.161 -0.9737  0.1203  1.9510
 8438TIP3   OH246728   2.391   3.282  14.696  0.0717 -0.8696 -0.5098
 8438TIP3    H146729   2.298   3.267  14.713 -0.0635  0.7185  0.3977
 8438TIP3    H246730   2.394   3.371  14.661  1.4787  0.4432  2.5629
 8439TIP3   OH246731   4.812   4.076   0.696  0.3957 -0.0186  0.3643
 8439TIP3    H146732   4.793   4.138   0.766  0.5908 -0.0647  0.4564
 8439TIP3    H246733   4.790   3.990   0.734  1.9977 -0.2210  0.9273
 8440TIP3   OH246734   0.882   2.866  14.748  0.2727 -0.1146 -0.3159
 8440TIP3    H146735   0.895   2.774  14.723 -0.7333 -0.2709 -0.3331
 8440TIP3    H246736   0.907   2.915  14.670 -0.4384 -0.4636 -0.7880
 8441TIP3   OH246737   6.276   5.335   0.302  0.1253 -0.2294 -0.2323
 8441TIP3    H146738   6.307   5.274   0.369  1.3086 -0.5424 -1.0192
 8441TIP3    H246739   6.265   5.418   0.348 -0.0957 -0.6962  0.5590
 8442TIP3   OH246740   0.217   2.038   5.660 -0.0613 -0.4664  0.1686
 8442TIP3    H146741   0.284   2.103   5.681 -1.3712  0.6463  1.1212
 8442TIP3    H246742   0.233   1.967   5.722  0.4541 -0.3767  0.1453
 8443TIP3   OH246743   6.041   2.296   4.720 -0.5390  0.3847 -0.1165
 8443TIP3    H146744   6.094   2.224   4.686  0.0704  0.7005  0.1547
 8443TIP3    H246745   5.982   2.319   4.647  0.4202  0.7361 -0.7941
 8444TIP3   OH246746   2.366   0.134   1.676  0.6149  0.1347 -0.8695
 8444TIP3    H146747   2.346   0.090   1.593 -1.0614 -0.2933 -0.2761
 8444TIP3    H246748   2.283   0.134   1.724  1.6356 -0.0322  1.0032
 8445TIP3   OH246749   3.691   5.204  13.725 -0.1292  1.1652  0.2667
 8445TIP3    H146750   3.662   5.250  13.804 -1.6798  0.1458  0.3367
 8445TIP3    H246751   3.612   5.161  13.692  1.0952 -0.9474 -0.1050
 8446TIP3   OH246752   2.880   4.906   3.031  0.1743  1.0497 -0.1647
 8446TIP3    H146753   2.856   4.870   2.945 -1.1843  1.6636 -0.0773
 8446TIP3    H246754   2.901   4.829   3.084 -0.9921  0.4967 -0.4691
 8447TIP3   OH246755   6.391   1.264   2.138  0.2291 -0.1542 -0.1959
 8447TIP3    H146756   6.367   1.219   2.057 -1.2621 -0.6725  0.4949
 8447TIP3    H246757   6.451   1.204   2.182 -4.5164 -3.6174  2.5100
 8448TIP3   OH246758   2.640   6.322   0.596  0.0590  0.9164  0.9934
 8448TIP3    H146759   2.669   6.347   0.508  0.8395 -2.1577  0.2664
 8448TIP3    H246760   2.688   6.380   0.655 -0.1585  2.7542 -0.5406
 8449TIP3   OH246761   3.384   5.262  16.263  0.2014  0.3985  0.0867
 8449TIP3    H146762   3.363   5.246  16.171  0.5365 -1.0388  0.2358
 8449TIP3    H246763   3.468   5.219  16.276 -0.0365  0.2268  1.1602
 8450TIP3   OH246764   4.079   3.482   5.111 -0.6413 -0.5034  0.2178
 8450TIP3    H146765   4.079   3.391   5.140 -0.4916 -0.6376 -0.2013
 8450TIP3    H246766   3.994   3.517   5.140 -2.2456 -1.7417 -2.6181
 8451TIP3   OH246767   2.377   6.381  12.288 -0.1269  0.1881 -0.3708
 8451TIP3    H146768   2.445   6.374  12.221  2.1775 -0.0983  1.8545
 8451TIP3    H246769   2.408   6.450  12.347 -1.3035 -0.5438  1.1806
 8452TIP3   OH246770   2.214   0.631   4.111 -0.0831  0.3312  0.2704
 8452TIP3    H146771   2.234   0.538   4.106 -0.0644  0.3725 -0.6237
 8452TIP3    H246772   2.162   0.641   4.190 -0.4876 -0.5099  0.1139
 8453TIP3   OH246773   1.221   6.206  15.318 -0.0851  0.2981 -0.1603
 8453TIP3    H146774   1.237   6.272  15.251  1.1679  0.8575  0.6425
 8453TIP3    H246775   1.297   6.212  15.376 -0.7294 -0.7413  0.8394
 8454TIP3   OH246776   0.982   2.299  16.126  0.0552 -0.2167  0.0624
 8454TIP3    H146777   1.057   2.342  16.168 -0.5880  1.9775 -0.8688
 8454TIP3    H246778   1.006   2.294  16.034 -0.4799 -0.5658 -0.0628
 8455TIP3   OH246779   5.826   3.440   2.208  0.5338  0.4408  0.5650
 8455TIP3    H146780   5.846   3.411   2.119 -0.5534 -1.7488  0.9574
 8455TIP3    H246781   5.735   3.415   2.221  0.6995  0.6453  2.3193
 8456TIP3   OH246782   3.518   2.379   0.622 -0.1591 -0.0219  0.3031
 8456TIP3    H146783   3.474   2.312   0.569  0.8729 -0.2648 -0.2692
 8456TIP3    H246784   3.555   2.330   0.696  0.6914 -0.1138 -0.1745
 8457TIP3   OH246785   2.101   3.658  12.979  0.0970 -0.2685  0.2208
 8457TIP3    H146786   2.052   3.731  12.940  0.3408 -0.2274 -0.0064
 8457TIP3    H246787   2.159   3.628  12.910 -0.3701 -1.0236  0.1373
 8458TIP3   OH246788   1.031   1.164  16.849  0.3169 -0.2445 -0.3456
 8458TIP3    H146789   1.081   1.245  16.842 -0.2106  0.3141  1.6677
 8458TIP3    H246790   0.949   1.190  16.891 -0.4946 -1.5947 -1.0307
 8459TIP3   OH246791   2.949   3.597  12.171 -0.2199 -0.0229  0.2227
 8459TIP3    H146792   3.032   3.643  12.156  0.7000 -1.6098  0.2769
 8459TIP3    H246793   2.964   3.508  12.139 -1.3308 -0.8282  1.7837
 8460TIP3   OH246794   1.334   2.797  14.456 -0.1837  0.1809  0.0958
 8460TIP3    H146795   1.277   2.806  14.532 -2.1322  0.6900 -1.3126
 8460TIP3    H246796   1.316   2.876  14.404  1.3340  0.0119 -0.7457
 8461TIP3   OH246797   5.188   3.917   3.146 -0.1031 -0.3557 -0.0552
 8461TIP3    H146798   5.128   3.950   3.079  0.1036  1.0078  0.4054
 8461TIP3    H246799   5.150   3.947   3.229  0.7931 -0.1659  0.2940
 8462TIP3   OH246800   4.116   3.610  14.642 -0.2118  0.9691  0.1438
 8462TIP3    H146801   4.187   3.664  14.676 -0.2352  0.7040  0.6170
 8462TIP3    H246802   4.144   3.588  14.553  1.3982 -0.9558  1.0241
 8463TIP3   OH246803   3.612   0.182   3.134 -0.2607  0.1737 -0.4136
 8463TIP3    H146804   3.613   0.128   3.055 -2.4566  0.3670 -0.6295
 8463TIP3    H246805   3.519   0.189   3.158  0.0897  2.4611  0.5712
 8464TIP3   OH246806   4.429   6.755   0.691 -0.1903  0.0410  0.0893
 8464TIP3    H146807   4.340   6.779   0.666 -0.0237 -0.5545 -1.1380
 8464TIP3    H246808   4.480   6.762   0.610  1.3019  2.1747  1.1199
 8465TIP3   OH246809   6.201   4.664   2.650  0.0752  0.2904 -0.1566
 8465TIP3    H146810   6.138   4.664   2.722  0.1220  0.9118 -0.1098
 8465TIP3    H246811   6.146   4.668   2.571  0.0376  2.4653 -0.0932
 8466TIP3   OH246812   1.730   4.049   0.314  0.4479 -0.0264 -0.4965
 8466TIP3    H146813   1.790   4.112   0.275  1.8248 -0.2954  1.1024
 8466TIP3    H246814   1.782   4.002   0.379 -1.6565  0.2130  1.4873
 8467TIP3   OH246815   6.127   3.748  11.413  0.5435 -0.1459  0.4173
 8467TIP3    H146816   6.055   3.745  11.477 -0.3077 -2.4226 -0.5430
 8467TIP3    H246817   6.187   3.679  11.441  1.9115  1.0868  0.6364
 8468TIP3   OH246818   6.746   6.228   4.849 -0.4808  0.3948  0.2349
 8468TIP3    H146819   6.714   6.139   4.844 -0.8408  0.5464 -0.2475
 8468TIP3    H246820   6.781   6.246   4.761 -1.5832  1.1570 -0.0771
 8469TIP3   OH246821   1.475   2.543   2.444 -0.2076  0.4414  0.6541
 8469TIP3    H146822   1.427   2.492   2.510 -0.9654 -0.2416 -0.3962
 8469TIP3    H246823   1.546   2.583   2.493  0.2657 -1.4152  1.5860
 8470TIP3   OH246824   2.242   0.221   5.333  0.3494 -0.4605  0.0996
 8470TIP3    H146825   2.221   0.141   5.284  2.3406 -0.5088 -0.7909
 8470TIP3    H246826   2.178   0.285   5.303  1.4737 -0.4899 -2.6840
 8471TIP3   OH246827   5.793   5.677  14.162  0.0585  0.1266 -0.2115
 8471TIP3    H146828   5.845   5.651  14.086  1.8836  2.7702  0.0147
 8471TIP3    H246829   5.855   5.681  14.234 -1.3510 -0.8424  1.1326
 8472TIP3   OH246830   1.596   4.895   3.520 -0.0581  0.0762  0.2733
 8472TIP3    H146831   1.571   4.803   3.514  0.4675 -0.0746  0.3081
 8472TIP3    H246832   1.640   4.903   3.604 -0.3534  0.4258  0.3969
 8473TIP3   OH246833   2.990   6.500   4.263  0.4625 -0.0436 -0.6476
 8473TIP3    H146834   2.977   6.496   4.357 -0.1653 -0.5854 -0.7519
 8473TIP3    H246835   2.931   6.569   4.233 -0.6098 -1.0195 -0.8457
 8474TIP3   OH246836   6.074   5.596  16.532 -0.0924 -0.1820 -0.4700
 8474TIP3    H146837   6.115   5.510  16.528 -2.1843 -1.2044 -1.5073
 8474TIP3    H246838   6.115   5.639  16.607  0.6180 -2.2766  0.4027
 8475TIP3   OH246839   3.314   5.699   3.429 -0.1212  0.9883 -0.7333
 8475TIP3    H146840   3.378   5.770   3.432 -0.3219  1.1733 -0.7528
 8475TIP3    H246841   3.258   5.721   3.354  0.9173 -0.1505 -1.8706
 8476TIP3   OH246842   5.320   6.074  15.797 -0.1392  0.3311  0.1461
 8476TIP3    H146843   5.302   6.035  15.711  2.5893 -1.3911  0.2389
 8476TIP3    H246844   5.354   6.161  15.778 -0.1941  0.2216 -0.4768
 8477TIP3   OH246845   1.898   0.350  15.533 -0.6166 -0.2278 -0.6956
 8477TIP3    H146846   1.956   0.391  15.469 -0.2724  0.1793 -0.1410
 8477TIP3    H246847   1.915   0.256  15.525 -0.8277 -0.2068 -1.4286
 8478TIP3   OH246848   6.109   5.544  11.743  0.8714  1.0324 -0.1445
 8478TIP3    H146849   6.014   5.546  11.754  0.6062  0.0569 -1.9324
 8478TIP3    H246850   6.135   5.636  11.747 -0.1320  1.3132  0.3695
 8479TIP3   OH246851   0.890   2.907  11.396  0.3402 -1.1039  0.1193
 8479TIP3    H146852   0.798   2.899  11.369  0.2230 -2.0846  0.7592
 8479TIP3    H246853   0.936   2.936  11.318 -0.3010 -1.9874 -0.6051
 8480TIP3   OH246854   5.223   0.940  11.755 -0.2322  0.1506  0.2879
 8480TIP3    H146855   5.193   1.018  11.709  0.3419  0.1679 -0.0715
 8480TIP3    H246856   5.229   0.873  11.687 -1.6352 -0.4883  0.7537
 8481TIP3   OH246857   2.877   0.293  16.749  0.3042  0.3519 -0.5274
 8481TIP3    H146858   2.852   0.211  16.791 -1.5886  0.9745 -0.3147
 8481TIP3    H246859   2.825   0.360  16.794  2.0056  1.7333 -0.4973
 8482TIP3   OH246860   4.983   5.935   1.059 -0.0684 -0.4463 -0.1162
 8482TIP3    H146861   5.046   5.897   0.998  0.6516  0.1799  0.2299
 8482TIP3    H246862   4.944   5.859   1.103  1.0877 -0.8087  0.3017
 8483TIP3   OH246863   6.294   2.049  13.153 -0.4938 -0.6479  0.2141
 8483TIP3    H146864   6.235   2.097  13.211  0.1564 -1.0365  1.2216
 8483TIP3    H246865   6.244   1.973  13.125  0.0721 -1.9762  2.5393
 8484TIP3   OH246866   6.356   3.340  13.402  0.0319  1.0936 -0.4560
 8484TIP3    H146867   6.429   3.385  13.442 -0.3410  2.0414 -0.8007
 8484TIP3    H246868   6.278   3.379  13.442 -0.3033 -0.2556  0.2886
 8485TIP3   OH246869   0.193   6.458   3.144  0.1563 -0.6360  0.0878
 8485TIP3    H146870   0.179   6.522   3.075 -0.2920 -0.3637  0.4192
 8485TIP3    H246871   0.242   6.506   3.211 -0.8859 -0.3812  0.6925
 8486TIP3   OH246872   6.453   0.409   4.909 -0.3405 -0.3310  0.2888
 8486TIP3    H146873   6.383   0.457   4.865 -0.4819 -0.9964 -0.2393
 8486TIP3    H246874   6.411   0.327   4.937  0.0297 -0.3852  0.7000
 8487TIP3   OH246875   1.766   6.327   1.404  0.5853 -0.0811 -0.2521
 8487TIP3    H146876   1.751   6.309   1.312 -2.0768 -0.0510  0.1197
 8487TIP3    H246877   1.853   6.290   1.421  0.5665 -1.3168 -2.4368
 8488TIP3   OH246878   5.776   2.438   0.739  0.2556 -0.0366 -0.7539
 8488TIP3    H146879   5.760   2.428   0.645 -0.8671  2.8212 -0.9373
 8488TIP3    H246880   5.690   2.456   0.777  0.8586 -0.0641  0.6889
 8489TIP3   OH246881   2.582   0.498   4.750 -0.4375  0.1434 -0.3727
 8489TIP3    H146882   2.586   0.420   4.806 -0.7684 -0.0259 -0.5783
 8489TIP3    H246883   2.670   0.505   4.713 -0.5322 -0.4093 -0.7189
 8490TIP3   OH246884   0.859   5.724  14.664 -0.2161 -0.3455 -0.5111
 8490TIP3    H146885   0.770   5.705  14.634 -0.3946 -0.1284 -0.1206
 8490TIP3    H246886   0.849   5.746  14.756  0.4315 -1.7938 -0.0728
 8491TIP3   OH246887   6.157   5.071   4.777 -0.6037  0.0233 -0.2936
 8491TIP3    H146888   6.063   5.070   4.762 -0.5997 -1.6979 -0.3069
 8491TIP3    H246889   6.193   5.013   4.710  0.4059  0.1901  0.0879
 8492TIP3   OH246890   5.464   4.507  12.216 -0.4547  0.1055 -0.2392
 8492TIP3    H146891   5.423   4.520  12.301 -0.8245  0.5255 -0.4787
 8492TIP3    H246892   5.555   4.532  12.229 -0.4317 -0.1524  0.1154
 8493TIP3   OH246893   1.783   1.155  12.963  0.1626 -0.0136 -0.6715
 8493TIP3    H146894   1.821   1.201  12.888  1.9265  0.4004  0.4295
 8493TIP3    H246895   1.752   1.224  13.021  0.8165 -0.2572 -0.0197
 8494TIP3   OH246896   2.917   1.060  15.146 -0.1344  0.3604 -0.0711
 8494TIP3    H146897   2.905   1.044  15.240 -0.0039 -0.3507 -0.1671
 8494TIP3    H246898   2.838   1.024  15.106 -0.2587  0.8004 -0.2238
 8495TIP3   OH246899   0.372   0.295   1.792 -0.0576  0.0747 -0.5627
 8495TIP3    H146900   0.411   0.230   1.850  1.5704  2.0078  0.6610
 8495TIP3    H246901   0.297   0.250   1.752  0.2026 -2.0959  1.1939
 8496TIP3   OH246902   2.570   5.736   0.454 -0.1357  0.1323  0.6164
 8496TIP3    H146903   2.647   5.792   0.452  0.6523 -0.9434 -0.7015
 8496TIP3    H246904   2.605   5.647   0.447 -1.5051 -0.3546 -0.5257
 8497TIP3   OH246905   3.297   6.683  14.305 -0.0835  0.7994 -0.1802
 8497TIP3    H146906   3.232   6.749  14.279 -0.5307  0.8070  0.9270
 8497TIP3    H246907   3.264   6.601  14.267 -0.1114  1.0123 -0.6225
 8498TIP3   OH246908   6.339   2.343   2.879  0.2246  0.0715 -0.1828
 8498TIP3    H146909   6.358   2.322   2.788  3.2418 -1.5250  0.6533
 8498TIP3    H246910   6.277   2.416   2.875  1.7302  1.3852 -3.5343
 8499TIP3   OH246911   5.117   6.425   0.297 -0.5200 -0.4533  0.1116
 8499TIP3    H146912   5.112   6.349   0.239  0.1490 -0.8224  0.5238
 8499TIP3    H246913   5.034   6.425   0.344 -0.6802 -0.6996 -0.1676
 8500TIP3   OH246914   5.444   4.329   1.992  0.1352 -0.0028 -0.1748
 8500TIP3    H146915   5.487   4.400   1.945 -0.7113 -0.0310 -1.0352
 8500TIP3    H246916   5.413   4.369   2.073  3.3532 -0.4130  1.4090
 8501TIP3   OH246917   1.465   1.443   1.552  0.9551 -0.2507  0.0960
 8501TIP3    H146918   1.444   1.446   1.459  3.0061 -1.9713 -0.4967
 8501TIP3    H246919   1.398   1.385   1.589  0.7314 -0.3768 -0.4888
 8502TIP3   OH246920   0.823   1.066  16.175  0.1014 -0.0049  0.2788
 8502TIP3    H146921   0.862   1.045  16.090 -1.0627 -2.0278  0.1864
 8502TIP3    H246922   0.898   1.082  16.232  0.9300  2.8622 -1.3588
 8503TIP3   OH246923   5.371   0.941  12.979  0.2114  0.7086 -0.1023
 8503TIP3    H146924   5.397   1.030  13.002  0.0524  0.7734 -0.1742
 8503TIP3    H246925   5.352   0.899  13.064 -0.8669  1.0997 -0.1388
 8504TIP3   OH246926   2.561   6.576  12.480  0.4741  0.1946 -0.5739
 8504TIP3    H146927   2.610   6.521  12.541  0.5948  0.1153 -0.7426
 8504TIP3    H246928   2.469   6.561  12.502  0.4669 -0.6912 -1.1418
 8505TIP3   OH246929   1.130   5.526  15.364  0.1906 -0.1982  0.1867
 8505TIP3    H146930   1.071   5.563  15.430 -0.2700 -1.3913  0.4857
 8505TIP3    H246931   1.079   5.456  15.323  1.5306 -1.5788  0.7717
 8506TIP3   OH246932   0.780   2.876   3.788  0.3768 -0.3639  0.0642
 8506TIP3    H146933   0.792   2.785   3.761  0.2448 -0.0990 -0.9607
 8506TIP3    H246934   0.866   2.916   3.777  0.0683  0.0225 -1.1380
 8507TIP3   OH246935   0.026   3.899  14.680  0.2341  0.0261 -0.6456
 8507TIP3    H146936  -0.029   3.833  14.637 -1.0910 -0.3933  1.5300
 8507TIP3    H246937   0.029   3.972  14.618 -0.8835 -0.8567 -1.7913
 8508TIP3   OH246938   3.900   2.927   2.447 -0.0972 -0.5116  0.0668
 8508TIP3    H146939   3.982   2.915   2.399 -0.2151 -0.1183 -0.2388
 8508TIP3    H246940   3.885   2.842   2.489 -0.5445 -1.2376 -1.4709
 8509TIP3   OH246941   5.470   0.248   2.234  0.0871  0.4348  0.7037
 8509TIP3    H146942   5.433   0.204   2.311 -0.4703  1.0708  0.8047
 8509TIP3    H246943   5.487   0.177   2.172  0.2521 -0.0490  1.2884
 8510TIP3   OH246944   1.292   1.831  15.569  0.1863 -0.2641 -0.3751
 8510TIP3    H146945   1.311   1.763  15.633 -0.4386  0.7876  0.9712
 8510TIP3    H246946   1.345   1.905  15.596 -1.0949  0.6452 -0.2478
 8511TIP3   OH246947   0.222   6.283   6.159  0.6167 -0.1152 -0.2698
 8511TIP3    H146948   0.187   6.304   6.072  0.0001  0.5091  0.1123
 8511TIP3    H246949   0.153   6.232   6.201  1.3307 -1.3044 -0.5001
 8512TIP3   OH246950   3.155   1.537  16.025  0.3787 -0.3934  0.0768
 8512TIP3    H146951   3.233   1.541  16.080 -0.0956  0.6521  0.7084
 8512TIP3    H246952   3.093   1.597  16.067 -1.9162 -3.3771  1.3510
 8513TIP3   OH246953   0.511   0.709  16.818  0.4111 -0.0563  0.6416
 8513TIP3    H146954   0.484   0.642  16.755  0.8946 -0.0849  0.4667
 8513TIP3    H246955   0.520   0.661  16.901  0.1604 -0.0913  0.6498
 8514TIP3   OH246956   4.381   2.547  13.725  0.0208 -0.1386 -1.0744
 8514TIP3    H146957   4.358   2.500  13.645 -1.2986 -2.5031  0.5750
 8514TIP3    H246958   4.309   2.608  13.739 -0.3224 -0.5425 -1.0799
 8515TIP3   OH246959   5.984   0.773   0.040 -0.0622  0.0613  0.2388
 8515TIP3    H146960   5.939   0.779  -0.044 -0.9510  1.0040  0.7600
 8515TIP3    H246961   6.074   0.751   0.018 -0.3550  0.0081 -0.9370
 8516TIP3   OH246962   6.505   0.128  12.844  0.1312 -0.1090 -0.0292
 8516TIP3    H146963   6.502   0.111  12.749 -0.1090 -0.0686 -0.0286
 8516TIP3    H246964   6.418   0.106  12.875 -0.7696  2.7300 -0.2923
 8517TIP3   OH246965   1.822   1.213   1.995 -0.0623  0.5708 -0.4180
 8517TIP3    H146966   1.901   1.158   1.992  0.5630  1.4051  0.2264
 8517TIP3    H246967   1.848   1.288   2.048 -1.3815  0.7340  0.0170
 8518TIP3   OH246968   2.407   2.760  16.629 -0.2625  0.4897 -0.0532
 8518TIP3    H146969   2.457   2.692  16.585  0.4833 -0.3007  1.9272
 8518TIP3    H246970   2.463   2.838  16.624  0.2513  0.1501  0.3419
 8519TIP3   OH246971   5.099   5.017  11.168  0.2056 -0.5110 -0.1525
 8519TIP3    H146972   5.099   5.109  11.193 -1.5807 -0.1258 -1.3465
 8519TIP3    H246973   5.122   5.018  11.075  0.2454 -1.2722 -0.1516
 8520TIP3   OH246974   0.059   4.262  13.464 -0.4037  0.2557  0.3153
 8520TIP3    H146975   0.078   4.355  13.460  1.3631 -0.1242 -1.2607
 8520TIP3    H246976   0.069   4.230  13.374 -0.1398 -1.5869  0.9410
 8521TIP3   OH246977   3.879   2.775   3.477 -0.5199 -0.8174 -0.4346
 8521TIP3    H146978   3.882   2.741   3.566 -0.9163 -0.2358 -0.1867
 8521TIP3    H246979   3.901   2.701   3.421 -1.7437 -1.5786  0.0551
 8522TIP3   OH246980   4.236   2.474  14.476 -0.3015 -0.2079 -0.2918
 8522TIP3    H146981   4.291   2.493  14.552 -0.6183 -0.0475 -0.1001
 8522TIP3    H246982   4.182   2.552  14.464  0.0115 -0.0822 -0.9187
 8523TIP3   OH246983   3.514   1.823  14.985 -0.2724 -0.4114  0.4719
 8523TIP3    H146984   3.447   1.807  15.053 -1.2321  0.6702 -0.1705
 8523TIP3    H246985   3.466   1.868  14.916  1.5831  2.7053  1.0251
 8524TIP3   OH246986   3.035   2.633   5.322 -0.7798  0.1591  0.0883
 8524TIP3    H146987   3.007   2.616   5.412 -1.0875  2.1606  0.4083
 8524TIP3    H246988   3.127   2.658   5.330  0.1961 -2.8188 -0.5649
 8525TIP3   OH246989   0.203   3.782  14.078  0.8143 -0.6094 -0.6770
 8525TIP3    H146990   0.148   3.723  14.129 -0.9264  0.5660 -1.0875
 8525TIP3    H246991   0.208   3.862  14.131  0.4683 -0.0082 -1.5266
 8526TIP3   OH246992   4.618   1.386  11.299  0.2088  0.0922  0.1495
 8526TIP3    H146993   4.670   1.306  11.292 -1.9958 -1.5387  1.3062
 8526TIP3    H246994   4.641   1.422  11.384 -1.5957 -1.5045  1.3927
 8527TIP3   OH246995   2.526   1.019  16.083  0.0861 -0.7985 -0.1275
 8527TIP3    H146996   2.582   1.025  16.006 -0.5471  1.9903 -0.4776
 8527TIP3    H246997   2.442   0.988  16.048 -0.0422 -0.0641 -0.4925
 8528TIP3   OH246998   5.843   1.926  16.357  0.9956 -0.2752  0.4491
 8528TIP3    H146999   5.854   1.879  16.439  2.9222 -0.1887  0.2762
 8528TIP3    H247000   5.908   1.887  16.298 -0.1194 -0.1127 -0.9560
 8529TIP3   OH247001   3.117   3.744  12.934  0.2295 -0.2206  0.0960
 8529TIP3    H147002   3.184   3.802  12.897 -0.9835  0.1837 -1.5658
 8529TIP3    H247003   3.059   3.802  12.983  0.1986 -0.3348  0.1954
 8530TIP3   OH247004   4.812   6.532   1.888  0.3008 -0.5649 -0.1144
 8530TIP3    H147005   4.727   6.538   1.930 -0.3682  1.0932 -1.5684
 8530TIP3    H247006   4.874   6.518   1.960 -1.2653 -3.3012  0.8423
 8531TIP3   OH247007   6.654   5.829   0.512  0.3273 -0.0385 -0.1128
 8531TIP3    H147008   6.699   5.891   0.570  1.4324 -1.9697  1.1945
 8531TIP3    H247009   6.724   5.780   0.470 -0.5130 -1.7400  0.3938
 8532TIP3   OH247010   3.410   3.430   0.135 -0.0552  0.1215 -0.6958
 8532TIP3    H147011   3.388   3.500   0.196  0.3598 -0.1170 -0.2612
 8532TIP3    H247012   3.455   3.364   0.189  2.2001  0.8127 -1.5967
 8533TIP3   OH247013   2.827   2.184  11.217 -0.4886  0.4681  0.2789
 8533TIP3    H147014   2.746   2.235  11.226 -0.6112  0.6167 -1.4023
 8533TIP3    H247015   2.815   2.133  11.137 -0.3014 -2.1780  1.8391
 8534TIP3   OH247016   6.732   0.052  11.179 -0.6506 -0.1687 -0.3025
 8534TIP3    H147017   6.757   0.143  11.197  0.9993 -0.6916  0.2618
 8534TIP3    H247018   6.661   0.058  11.115  0.3126  1.4875 -1.2746
 8535TIP3   OH247019   2.646   4.224   1.788 -0.3308 -0.5799 -0.5022
 8535TIP3    H147020   2.628   4.130   1.792  2.4256 -1.2158 -0.9238
 8535TIP3    H247021   2.618   4.257   1.873  0.0626 -2.0956  0.2587
 8536TIP3   OH247022   0.925   2.565  12.518 -0.1062  0.3961  0.2871
 8536TIP3    H147023   1.008   2.561  12.567  0.2431 -1.7697 -0.3656
 8536TIP3    H247024   0.939   2.633  12.453  0.8747  0.6087  0.6959
 8537TIP3   OH247025   2.237   5.952  16.610  0.2107 -0.3774  0.3674
 8537TIP3    H147026   2.188   6.004  16.546 -3.1367 -0.2920  2.7755
 8537TIP3    H247027   2.253   6.012  16.683  2.1030 -1.0369  0.5504
 8538TIP3   OH247028   1.220   1.394  14.805 -0.0385 -0.1349 -0.3323
 8538TIP3    H147029   1.141   1.382  14.858  0.2276 -0.7250 -0.0658
 8538TIP3    H247030   1.195   1.461  14.741 -0.8988 -0.6260 -0.5286
 8539TIP3   OH247031   4.219   0.914   1.002 -0.1996  0.0824 -0.3665
 8539TIP3    H147032   4.306   0.948   1.023  1.4034 -3.2464 -0.9372
 8539TIP3    H247033   4.178   0.900   1.087 -0.4346  2.0668 -0.0975
 8540TIP3   OH247034   2.195   5.127   6.341 -0.0697  0.9748 -0.7634
 8540TIP3    H147035   2.107   5.151   6.369 -0.8414  0.3664 -2.5402
 8540TIP3    H247036   2.199   5.031   6.351 -1.1346  0.3991 -4.4587
 8541TIP3   OH247037   3.831   4.927  14.105  0.0616  0.3805  0.7456
 8541TIP3    H147038   3.857   5.007  14.150  1.5159 -0.4648  1.4766
 8541TIP3    H247039   3.745   4.906  14.141 -0.7598  2.0782 -0.1268
 8542TIP3   OH247040   4.095   1.057  10.945  0.2808  0.1121  0.5929
 8542TIP3    H147041   4.013   1.104  10.961 -0.2772 -0.1739 -1.1260
 8542TIP3    H247042   4.087   0.977  10.996 -0.9324 -0.3197 -0.2176
 8543TIP3   OH247043   3.751   3.164  13.363  0.0889 -0.0309 -0.4219
 8543TIP3    H147044   3.721   3.212  13.286  1.0688  0.5234 -0.4761
 8543TIP3    H247045   3.740   3.225  13.435  0.6849  0.0412 -0.3832
 8544TIP3   OH247046   2.594   5.811   4.048 -0.0553  0.1479  0.9192
 8544TIP3    H147047   2.550   5.862   3.979 -0.6274 -0.1125  1.0886
 8544TIP3    H247048   2.687   5.832   4.037  0.1169 -1.3606 -1.1985
 8545TIP3   OH247049   3.656   0.901   0.486 -0.6492  0.6212  0.1641
 8545TIP3    H147050   3.570   0.862   0.503 -0.8418 -0.4340 -2.6795
 8545TIP3    H247051   3.718   0.841   0.528 -1.1526 -0.6541 -0.8540
 8546TIP3   OH247052   2.991   5.129   1.040 -0.6980 -0.5578 -0.3372
 8546TIP3    H147053   2.904   5.171   1.040  0.0195  1.0096  0.4486
 8546TIP3    H247054   2.975   5.041   1.075 -2.3714 -1.3171 -2.7435
 8547TIP3   OH247055   1.494   0.614  16.970  0.0679  0.2165 -0.6320
 8547TIP3    H147056   1.414   0.621  16.918 -1.3492 -0.1559  1.3790
 8547TIP3    H247057   1.504   0.520  16.985  0.3592  0.3333 -0.0838
 8548TIP3   OH247058   1.154   3.542  15.461 -0.2887  0.4618  0.3337
 8548TIP3    H147059   1.237   3.574  15.425 -0.7847  0.4741 -0.8394
 8548TIP3    H247060   1.094   3.544  15.387 -1.2436  0.0961  1.0848
 8549TIP3   OH247061   3.429   4.944  14.952 -0.5293  0.1763  0.2230
 8549TIP3    H147062   3.373   4.910  15.022  0.2525 -0.7666  0.4117
 8549TIP3    H247063   3.495   4.996  14.997  1.3677 -2.2946  0.4849
 8550TIP3   OH247064   4.717   0.440  16.240 -0.1307  0.3852 -0.2402
 8550TIP3    H147065   4.660   0.485  16.302 -0.0975 -0.0946  0.1497
 8550TIP3    H247066   4.727   0.352  16.277 -0.4950 -0.0570 -1.1821
 8551TIP3   OH247067   3.373   5.992   3.929 -0.0830 -0.5472  0.3981
 8551TIP3    H147068   3.294   6.030   3.891 -0.5486  0.1981  2.0361
 8551TIP3    H247069   3.402   6.057   3.994  0.4454 -1.9237  1.5864
 8552TIP3   OH247070   5.917   3.730  14.957 -0.4252  0.2547  0.3270
 8552TIP3    H147071   5.867   3.780  14.892 -0.4248 -0.5300 -0.3012
 8552TIP3    H247072   5.922   3.642  14.920 -0.0064 -0.0895  1.1762
 8553TIP3   OH247073   3.014   1.795  16.072 -0.0271 -0.0476 -0.6385
 8553TIP3    H147074   3.009   1.841  15.988  0.6701  0.7862 -0.2404
 8553TIP3    H247075   3.095   1.827  16.112  0.6538 -1.8684 -0.4674
 8554TIP3   OH247076   3.077   2.124   0.582  0.0682  0.7203 -0.2469
 8554TIP3    H147077   3.066   2.213   0.617  0.1547  0.6696 -0.0940
 8554TIP3    H247078   3.147   2.086   0.634  0.7520  0.9194 -0.9943
 8555TIP3   OH247079   3.213   4.277   2.806  0.6559 -0.1584 -0.1849
 8555TIP3    H147080   3.210   4.188   2.772 -1.8328  0.1435 -0.9042
 8555TIP3    H247081   3.123   4.308   2.803  1.3477  2.1836  0.6317
 8556TIP3   OH247082   2.206   6.714  13.469  0.6889 -0.4809 -0.2518
 8556TIP3    H147083   2.142   6.776  13.506 -0.3582 -2.8140  2.2209
 8556TIP3    H247084   2.263   6.693  13.543  0.8523 -2.5894 -0.9328
 8557TIP3   OH247085   3.336   4.097   3.568  0.1055 -0.0304  0.0065
 8557TIP3    H147086   3.374   4.084   3.482 -1.2639  0.8768 -0.7753
 8557TIP3    H247087   3.244   4.070   3.559 -0.7407  2.4233  0.4262
 8558TIP3   OH247088   3.217   1.653   3.631 -0.4972 -0.5973 -0.4441
 8558TIP3    H147089   3.134   1.612   3.606 -1.0962 -0.0784  0.6563
 8558TIP3    H247090   3.284   1.596   3.592 -1.3555 -0.7679 -1.7350
 8559TIP3   OH247091   1.497   4.022   2.682 -0.1192  0.4742  0.1338
 8559TIP3    H147092   1.558   4.025   2.755  1.0434  2.1780 -0.8385
 8559TIP3    H247093   1.520   4.098   2.628 -0.6734 -0.9059 -2.2009
 8560TIP3   OH247094   0.296   3.049  16.489 -0.1994 -0.8062  0.2251
 8560TIP3    H147095   0.371   3.030  16.433  0.5982 -0.2430  1.0781
 8560TIP3    H247096   0.245   2.968  16.489  0.1562 -1.0395 -0.7329
 8561TIP3   OH247097   3.010   2.625   0.552  0.7788  0.4599 -0.8739
 8561TIP3    H147098   3.074   2.632   0.623 -1.2549 -1.0161  1.2653
 8561TIP3    H247099   2.925   2.625   0.596 -0.6516  0.2724 -3.4140
 8562TIP3   OH247100   1.707   1.352   0.552  0.4151 -0.6558 -0.7285
 8562TIP3    H147101   1.624   1.362   0.505  0.7070 -0.8054 -1.2815
 8562TIP3    H247102   1.714   1.258   0.568  2.2966 -1.2646 -4.1176
 8563TIP3   OH247103   3.925   5.798   3.541  0.0567  0.2023  0.1122
 8563TIP3    H147104   3.871   5.725   3.574  0.1805 -0.0838 -0.3116
 8563TIP3    H247105   3.861   5.863   3.511 -0.0803 -0.5200 -1.2440
 8564TIP3   OH247106   2.277   2.389   4.571  0.2991 -0.2395 -0.0969
 8564TIP3    H147107   2.338   2.399   4.644 -0.0589 -0.3346  0.2200
 8564TIP3    H247108   2.311   2.447   4.503 -0.3123  1.2008  0.7718
 8565TIP3   OH247109   6.145   1.322   1.564  0.1122  0.1433  0.0769
 8565TIP3    H147110   6.234   1.347   1.590 -0.0179  0.6498  0.0415
 8565TIP3    H247111   6.109   1.400   1.523 -0.1950 -0.2042 -0.3235
 8566TIP3   OH247112   4.453   6.428   5.647 -0.2264 -0.5658 -0.0828
 8566TIP3    H147113   4.487   6.345   5.680  2.8281  1.2737  1.9402
 8566TIP3    H247114   4.515   6.455   5.579 -0.8470  0.3377 -0.3274
 8567TIP3   OH247115   3.328   3.100   5.688  0.3409 -0.3832 -0.4263
 8567TIP3    H147116   3.329   3.196   5.684 -0.1442 -0.1645  2.5148
 8567TIP3    H247117   3.405   3.074   5.638  0.6608  1.5656 -1.0477
 8568TIP3   OH247118   0.677   1.590  12.166  0.4596  0.5380 -0.2128
 8568TIP3    H147119   0.719   1.508  12.193  0.3890  0.4512 -0.3647
 8568TIP3    H247120   0.698   1.652  12.236 -0.3276  0.1247  0.4095
 8569TIP3   OH247121   2.854   5.224   0.324  0.0378 -0.4177  0.2256
 8569TIP3    H147122   2.840   5.273   0.405  1.6644  0.6752 -0.1018
 8569TIP3    H247123   2.918   5.276   0.275  1.8756 -2.8783 -0.1589
 8570TIP3   OH247124   4.553   2.511   2.653 -0.5719  0.1200 -0.0427
 8570TIP3    H147125   4.542   2.557   2.570 -0.4143 -1.4179 -0.9367
 8570TIP3    H247126   4.465   2.507   2.690 -0.7234  0.3679 -0.3744
 8571TIP3   OH247127   4.450   0.267  16.033 -0.3060  0.5900 -0.8795
 8571TIP3    H147128   4.511   0.199  16.004 -0.6460 -0.7555  1.3273
 8571TIP3    H247129   4.492   0.349  16.006  2.4294 -0.2800  0.3429
 8572TIP3   OH247130   3.114   4.803   0.584  0.0340  0.1352  0.1034
 8572TIP3    H147131   3.097   4.810   0.678  0.9009  0.3559  0.2547
 8572TIP3    H247132   3.115   4.893   0.553 -0.8536  0.0378 -0.2443
 8573TIP3   OH247133   3.210   3.325   1.484 -0.0330  0.0295  0.2025
 8573TIP3    H147134   3.282   3.270   1.514  0.7007  1.0875  0.4643
 8573TIP3    H247135   3.135   3.297   1.536  0.4768 -0.3028  0.7750
 8574TIP3   OH247136   0.997   2.632  14.656 -0.3677 -0.2672 -0.5224
 8574TIP3    H147137   1.072   2.579  14.628  0.0018 -1.0078  1.6907
 8574TIP3    H247138   0.933   2.568  14.688 -1.2059  0.4694 -0.6823
 8575TIP3   OH247139   3.476   4.269   4.597  0.0119  0.1712 -0.0524
 8575TIP3    H147140   3.522   4.353   4.603 -1.1852  0.8650 -0.2491
 8575TIP3    H247141   3.502   4.222   4.676  0.6902  0.7307  0.0667
 8576TIP3   OH247142   0.153   3.111   4.771  0.3224  0.4386 -0.2497
 8576TIP3    H147143   0.136   3.033   4.824  5.4059 -0.2105  1.0186
 8576TIP3    H247144   0.121   3.184   4.824  0.2802 -0.5249  1.1056
 8577TIP3   OH247145   1.698   2.748   1.184  0.1813  0.0824  0.5149
 8577TIP3    H147146   1.669   2.837   1.203  0.5777  0.2059  0.5522
 8577TIP3    H247147   1.779   2.759   1.136 -0.3328 -0.2470 -0.4466
 8578TIP3   OH247148   4.810   4.097  11.865  0.5575  0.2703  0.6118
 8578TIP3    H147149   4.888   4.105  11.811  0.8890  1.4218  1.2344
 8578TIP3    H247150   4.777   4.009  11.846  2.8981 -0.8975  1.5413
 8579TIP3   OH247151   6.194   2.162  13.756  0.5150 -0.0534 -0.1973
 8579TIP3    H147152   6.191   2.084  13.701  0.8256 -0.4307  0.3187
 8579TIP3    H247153   6.266   2.214  13.720 -1.1051  1.0950 -1.9833
 8580TIP3   OH247154   1.822   3.346  16.507  0.2264 -0.7497  0.1027
 8580TIP3    H147155   1.904   3.307  16.538  0.4711  1.6417  2.9774
 8580TIP3    H247156   1.757   3.276  16.516  1.8476 -2.7247 -2.3493
 8581TIP3   OH247157   1.276   5.743   0.664 -0.2454  0.4149 -0.0064
 8581TIP3    H147158   1.259   5.704   0.578  0.3397  0.5733 -0.1984
 8581TIP3    H247159   1.226   5.824   0.664  0.0790  0.6189 -0.3624
 8582TIP3   OH247160   2.918   0.825   2.801 -0.0993 -0.1965 -0.6218
 8582TIP3    H147161   2.917   0.840   2.896 -1.2187  1.5019 -0.8424
 8582TIP3    H247162   2.913   0.730   2.791 -1.9322 -0.3577  1.0467
 8583TIP3   OH247163   4.627   5.008  16.778 -0.2055 -0.1449  0.2544
 8583TIP3    H147164   4.629   5.083  16.719  0.6089  0.0263  0.4824
 8583TIP3    H247165   4.602   4.934  16.722 -0.8105  0.2577 -0.0116
 8584TIP3   OH247166   2.881   0.524  11.601  0.1432  0.1343  0.1286
 8584TIP3    H147167   2.908   0.595  11.542  0.0399  0.5724  0.5987
 8584TIP3    H247168   2.818   0.473  11.550 -0.3803  0.8436  0.0553
 8585TIP3   OH247169   0.611   6.569   0.735  0.2681  0.5422  0.2994
 8585TIP3    H147170   0.602   6.517   0.655  0.2203  0.0911  0.5952
 8585TIP3    H247171   0.698   6.609   0.728 -0.3763  1.8296 -0.7505
 8586TIP3   OH247172   6.560   2.781   3.328  0.0038  0.6274  0.1027
 8586TIP3    H147173   6.649   2.812   3.313  0.6439 -0.9844  0.4055
 8586TIP3    H247174   6.566   2.685   3.321 -1.8733  0.5281 -0.7694
 8587TIP3   OH247175   4.068   1.266  14.309  0.3712 -0.7361 -0.0418
 8587TIP3    H147176   4.011   1.335  14.343  0.4290 -0.8480  0.2845
 8587TIP3    H247177   4.016   1.186  14.316  0.3953 -0.7655 -0.1899
 8588TIP3   OH247178   4.655   0.376   5.997  0.0553 -0.4636  0.0120
 8588TIP3    H147179   4.712   0.391   6.072  0.4400 -2.4106  0.1689
 8588TIP3    H247180   4.596   0.306   6.025 -1.5945  0.6257 -0.5925
 8589TIP3   OH247181   2.033   4.375   5.040 -0.0333 -0.1609  0.1577
 8589TIP3    H147182   1.984   4.406   4.964 -3.6141 -0.8186  2.0031
 8589TIP3    H247183   2.064   4.455   5.083 -0.3760  0.3412 -0.5251
 8590TIP3   OH247184   5.269   1.382  12.958 -0.1652 -0.5565  0.0563
 8590TIP3    H147185   5.252   1.475  12.942 -1.4443 -0.6927  0.4877
 8590TIP3    H247186   5.221   1.336  12.890  0.0431 -0.9209  0.1501
 8591TIP3   OH247187   2.967   0.869  11.821  0.1657  0.1976 -0.5114
 8591TIP3    H147188   2.981   0.919  11.902 -0.0416 -0.2472 -0.1943
 8591TIP3    H247189   3.049   0.823  11.806  0.4111  0.7460 -0.8895
 8592TIP3   OH247190   4.736   2.660   6.059 -0.3476 -0.2892  0.1204
 8592TIP3    H147191   4.765   2.749   6.040 -2.5496  0.4880  0.0970
 8592TIP3    H247192   4.659   2.648   6.004  0.4324 -2.5868 -0.5880
 8593TIP3   OH247193   5.641   5.857  14.332  0.2696  0.3274  0.3442
 8593TIP3    H147194   5.595   5.810  14.401 -0.3542 -0.3407 -0.5010
 8593TIP3    H247195   5.686   5.789  14.282 -0.6149  0.6011 -0.8761
 8594TIP3   OH247196   4.707   6.481   0.420  0.6561  0.8557 -0.4825
 8594TIP3    H147197   4.768   6.408   0.417  0.6422  0.8269 -0.1782
 8594TIP3    H247198   4.760   6.559   0.405  0.9252  0.9104  0.6276
 8595TIP3   OH247199   5.564   6.374   5.193  0.0404 -0.1124 -0.0437
 8595TIP3    H147200   5.542   6.459   5.157 -0.0741 -0.3358 -0.5152
 8595TIP3    H247201   5.482   6.341   5.230 -0.1744 -0.4817 -0.8347
 8596TIP3   OH247202   2.363   5.948   5.329 -0.7967 -0.6614  0.8887
 8596TIP3    H147203   2.285   5.974   5.378 -0.9086  0.3841  0.1967
 8596TIP3    H247204   2.427   6.017   5.345 -1.0125 -0.0133 -0.7940
 8597TIP3   OH247205   1.758   4.289   2.035  0.2259  0.2229  1.0045
 8597TIP3    H147206   1.835   4.338   2.006  0.4224 -1.5417 -1.8742
 8597TIP3    H247207   1.707   4.352   2.086  1.4701  2.7793 -0.6805
 8598TIP3   OH247208   4.315   6.110   5.509 -0.0572  0.3381 -0.4911
 8598TIP3    H147209   4.376   6.105   5.435  0.7755 -0.2425  0.2145
 8598TIP3    H247210   4.256   6.036   5.498 -0.2572  0.5442 -0.8373
 8599TIP3   OH247211   3.578   2.836  14.853 -0.0356  0.8548 -0.0953
 8599TIP3    H147212   3.542   2.899  14.790 -0.4662  0.6189 -0.0903
 8599TIP3    H247213   3.542   2.752  14.825 -0.7565  0.8324  0.8377
 8600TIP3   OH247214   1.811   4.418   1.427  0.2457  0.0754  0.1648
 8600TIP3    H147215   1.896   4.393   1.391 -0.3989  0.3535 -1.6279
 8600TIP3    H247216   1.831   4.488   1.489  1.4867 -1.0749  1.1196
 8601TIP3   OH247217   5.292   6.503  11.770  0.1068  0.2493  0.3168
 8601TIP3    H147218   5.368   6.518  11.714 -0.0877  1.5598  0.3624
 8601TIP3    H247219   5.234   6.448  11.718  0.0041  1.3046 -0.7419
 8602TIP3   OH247220   1.643   1.056   2.996  0.0622  0.2512 -0.0646
 8602TIP3    H147221   1.597   1.008   2.926  1.5501 -0.1921 -0.7743
 8602TIP3    H247222   1.732   1.065   2.964  0.6644  0.4778  1.5904
 8603TIP3   OH247223   1.481   5.665  15.024 -0.2516 -0.3687  0.1053
 8603TIP3    H147224   1.571   5.648  15.050 -0.0972  1.6021  0.9736
 8603TIP3    H247225   1.430   5.651  15.104 -0.7176 -1.2536 -0.3280
 8604TIP3   OH247226   5.093   5.834   3.085 -0.1450  0.0627  0.7517
 8604TIP3    H147227   5.041   5.905   3.048 -0.8907 -0.7014  0.3040
 8604TIP3    H247228   5.167   5.824   3.025  0.0891  0.6090  0.9442
 8605TIP3   OH247229   5.167   3.330   3.317 -0.1807  0.4206 -0.3064
 8605TIP3    H147230   5.228   3.403   3.331 -1.1483  1.1493  0.2463
 8605TIP3    H247231   5.146   3.335   3.224 -1.9979  2.3408  0.1158
 8606TIP3   OH247232   6.396   0.618  17.005  0.6459 -0.8022  0.0920
 8606TIP3    H147233   6.422   0.537  17.049 -1.9005 -0.6648  2.0816
 8606TIP3    H247234   6.431   0.688  17.060  1.3879 -0.5576 -0.6795
 8607TIP3   OH247235   6.673   1.368  12.438 -0.1119 -0.0965  0.4659
 8607TIP3    H147236   6.613   1.321  12.497 -1.8581 -0.5914 -1.5939
 8607TIP3    H247237   6.694   1.304  12.370  0.3188  1.0378 -0.4847
 8608TIP3   OH247238   3.645   6.625   4.025 -0.1525  0.0700 -0.5453
 8608TIP3    H147239   3.581   6.685   3.986 -0.7791  0.2544  0.7030
 8608TIP3    H247240   3.675   6.671   4.104  0.7105 -0.4981 -0.5303
 8609TIP3   OH247241   5.868   2.741   0.899  0.5141  0.2121  0.4122
 8609TIP3    H147242   5.788   2.690   0.886  0.9642 -0.3808 -0.0982
 8609TIP3    H247243   5.914   2.734   0.815  0.3332  1.9120  0.1535
 8610TIP3   OH247244   3.031   1.088  12.689  0.4807  0.5972  0.7126
 8610TIP3    H147245   3.051   1.016  12.749  3.0697 -1.3815 -2.2133
 8610TIP3    H247246   3.112   1.139  12.684  0.0479  1.2216 -0.3972
 8611TIP3   OH247247   6.494   4.571   3.999 -0.3001  0.0182  0.1350
 8611TIP3    H147248   6.450   4.624   3.932  1.0314 -0.8506 -1.5205
 8611TIP3    H247249   6.552   4.633   4.044 -0.5538  0.4529 -0.1279
 8612TIP3   OH247250   4.792   0.444  16.552  0.2806 -0.5655  0.2809
 8612TIP3    H147251   4.826   0.355  16.567  0.9817 -0.2197  0.8221
 8612TIP3    H247252   4.858   0.486  16.498 -1.5097 -1.3021 -2.6717
 8613TIP3   OH247253   3.488   6.463  15.474  0.2824  0.3828 -0.4862
 8613TIP3    H147254   3.433   6.527  15.520 -0.7202  0.0624 -1.1919
 8613TIP3    H247255   3.520   6.510  15.397  1.2736  0.6634  0.0828
 8614TIP3   OH247256   6.444   4.328  12.511  0.4548 -0.7903 -0.2868
 8614TIP3    H147257   6.457   4.245  12.557  0.0833 -0.6175  0.1414
 8614TIP3    H247258   6.391   4.381  12.571 -1.2971 -1.0883 -1.5118
 8615TIP3   OH247259   3.690   5.659   0.063 -0.0084  0.2027  0.4840
 8615TIP3    H147260   3.642   5.609  -0.003 -0.0977 -0.9088  1.3774
 8615TIP3    H247261   3.641   5.647   0.144  1.3138 -0.3253  1.2467
 8616TIP3   OH247262   6.033   6.598  12.518 -0.2818 -0.6688  0.7131
 8616TIP3    H147263   6.115   6.554  12.495  0.4674  0.6932  0.6846
 8616TIP3    H247264   6.023   6.667  12.453 -1.8463 -1.2598  0.2856
 8617TIP3   OH247265   1.914   0.085   4.523  0.1578  0.1932  0.3954
 8617TIP3    H147266   1.899   0.086   4.429  0.3597  4.7313  0.1827
 8617TIP3    H247267   1.829   0.065   4.562 -0.1859 -0.5268 -0.6890
 8618TIP3   OH247268   0.347   1.014   6.307 -0.4024 -0.6048  0.5837
 8618TIP3    H147269   0.325   1.012   6.214 -0.5470 -2.6213  0.6136
 8618TIP3    H247270   0.442   1.003   6.310 -0.2875  0.3156  0.6759
 8619TIP3   OH247271   4.319   3.231  17.330  0.7341 -0.0396 -0.6182
 8619TIP3    H147272   4.392   3.247  17.271  0.1810  2.1071 -0.7889
 8619TIP3    H247273   4.275   3.154  17.294  1.1011  0.5116 -2.3127
 8620TIP3   OH247274   5.078   5.965  15.486  0.8585 -0.2549 -0.0823
 8620TIP3    H147275   5.015   6.027  15.450  0.3603 -1.0575 -0.6369
 8620TIP3    H247276   5.031   5.921  15.557  1.3440  0.2734  0.5792
 8621TIP3   OH247277   4.517   2.316  14.130  0.0367  0.2600  0.4396
 8621TIP3    H147278   4.523   2.316  14.034 -1.1285  1.2466  0.3513
 8621TIP3    H247279   4.504   2.223  14.152  1.3027 -0.1190 -0.2528
 8622TIP3   OH247280   0.296   4.400   0.744 -0.1442  0.1737 -0.2465
 8622TIP3    H147281   0.225   4.339   0.725  0.2366  0.4005 -2.8541
 8622TIP3    H247282   0.302   4.455   0.665  2.0518  1.0146  0.4215
 8623TIP3   OH247283   3.441   2.617   4.608  0.6348  0.3662  0.6178
 8623TIP3    H147284   3.414   2.551   4.544  1.4699  0.7403 -0.1434
 8623TIP3    H247285   3.447   2.569   4.690 -1.1624  0.0291  0.5802
 8624TIP3   OH247286   4.419   0.100  13.443 -0.6550 -0.3855  0.4499
 8624TIP3    H147287   4.447   0.140  13.361 -0.4860 -1.4506 -0.0255
 8624TIP3    H247288   4.400   0.009  13.420 -1.2773 -0.5158  1.4522
 8625TIP3   OH247289   6.199   3.085  13.677  0.0496  0.0900  0.4908
 8625TIP3    H147290   6.110   3.119  13.687  0.0262  0.0972  0.2529
 8625TIP3    H247291   6.188   2.991  13.663  0.0709  0.1126  0.3180
 8626TIP3   OH247292   5.775   3.894  16.499 -0.1221  0.2542  0.1194
 8626TIP3    H147293   5.765   3.873  16.407 -2.7150 -1.3291  0.6693
 8626TIP3    H247294   5.697   3.857  16.541  1.8138 -0.6956  3.2178
 8627TIP3   OH247295   1.379   0.913   0.635 -0.0381  0.7318  0.3774
 8627TIP3    H147296   1.348   0.875   0.553 -2.9736  0.5927  1.3979
 8627TIP3    H247297   1.453   0.969   0.610  0.6239 -1.0400 -1.9808
 8628TIP3   OH247298   6.075   3.496   2.328 -0.2552 -0.0179  0.7600
 8628TIP3    H147299   6.114   3.577   2.295  0.8963 -0.9215 -0.1687
 8628TIP3    H247300   5.989   3.492   2.285  0.2748  0.0026 -0.3384
 8629TIP3   OH247301   6.701   2.576  14.852  0.4509  0.0324 -0.3585
 8629TIP3    H147302   6.678   2.508  14.789  3.2215 -2.6695  1.2379
 8629TIP3    H247303   6.632   2.642  14.843 -1.2970 -1.9644 -3.4842
 8630TIP3   OH247304   1.471   4.751   0.002  0.0946  0.2948  0.3692
 8630TIP3    H147305   1.526   4.679   0.032 -0.0989 -0.4272 -0.9125
 8630TIP3    H247306   1.533   4.822  -0.016  0.9321 -1.0190 -2.5946
 8631TIP3   OH247307   0.588   3.370   0.496 -0.2662 -0.5399  0.1119
 8631TIP3    H147308   0.628   3.287   0.470  0.1590 -0.2173 -0.2781
 8631TIP3    H247309   0.538   3.349   0.574  1.9036 -0.6416  1.5572
 8632TIP3   OH247310   2.050   5.577  15.088 -0.5088  0.6983  0.2195
 8632TIP3    H147311   2.101   5.647  15.130  0.2459  0.4858 -0.3076
 8632TIP3    H247312   2.025   5.519  15.159  0.7615  0.3339  0.3880
 8633TIP3   OH247313   2.218   3.068  16.547 -0.2282 -0.3251  0.6299
 8633TIP3    H147314   2.263   3.030  16.471  0.0066 -0.9977  1.0935
 8633TIP3    H247315   2.283   3.126  16.587 -0.4729  0.3102  0.1137
 8634TIP3   OH247316   6.658   2.796   5.957  0.0080  0.0717 -0.3522
 8634TIP3    H147317   6.620   2.763   6.039  1.6266  0.3851  0.5581
 8634TIP3    H247318   6.738   2.745   5.946 -1.2094 -1.4822 -2.9290
 8635TIP3   OH247319   1.483   0.892  15.445 -0.7027  0.4036 -0.4142
 8635TIP3    H147320   1.578   0.878  15.438 -0.8025  0.4290 -2.2708
 8635TIP3    H247321   1.474   0.963  15.508  0.1771 -2.8580  3.8553
 8636TIP3   OH247322   6.693   4.003   4.038 -0.3801  0.0937 -0.0142
 8636TIP3    H147323   6.601   3.981   4.028  0.1823 -1.6561 -2.1437
 8636TIP3    H247324   6.738   3.918   4.044  1.1125  0.8970  1.1057
 8637TIP3   OH247325   4.471   4.896  15.201 -0.5373 -0.0989  0.1275
 8637TIP3    H147326   4.381   4.927  15.209 -0.5053  0.0990 -0.2506
 8637TIP3    H247327   4.463   4.801  15.195 -0.7960 -0.0190 -0.9041
 8638TIP3   OH247328   3.336   1.562  12.620  0.1417  0.0421 -0.9284
 8638TIP3    H147329   3.263   1.569  12.559  0.9792  0.5735 -1.9011
 8638TIP3    H247330   3.306   1.500  12.686 -1.5305  0.9341 -0.7970
 8639TIP3   OH247331   5.803   5.971   4.553  0.1993  0.8772 -0.4620
 8639TIP3    H147332   5.772   5.927   4.633 -1.1207  0.0830 -1.3759
 8639TIP3    H247333   5.769   6.060   4.561  0.8915  1.0902  0.2944
 8640TIP3   OH247334   6.534   2.195   5.219  0.0612 -0.4030  0.4588
 8640TIP3    H147335   6.554   2.277   5.265  0.4129  0.5136 -1.2500
 8640TIP3    H247336   6.463   2.218   5.159  0.9418 -1.0354 -0.8793
 8641TIP3   OH247337   4.179   1.416   1.968 -0.0995  0.2435 -0.5521
 8641TIP3    H147338   4.129   1.435   1.889 -1.2873  3.4825  0.7969
 8641TIP3    H247339   4.114   1.410   2.038  1.1037  0.9983  0.7011
 8642TIP3   OH247340   5.322   3.683  14.887  0.3972  0.6318  0.3955
 8642TIP3    H147341   5.318   3.764  14.835  1.5372  1.6016  1.7619
 8642TIP3    H247342   5.307   3.712  14.977  0.5838 -0.7237  0.8795
 8643TIP3   OH247343   5.730   4.183  14.237  0.2579  0.3566 -0.1229
 8643TIP3    H147344   5.729   4.273  14.205  1.6141  1.0757  1.6688
 8643TIP3    H247345   5.780   4.135  14.171  0.1380  1.0589 -0.7450
 8644TIP3   OH247346   0.856   3.601   0.837 -0.3023 -0.0828 -0.2529
 8644TIP3    H147347   0.899   3.680   0.869 -0.6517  0.2376 -0.5838
 8644TIP3    H247348   0.780   3.590   0.895  1.1639 -1.6450  1.5089
 8645TIP3   OH247349   3.469   5.788   4.513 -0.2848  0.0587 -0.0093
 8645TIP3    H147350   3.423   5.849   4.455  0.2532  1.3872  0.9298
 8645TIP3    H247351   3.525   5.737   4.454  0.6194  1.7184 -0.6459
 8646TIP3   OH247352   4.443   3.633  16.186 -0.3870 -0.1636  0.1203
 8646TIP3    H147353   4.498   3.607  16.113 -0.7367  1.0093 -0.5822
 8646TIP3    H247354   4.450   3.560  16.249  1.2731 -0.3963 -0.3102
 8647TIP3   OH247355   0.142   5.769   1.013  0.3369  0.2647 -0.2857
 8647TIP3    H147356   0.196   5.842   0.981 -0.0575  0.9655  0.6144
 8647TIP3    H247357   0.083   5.809   1.076 -0.7000 -0.6472 -0.6640
 8648TIP3   OH247358   5.722   6.742   1.073 -0.1750 -0.7756  0.0629
 8648TIP3    H147359   5.674   6.820   1.101 -0.0596  0.1468 -2.0858
 8648TIP3    H247360   5.806   6.775   1.041  0.8753 -2.0861  1.3090
 8649TIP3   OH247361   2.261   2.839  13.712 -0.2951  0.1522 -0.2713
 8649TIP3    H147362   2.299   2.904  13.772 -1.3016 -0.5667  1.1963
 8649TIP3    H247363   2.172   2.869  13.698  0.5034  1.4824 -3.2029
 8650TIP3   OH247364   1.695   0.861  11.563 -0.0626 -0.4007 -0.2843
 8650TIP3    H147365   1.783   0.839  11.531  0.3373  1.6502 -0.7834
 8650TIP3    H247366   1.678   0.799  11.634  1.4696 -1.3169 -0.6758
 8651TIP3   OH247367   5.829   2.390  12.936  1.1287  0.4901  0.5085
 8651TIP3    H147368   5.871   2.452  12.877  0.8970  0.8312  0.6988
 8651TIP3    H247369   5.776   2.444  12.994 -0.6176 -0.0034 -0.5406
 8652TIP3   OH247370   0.232   3.015  14.810  0.3358 -0.0540  0.5863
 8652TIP3    H147371   0.212   2.924  14.790  0.4694  0.0450 -0.0370
 8652TIP3    H247372   0.234   3.058  14.724  0.4412  0.4977  0.8618
 8653TIP3   OH247373   0.103   3.593  15.149 -0.9524  0.4518 -0.1106
 8653TIP3    H147374   0.172   3.657  15.137 -1.6750  0.9125 -2.1735
 8653TIP3    H247375   0.124   3.550  15.233  0.3058  2.3826  0.6221
 8654TIP3   OH247376   3.006   5.279   3.784  0.2679 -0.0888  0.3100
 8654TIP3    H147377   3.067   5.353   3.790  0.3496 -0.2415  1.7810
 8654TIP3    H247378   3.049   5.218   3.724  0.5004  0.7756 -0.4215
 8655TIP3   OH247379   3.732   1.984   3.418  0.5541  0.1012  0.2085
 8655TIP3    H147380   3.677   1.963   3.494 -0.3440  0.6101 -0.2836
 8655TIP3    H247381   3.809   1.929   3.429 -0.9813 -2.3319 -0.1725
 8656TIP3   OH247382   0.546   1.204   1.182  0.0622  0.2789  0.7336
 8656TIP3    H147383   0.633   1.174   1.206  0.0839  0.0094  0.3216
 8656TIP3    H247384   0.558   1.296   1.158  0.5992 -0.2532 -1.2170
 8657TIP3   OH247385   3.307   3.183  15.563  0.2323 -0.8541 -0.3052
 8657TIP3    H147386   3.364   3.218  15.495 -0.3406 -0.5469 -0.6399
 8657TIP3    H247387   3.230   3.241  15.562 -0.1023 -1.2782  0.1117
 8658TIP3   OH247388   3.704   2.022  15.055  0.0387  0.2844 -0.0924
 8658TIP3    H147389   3.717   1.997  15.147 -1.1918 -1.6425 -0.3813
 8658TIP3    H247390   3.622   1.979  15.030 -0.3534  1.8818 -1.7316
 8659TIP3   OH247391   3.037   4.843  16.360  0.7848 -0.0094  0.1528
 8659TIP3    H147392   3.020   4.883  16.275  2.7144  1.1568  0.2682
 8659TIP3    H247393   3.071   4.756  16.339  0.2883 -0.1211 -0.2141
 8660TIP3   OH247394   4.235   0.642   0.080  0.1193 -0.7400 -0.0799
 8660TIP3    H147395   4.145   0.623   0.055  0.1982 -1.5209  0.2163
 8660TIP3    H247396   4.255   0.579   0.148  1.2193 -1.2243 -0.8287
 8661TIP3   OH247397   5.218   3.526   0.118 -0.0739  0.3739 -0.3226
 8661TIP3    H147398   5.278   3.597   0.141 -1.8599  1.9924 -0.4009
 8661TIP3    H247399   5.258   3.448   0.156  1.9101  1.4128 -0.1363
 8662TIP3   OH247400   3.371   3.777   5.804 -0.3886  0.2490  0.0486
 8662TIP3    H147401   3.445   3.725   5.834  0.6981  3.4010  3.7504
 8662TIP3    H247402   3.410   3.858   5.772 -2.1553  1.3340  0.5006
 8663TIP3   OH247403   1.116   5.766   6.672  0.1989  0.5339  0.0608
 8663TIP3    H147404   1.205   5.757   6.638  0.2868  2.5111 -0.3413
 8663TIP3    H247405   1.127   5.812   6.755 -0.3040 -1.2161  1.1533
 8664TIP3   OH247406   2.445   5.039   1.510 -0.0280  1.0058  0.4091
 8664TIP3    H147407   2.506   4.972   1.479 -0.8693  0.5268 -0.2496
 8664TIP3    H247408   2.501   5.104   1.554  0.7270 -0.4786  1.7415
 8665TIP3   OH247409   3.507   6.703   0.530 -0.5277 -0.3890  0.2531
 8665TIP3    H147410   3.431   6.650   0.556 -1.1698  0.3461 -0.0776
 8665TIP3    H247411   3.541   6.658   0.452 -0.1320 -1.1693  0.8639
 8666TIP3   OH247412   4.359   4.008  16.865 -0.2443  0.0715  0.1310
 8666TIP3    H147413   4.366   3.973  16.776 -0.5450  0.0759  0.1019
 8666TIP3    H247414   4.449   4.016  16.895 -0.2005 -1.8213  0.5842
 8667TIP3   OH247415   5.905   4.710   4.464  0.0482 -0.0462  0.0260
 8667TIP3    H147416   5.934   4.714   4.372  2.9772  0.6192  0.8618
 8667TIP3    H247417   5.899   4.617   4.483  0.5864 -0.2060 -0.5335
 8668TIP3   OH247418   5.347   3.456  13.525 -0.0311  0.0587 -0.1373
 8668TIP3    H147419   5.394   3.479  13.444 -1.5772 -2.2362 -1.8213
 8668TIP3    H247420   5.261   3.497  13.515 -0.7166 -1.3606 -0.3891
 8669TIP3   OH247421   6.414   5.492  16.777 -0.5354 -0.1478 -0.2147
 8669TIP3    H147422   6.446   5.426  16.837 -1.5670  0.6156  1.2335
 8669TIP3    H247423   6.319   5.493  16.791 -0.6284  1.0522 -0.8076
 8670TIP3   OH247424   4.413   4.550   6.351  0.0529  0.6016  0.4832
 8670TIP3    H147425   4.442   4.614   6.286 -1.1990  1.0799  0.3774
 8670TIP3    H247426   4.432   4.591   6.435 -1.6571  1.5791  0.4253
 8671TIP3   OH247427   1.889   5.037  17.212  0.1471 -0.0579 -0.3946
 8671TIP3    H147428   1.844   5.067  17.132  0.6447 -0.6498 -0.9067
 8671TIP3    H247429   1.982   5.048  17.192  0.2892 -0.6252 -0.0597
 8672TIP3   OH247430   0.359   1.949  15.293  0.4940 -0.0955  0.3279
 8672TIP3    H147431   0.320   1.872  15.333 -2.1861  1.2793  0.6339
 8672TIP3    H247432   0.339   2.021  15.354  1.1110  1.1554 -0.8756
 8673TIP3   OH247433   5.114   5.769  14.799  0.5184  0.1554 -0.2016
 8673TIP3    H147434   5.022   5.794  14.807  0.5195 -0.1022  0.6818
 8673TIP3    H247435   5.156   5.845  14.758 -0.2663 -0.1319 -1.6402
 8674TIP3   OH247436   0.439   3.739   1.995 -0.2950  0.0214 -0.1777
 8674TIP3    H147437   0.493   3.661   2.007 -1.8842 -0.9015  1.4482
 8674TIP3    H247438   0.457   3.793   2.071 -0.5692  0.3916 -0.3698
 8675TIP3   OH247439   4.883   5.488   4.301 -0.7409  0.4762  0.2079
 8675TIP3    H147440   4.923   5.430   4.235 -0.2445  0.1158  0.8100
 8675TIP3    H247441   4.791   5.462   4.303 -0.7676  0.5159 -0.3725
 8676TIP3   OH247442   2.728   3.192   0.931 -0.0239 -0.5862  0.4795
 8676TIP3    H147443   2.700   3.274   0.970  1.3270  0.2497 -0.2357
 8676TIP3    H247444   2.707   3.125   0.997  1.9253  0.7207  2.5637
 8677TIP3   OH247445   0.850   6.533   0.077 -0.6512 -0.3877 -0.2586
 8677TIP3    H147446   0.900   6.615   0.081  0.0547 -0.7438 -1.3042
 8677TIP3    H247447   0.817   6.521   0.166  0.6985  0.1379  0.3505
 8678TIP3   OH247448   3.712   3.124   6.201 -0.0805 -0.3617 -1.1106
 8678TIP3    H147449   3.758   3.142   6.283 -1.9565  1.6422 -0.3914
 8678TIP3    H247450   3.655   3.050   6.221  1.1152 -1.3637 -1.3269
 8679TIP3   OH247451   0.274   1.750  13.454  0.5071 -0.0941 -0.2557
 8679TIP3    H147452   0.195   1.780  13.499  0.1797 -1.1672 -0.1042
 8679TIP3    H247453   0.248   1.670  13.409  1.3529 -0.1229 -0.7180
 8680TIP3   OH247454   1.605   1.679  10.798 -0.2852 -0.2070  0.0185
 8680TIP3    H147455   1.663   1.726  10.857  1.0342 -2.9291  1.0301
 8680TIP3    H247456   1.659   1.609  10.761 -2.0665 -0.8348 -1.5697
 8681TIP3   OH247457   2.264   5.814  11.437  0.4192 -0.0817  0.3659
 8681TIP3    H147458   2.330   5.745  11.430  2.2587  1.4266  1.6293
 8681TIP3    H247459   2.191   5.783  11.384  1.5012 -2.5671  0.1770
 8682TIP3   OH247460   6.055   2.259  15.830  0.3899 -0.4703  0.1608
 8682TIP3    H147461   6.073   2.166  15.830  1.4438 -0.2767  0.7229
 8682TIP3    H247462   6.101   2.293  15.754  1.0753 -0.2162  0.6855
 8683TIP3   OH247463   0.424   1.224   5.003 -0.3837  0.6949  0.9478
 8683TIP3    H147464   0.467   1.273   5.073  1.5470  2.0766 -1.0395
 8683TIP3    H247465   0.480   1.147   4.990 -0.9136  0.2736  1.1270
 8684TIP3   OH247466   3.696   2.495  15.985  0.4557  0.4653 -0.4016
 8684TIP3    H147467   3.665   2.576  16.026  0.0587 -0.3059  0.8813
 8684TIP3    H247468   3.784   2.483  16.021 -0.7552 -1.4568  2.2304
 8685TIP3   OH247469   5.698   0.247  15.794  0.4485  0.2427 -0.2030
 8685TIP3    H147470   5.738   0.322  15.750  0.8440 -0.0390 -0.3327
 8685TIP3    H247471   5.764   0.221  15.859 -0.1850  0.7523  0.6752
 8686TIP3   OH247472   2.437   1.241  13.183 -0.0692 -0.1437 -0.3945
 8686TIP3    H147473   2.357   1.264  13.231  1.3082  0.6952  1.6544
 8686TIP3    H247474   2.427   1.148  13.164 -0.7216 -0.5464  1.6010
 8687TIP3   OH247475   1.875   3.981  14.250 -0.5524  0.2688 -0.0089
 8687TIP3    H147476   1.952   4.038  14.259 -1.8353  2.6319 -2.5518
 8687TIP3    H247477   1.890   3.933  14.169 -2.5072  2.2347 -1.6434
 8688TIP3   OH247478   0.028   4.504   4.491 -0.0067  0.3127 -0.1323
 8688TIP3    H147479   0.055   4.596   4.486  1.1865 -0.0503 -0.8003
 8688TIP3    H247480  -0.067   4.507   4.480 -0.2665  1.6127  1.8644
 8689TIP3   OH247481   1.870   4.647  11.776 -0.1208 -0.1148 -0.0708
 8689TIP3    H147482   1.815   4.692  11.712  0.1959  0.4020  0.0099
 8689TIP3    H247483   1.860   4.698  11.857  0.1655 -0.2481  0.0514
 8690TIP3   OH247484   3.944   5.150  16.823  0.1150 -0.1229  0.3566
 8690TIP3    H147485   3.910   5.162  16.734  0.2450 -0.5942  0.2414
 8690TIP3    H247486   3.876   5.185  16.880 -0.9796 -1.8711  0.1691
 8691TIP3   OH247487   3.105   3.790  10.726 -0.4921  0.6022 -0.1664
 8691TIP3    H147488   3.136   3.757  10.810 -1.6440  0.4915  0.2389
 8691TIP3    H247489   3.085   3.711  10.675  2.0590  0.6248 -1.3117
 8692TIP3   OH247490   6.616   4.966  12.432 -0.5357  0.0099 -0.2149
 8692TIP3    H147491   6.615   4.938  12.524  0.3477 -0.6081 -0.3711
 8692TIP3    H247492   6.701   5.009  12.421 -0.6903  0.1977 -0.7026
 8693TIP3   OH247493   1.805   5.359   0.249 -0.3092 -0.6122  0.4428
 8693TIP3    H147494   1.740   5.368   0.319 -0.5630 -2.0114  0.4079
 8693TIP3    H247495   1.863   5.434   0.262 -1.3788  0.1534  1.0470
 8694TIP3   OH247496   3.444   5.613   5.528  0.1226  0.0705 -0.2415
 8694TIP3    H147497   3.379   5.567   5.582 -0.1923  0.8193  0.0189
 8694TIP3    H247498   3.396   5.685   5.488  0.5306 -0.0488 -0.9554
 8695TIP3   OH247499   1.669   5.549   0.527  0.0945  0.1810 -0.5171
 8695TIP3    H147500   1.737   5.607   0.494  0.3090 -0.5000 -1.2900
 8695TIP3    H247501   1.644   5.587   0.611  0.2095  1.4049 -1.0202
 8696TIP3   OH247502   5.380   1.627  12.437  0.5058  0.5220  0.0680
 8696TIP3    H147503   5.291   1.626  12.473  0.8118 -0.1986  0.8218
 8696TIP3    H247504   5.378   1.564  12.366  0.1920  1.1495 -0.4962
 8697TIP3   OH247505   3.429   0.221   3.464 -0.1117  0.2049 -0.6450
 8697TIP3    H147506   3.394   0.216   3.375 -0.0342  0.7818 -0.7105
 8697TIP3    H247507   3.522   0.240   3.452  0.6355 -2.8528 -0.5297
 8698TIP3   OH247508   6.277   1.780  15.168  0.2971 -0.6953 -0.0105
 8698TIP3    H147509   6.260   1.722  15.094 -1.6202 -1.9667  1.3122
 8698TIP3    H247510   6.244   1.866  15.140 -1.6360 -1.4523 -0.2381
 8699TIP3   OH247511   4.699   0.614   5.689  0.0878  0.0755  0.1230
 8699TIP3    H147512   4.747   0.638   5.768  0.4903  0.1752 -0.1457
 8699TIP3    H247513   4.703   0.693   5.634  2.5430 -0.9558 -1.3213
 8700TIP3   OH247514   5.137   1.232  16.164  0.9745 -0.3757  0.5162
 8700TIP3    H147515   5.165   1.286  16.090  0.9556 -0.5203  0.4004
 8700TIP3    H247516   5.214   1.181  16.187  0.6622 -1.1845 -0.1650
 8701TIP3   OH247517   4.576   5.518   4.797  0.0202  0.2308  0.1260
 8701TIP3    H147518   4.503   5.519   4.859 -0.3907  3.8185 -0.2225
 8701TIP3    H247519   4.645   5.570   4.840  0.9365  0.1206 -1.1578
 8702TIP3   OH247520   3.799   3.297   1.083 -0.1201 -0.3117 -0.0005
 8702TIP3    H147521   3.875   3.354   1.097  0.2620 -0.4099 -1.4871
 8702TIP3    H247522   3.731   3.333   1.139  0.7506  0.3394  0.6588
 8703TIP3   OH247523   5.775   4.736  14.592  0.3004  0.0954  0.2140
 8703TIP3    H147524   5.841   4.714  14.658  1.1051 -0.2690 -0.6988
 8703TIP3    H247525   5.752   4.827  14.611 -0.1489 -0.2639  1.5509
 8704TIP3   OH247526   6.423   5.327   5.343  0.1955  0.4473 -0.5325
 8704TIP3    H147527   6.393   5.416   5.325  1.0792  0.8810  0.0644
 8704TIP3    H247528   6.507   5.321   5.298  0.5753  0.2280  0.1951
 8705TIP3   OH247529   0.170   2.383   2.711 -0.2791 -0.0210  0.0082
 8705TIP3    H147530   0.130   2.393   2.625 -4.2159  1.1359  1.7380
 8705TIP3    H247531   0.170   2.471   2.748  1.0044 -0.5372  1.3333
 8706TIP3   OH247532   2.875   0.616   2.412 -0.0846  0.2622  0.0198
 8706TIP3    H147533   2.830   0.567   2.480 -0.2584  0.3077 -0.0599
 8706TIP3    H247534   2.870   0.707   2.441  0.0021  0.2624  0.0355
 8707TIP3   OH247535   4.863   4.161   1.440  0.2678 -0.4686  0.2346
 8707TIP3    H147536   4.803   4.199   1.504  0.5095  0.3970 -0.0455
 8707TIP3    H247537   4.809   4.104   1.387 -0.1313 -0.3971  0.5583
 8708TIP3   OH247538   1.288   5.952   0.016 -0.2189 -0.2926 -0.8123
 8708TIP3    H147539   1.281   5.998  -0.067  2.5717  0.6255 -0.6433
 8708TIP3    H247540   1.227   5.998   0.074  0.2129  1.1933 -1.4922
 8709TIP3   OH247541   5.981   5.191   0.297 -0.4298 -0.4596 -0.4784
 8709TIP3    H147542   5.959   5.154   0.211 -0.8606 -0.0028 -0.5695
 8709TIP3    H247543   6.049   5.133   0.331 -0.1157 -0.5372 -1.2126
 8710TIP3   OH247544   6.104   4.452   4.092  0.1350 -0.1567  0.0142
 8710TIP3    H147545   6.088   4.392   4.020 -1.0360  0.5109 -0.3065
 8710TIP3    H247546   6.115   4.538   4.050  1.7647 -0.1020  0.4613
 8711TIP3   OH247547   6.556   0.691   3.717 -0.1926 -0.4530  0.2715
 8711TIP3    H147548   6.493   0.630   3.678  1.1975 -0.0629 -2.8270
 8711TIP3    H247549   6.604   0.638   3.781  0.0493 -2.2937 -1.3424
 8712TIP3   OH247550   2.398   1.058   5.094  0.5187 -0.2056  1.1770
 8712TIP3    H147551   2.306   1.081   5.078  1.1695  2.8580  1.0605
 8712TIP3    H247552   2.395   0.979   5.148 -2.2053  0.2812  1.8860
 8713TIP3   OH247553   4.678   6.556  12.865 -0.4789 -0.2317 -0.2549
 8713TIP3    H147554   4.662   6.462  12.859 -0.6426 -0.2910  0.9683
 8713TIP3    H247555   4.756   6.564  12.920 -0.8960  0.3678  0.2628
 8714TIP3   OH247556   1.228   2.620   5.365  0.2903 -0.4458 -0.2052
 8714TIP3    H147557   1.298   2.680   5.339  0.4575 -0.8074 -0.6025
 8714TIP3    H247558   1.273   2.537   5.381 -0.1399 -0.9144 -1.2880
 8715TIP3   OH247559   2.833   6.626   0.241 -0.4011 -0.0202 -0.0114
 8715TIP3    H147560   2.872   6.639   0.327  1.2075  0.2061 -0.7362
 8715TIP3    H247561   2.908   6.612   0.183 -1.2913  1.7413 -1.7058
 8716TIP3   OH247562   3.377   5.268  13.433 -0.5493 -0.5929 -0.0249
 8716TIP3    H147563   3.466   5.260  13.398 -1.1104 -0.3644 -1.5635
 8716TIP3    H247564   3.376   5.210  13.509  0.2770 -2.2862 -1.2527
 8717TIP3   OH247565   6.412   3.758   2.410 -0.0561  0.2291  0.2001
 8717TIP3    H147566   6.427   3.807   2.490  1.8160 -2.2028  1.4519
 8717TIP3    H247567   6.492   3.772   2.358  0.6088 -1.5212  0.6712
 8718TIP3   OH247568   2.123   5.965   1.993 -0.1775 -0.2763  0.6946
 8718TIP3    H147569   2.121   5.983   1.898 -1.0650 -2.5501  0.2297
 8718TIP3    H247570   2.215   5.948   2.012  0.1530  1.1351  0.4627
 8719TIP3   OH247571   4.263   4.564  17.172 -0.2858 -0.0613  0.0594
 8719TIP3    H147572   4.250   4.573  17.077 -1.1667  0.1964  0.1993
 8719TIP3    H247573   4.346   4.517  17.180 -0.0359  0.2083 -0.8352
 8720TIP3   OH247574   2.880   6.262  16.776  0.1060 -0.0903 -0.4305
 8720TIP3    H147575   2.802   6.237  16.825  0.3040 -0.1145 -0.1242
 8720TIP3    H247576   2.909   6.182  16.733  1.1513 -0.5944  1.1205
 8721TIP3   OH247577   0.451   4.434  12.539  0.5824  0.2614  0.0974
 8721TIP3    H147578   0.456   4.529  12.523 -2.0559  1.0964  3.1831
 8721TIP3    H247579   0.378   4.405  12.485  0.2040  0.3955  0.5285
 8722TIP3   OH247580   6.313   0.122   3.282  0.3668  0.0618  0.6895
 8722TIP3    H147581   6.362   0.050   3.241 -3.0159 -1.3559 -1.3093
 8722TIP3    H247582   6.318   0.193   3.218  0.8061  0.3691  1.0597
 8723TIP3   OH247583   4.791   0.865  15.007 -0.3306 -0.5663  0.4836
 8723TIP3    H147584   4.747   0.860  14.923 -1.6539  2.2328  0.8781
 8723TIP3    H247585   4.849   0.789  15.009  0.8102 -0.0070 -3.5194
 8724TIP3   OH247586   6.323   6.272   1.614  0.4040  0.0949 -0.0082
 8724TIP3    H147587   6.354   6.363   1.609 -1.5864  0.8024 -0.3766
 8724TIP3    H247588   6.247   6.270   1.556  0.7958 -2.0002 -0.5062
 8725TIP3   OH247589   5.127   0.211   4.732  0.1887  0.5572 -0.2270
 8725TIP3    H147590   5.078   0.171   4.661 -0.3790 -0.1265  0.5475
 8725TIP3    H247591   5.107   0.305   4.725  0.6080  0.5881 -1.3140
 8726TIP3   OH247592   1.675   6.026  15.213 -0.3323 -0.5850 -0.7307
 8726TIP3    H147593   1.690   6.120  15.214  0.7721 -0.7447  0.3517
 8726TIP3    H247594   1.580   6.017  15.214 -0.5065  0.5643  1.5503
 8727TIP3   OH247595   6.020   4.423   3.199 -0.4591 -0.1065  0.4363
 8727TIP3    H147596   5.998   4.330   3.209 -2.2969  0.1217 -0.9581
 8727TIP3    H247597   6.075   4.442   3.275  0.5738 -2.4904  0.3924
 8728TIP3   OH247598   0.467   2.772  17.125  0.3714 -0.7638 -0.9437
 8728TIP3    H147599   0.376   2.790  17.147  0.2747 -2.0200 -0.2647
 8728TIP3    H247600   0.463   2.729  17.039  0.1017 -2.7697  0.0065
 8729TIP3   OH247601   5.407   6.463  10.671  0.3908  0.2732  0.2267
 8729TIP3    H147602   5.496   6.481  10.698  0.5799 -0.8321  0.3793
 8729TIP3    H247603   5.362   6.548  10.675  1.6906  1.0530 -0.8939
 8730TIP3   OH247604   6.468   1.026  13.060  1.1062  0.2961  0.3330
 8730TIP3    H147605   6.473   0.945  13.111 -0.7817 -0.6242 -0.8391
 8730TIP3    H247606   6.547   1.025  13.005  1.3766 -0.4639  0.7203
 8731TIP3   OH247607   2.822   1.569  13.781  0.0383 -0.3895 -0.2346
 8731TIP3    H147608   2.730   1.578  13.806  0.1400  0.6681 -0.1684
 8731TIP3    H247609   2.840   1.649  13.731  0.5064 -1.3100 -1.5852
 8732TIP3   OH247610   4.202   4.074  15.483 -0.2482 -0.1375 -0.2309
 8732TIP3    H147611   4.114   4.056  15.451  0.4269  0.2384 -2.5121
 8732TIP3    H247612   4.198   4.164  15.516 -0.4984  0.3112 -1.4114
 8733TIP3   OH247613   1.287   3.942  10.314  0.6267  0.0391  0.3414
 8733TIP3    H147614   1.295   3.960  10.220 -0.3790 -0.0068  0.2372
 8733TIP3    H247615   1.338   3.862  10.328  0.8329  0.0823 -0.1535
 8734TIP3   OH247616   3.293   6.126  16.963 -0.4334  0.5731 -0.1017
 8734TIP3    H147617   3.376   6.154  17.000  1.1392 -2.1517 -1.3288
 8734TIP3    H247618   3.269   6.048  17.013 -1.5982  0.5645 -0.6340
 8735TIP3   OH247619   4.518   5.145   2.651  0.2340 -0.0806 -0.0200
 8735TIP3    H147620   4.552   5.058   2.671  1.8377  0.3450 -0.7644
 8735TIP3    H247621   4.508   5.187   2.737  0.1551 -0.7304  0.2946
 8736TIP3   OH247622   4.120   5.901  13.002 -0.3965 -0.1500  0.0700
 8736TIP3    H147623   4.106   5.991  12.975 -1.3114 -0.2410  0.2236
 8736TIP3    H247624   4.110   5.901  13.097 -0.6325 -0.4529  0.0484
 8737TIP3   OH247625   3.064   6.302  17.066  0.9502 -0.1984  0.0728
 8737TIP3    H147626   3.016   6.369  17.018  1.1333  0.3267  0.6163
 8737TIP3    H247627   3.087   6.237  16.999 -0.6589 -0.5683 -0.1779
 8738TIP3   OH247628   0.141   2.038  12.726 -0.5655 -0.0876  0.4841
 8738TIP3    H147629   0.179   2.000  12.805 -1.9267 -1.7940  0.3769
 8738TIP3    H247630   0.167   2.130  12.729  1.7991 -0.7167  1.4225
 8739TIP3   OH247631   3.795   4.795  12.416  0.1209  0.1256  0.2326
 8739TIP3    H147632   3.795   4.839  12.501  0.2392 -0.1192  0.3581
 8739TIP3    H247633   3.862   4.841  12.365 -0.1878  0.4983  0.1502
 8740TIP3   OH247634   3.230   4.791  13.538  0.2999 -0.9916  0.1216
 8740TIP3    H147635   3.245   4.822  13.628 -0.3756 -2.0013  0.6019
 8740TIP3    H247636   3.138   4.765  13.536 -0.1229  0.4924 -1.3484
 8741TIP3   OH247637   2.682   3.660  12.399  0.0578  0.4606  0.6129
 8741TIP3    H147638   2.691   3.674  12.493  0.1109  1.1653  0.5054
 8741TIP3    H247639   2.639   3.739  12.367  1.1819  0.7722 -0.1525
 8742TIP3   OH247640   4.924   6.179  15.366  0.0599  0.0536  0.1087
 8742TIP3    H147641   4.943   6.237  15.440  0.8045 -0.5754  0.4216
 8742TIP3    H247642   4.844   6.215  15.328 -0.0932  0.6443  0.9504
 8743TIP3   OH247643   5.926   4.343  11.379  0.1181  0.4443 -0.3182
 8743TIP3    H147644   5.953   4.404  11.310 -0.8823  0.8798 -0.3495
 8743TIP3    H247645   5.896   4.265  11.332 -0.3216  0.6440 -0.3813
 8744TIP3   OH247646   0.411   0.736   2.179  0.0711 -0.2170  0.2690
 8744TIP3    H147647   0.492   0.689   2.199 -0.4806 -1.1552  0.3584
 8744TIP3    H247648   0.341   0.681   2.215 -0.6384  0.3435 -0.2113
 8745TIP3   OH247649   4.421   6.144   3.721  0.2961  0.2947 -0.3243
 8745TIP3    H147650   4.494   6.082   3.723  0.5740  0.6375  1.0591
 8745TIP3    H247651   4.462   6.229   3.739  0.1089  1.1335 -3.3428
 8746TIP3   OH247652   4.942   5.321   4.903  0.3926 -0.4467 -0.1758
 8746TIP3    H147653   5.018   5.310   4.960  1.8442 -0.3527 -2.0117
 8746TIP3    H247654   4.897   5.236   4.907 -0.6338  0.1190  2.5003
 8747TIP3   OH247655   5.877   2.288   4.479  0.0355 -0.5563 -0.6378
 8747TIP3    H147656   5.830   2.281   4.396  0.7819 -0.8003 -1.0432
 8747TIP3    H247657   5.886   2.198   4.509 -2.0262 -0.3761  0.7511
 8748TIP3   OH247658   6.170   1.517   4.014  0.4675 -0.0604 -0.4117
 8748TIP3    H147659   6.149   1.609   3.999  0.5533 -0.1830 -1.3488
 8748TIP3    H247660   6.088   1.470   3.995  0.3946 -0.1667  0.1633
 8749TIP3   OH247661   5.247   1.003   0.974  0.5678  0.2326 -0.0859
 8749TIP3    H147662   5.276   0.980   1.062 -0.8716  0.4814  0.4793
 8749TIP3    H247663   5.227   0.918   0.933 -2.4101  0.2145  1.1727
 8750TIP3   OH247664   5.638   1.988  17.063  0.2820  0.1074 -0.0984
 8750TIP3    H147665   5.586   2.019  16.989  1.2173 -1.4699 -1.5088
 8750TIP3    H247666   5.582   1.922  17.105 -0.4185  1.3020  0.9132
 8751TIP3   OH247667   3.378   0.703  11.937  0.1150  0.5046  0.0010
 8751TIP3    H147668   3.329   0.636  11.985 -0.1043  0.6007 -0.0864
 8751TIP3    H247669   3.341   0.700  11.849 -0.0869  0.9311  0.0714
 8752TIP3   OH247670   4.564   2.714  12.239  0.0318  0.3218  0.0653
 8752TIP3    H147671   4.499   2.649  12.264  0.0588  0.3835  0.3003
 8752TIP3    H247672   4.513   2.793  12.221 -0.2017 -0.2311 -2.0208
 8753TIP3   OH247673   4.783   2.661  16.233 -0.6183  0.2732  0.2046
 8753TIP3    H147674   4.802   2.668  16.326 -1.4121  1.3708  0.3089
 8753TIP3    H247675   4.725   2.735  16.215  1.4216  1.5623 -1.6522
 8754TIP3   OH247676   2.813   2.148  12.037 -0.2746 -0.0187 -0.4265
 8754TIP3    H147677   2.750   2.132  11.967  1.2197 -2.4573 -1.3718
 8754TIP3    H247678   2.867   2.220  12.004 -1.7302  1.2481 -0.1521
 8755TIP3   OH247679   0.018   2.057  16.008  0.6972  0.2808  0.0824
 8755TIP3    H147680   0.105   2.096  16.015  1.1641 -1.0863  3.2968
 8755TIP3    H247681   0.030   1.965  16.030 -1.4960 -0.0708  0.0481
 8756TIP3   OH247682   1.949   5.613  13.303 -0.1920 -0.3577 -0.3876
 8756TIP3    H147683   1.942   5.679  13.372  1.7726 -0.9212  0.4058
 8756TIP3    H247684   1.981   5.535  13.348  0.8167 -0.8351 -1.8666
 8757TIP3   OH247685   5.478   4.300  14.842  0.2283  0.2639  0.2979
 8757TIP3    H147686   5.532   4.367  14.801 -0.6920 -0.0905 -1.6147
 8757TIP3    H247687   5.539   4.230  14.865  0.8922  0.8449  0.3353
 8758TIP3   OH247688   2.526   1.192   4.781 -0.2177 -0.5940 -0.1663
 8758TIP3    H147689   2.526   1.097   4.795 -0.7297 -0.8712 -1.7816
 8758TIP3    H247690   2.443   1.221   4.819  0.4482 -0.5946  1.3500
 8759TIP3   OH247691   2.519   2.425   2.436 -0.4005 -0.1686  0.1838
 8759TIP3    H147692   2.518   2.329   2.434 -2.1418 -0.1828  0.1618
 8759TIP3    H247693   2.607   2.449   2.407 -0.8452 -1.7132 -2.7972
 8760TIP3   OH247694   3.701   5.342  13.323 -0.4369 -0.9692  0.5828
 8760TIP3    H147695   3.733   5.403  13.390  1.4367 -1.5697  0.2910
 8760TIP3    H247696   3.778   5.290  13.299 -1.5359 -2.1268 -0.5939
 8761TIP3   OH247697   4.546   3.763   1.874 -0.0861 -0.6729  0.3975
 8761TIP3    H147698   4.493   3.764   1.953 -4.0916  0.4231 -2.0152
 8761TIP3    H247699   4.529   3.847   1.832  3.3376 -0.4551 -0.8728
 8762TIP3   OH247700   5.880   0.214   1.329  0.0745  0.0697 -0.2800
 8762TIP3    H147701   5.941   0.284   1.306 -0.6244  0.5308 -0.7600
 8762TIP3    H247702   5.927   0.133   1.306  0.6376  0.4012 -0.3211
 8763TIP3   OH247703   4.456   1.821  14.702 -0.2089 -0.1284  0.4176
 8763TIP3    H147704   4.498   1.759  14.761 -0.7849 -0.6254  0.3208
 8763TIP3    H247705   4.524   1.883  14.678  0.6876 -1.3699 -0.3661
 8764TIP3   OH247706   2.220   6.111   5.553  0.0549  0.2534  0.2420
 8764TIP3    H147707   2.156   6.160   5.605  0.1518 -0.0294  0.6332
 8764TIP3    H247708   2.286   6.175   5.528 -0.0257  0.4029  0.4176
 8765TIP3   OH247709   4.091   3.825  14.327 -0.0836  0.4352  0.3404
 8765TIP3    H147710   4.081   3.866  14.241 -1.0835 -0.0332  0.2177
 8765TIP3    H247711   4.040   3.879  14.386  0.9926  1.0350  0.7570
 8766TIP3   OH247712   5.787   6.089  14.232 -0.0932  0.0628  0.2937
 8766TIP3    H147713   5.699   6.126  14.228 -0.2503 -0.3448  0.0034
 8766TIP3    H247714   5.775   6.000  14.263  0.3870  0.5906  2.1254
 8767TIP3   OH247715   4.136   6.647  16.294 -0.6926 -0.7144  0.0910
 8767TIP3    H147716   4.225   6.617  16.276 -0.5858  0.1346 -0.9307
 8767TIP3    H247717   4.142   6.743  16.293 -1.1339 -0.6090  2.6623
 8768TIP3   OH247718   1.102   5.813   5.369 -0.7035  0.1459  0.5807
 8768TIP3    H147719   1.148   5.870   5.308 -0.8036 -0.0851  0.2904
 8768TIP3    H247720   1.144   5.727   5.359 -2.6017 -0.6481 -1.3028
 8769TIP3   OH247721   3.766   6.016   6.249 -0.4760  0.2338 -0.3464
 8769TIP3    H147722   3.818   6.075   6.303  0.8404 -1.6856  0.5719
 8769TIP3    H247723   3.827   5.948   6.220 -1.9701 -0.8533 -1.1585
 8770TIP3   OH247724   2.491   1.714   5.133 -0.0015  0.1737  0.0299
 8770TIP3    H147725   2.541   1.658   5.192  0.7527  2.5410  1.8248
 8770TIP3    H247726   2.558   1.756   5.078 -0.0381  2.1906  1.3956
 8771TIP3   OH247727   0.569   2.616   4.635  0.0423 -0.1632  0.2590
 8771TIP3    H147728   0.634   2.643   4.700  0.2968 -0.2201  0.0294
 8771TIP3    H247729   0.488   2.656   4.665  0.1722 -0.1306  0.5741
 8772TIP3   OH247730   3.945   6.461  13.203  0.4428  0.5397 -0.1488
 8772TIP3    H147731   3.985   6.548  13.204  0.2973  0.6005  0.5992
 8772TIP3    H247732   3.910   6.449  13.291 -2.1467  0.9399 -1.0226
 8773TIP3   OH247733   4.316   0.066   0.101  0.2653 -0.0868  0.2435
 8773TIP3    H147734   4.371   0.116   0.162 -0.1188 -0.0882  0.5953
 8773TIP3    H247735   4.227   0.094   0.121 -0.0635 -1.6626  1.1567
 8774TIP3   OH247736   4.578   1.459  14.352  0.1459  0.0798  1.1735
 8774TIP3    H147737   4.584   1.554  14.348 -0.8108  0.1723  1.5878
 8774TIP3    H247738   4.492   1.439  14.315  0.0455 -0.5650  1.7362
 8775TIP3   OH247739   0.151   0.280  14.996 -0.2206 -0.2938 -0.3392
 8775TIP3    H147740   0.157   0.285  15.091  0.6760  1.8552 -0.4319
 8775TIP3    H247741   0.240   0.299  14.965 -0.2365 -2.0625 -1.6207
 8776TIP3   OH247742   5.771   2.558  15.865 -0.8031  0.3646 -0.5202
 8776TIP3    H147743   5.783   2.593  15.953  1.6695  0.8674 -0.9978
 8776TIP3    H247744   5.845   2.591  15.815 -1.3178 -1.1421 -2.4105
 8777TIP3   OH247745   6.220   3.169  16.533  0.9557  0.0651 -0.3749
 8777TIP3    H147746   6.145   3.215  16.498  0.5863 -1.4673 -1.7242
 8777TIP3    H247747   6.296   3.210  16.491  0.7591  0.5251 -0.2789
 8778TIP3   OH247748   4.599   1.375  13.954  0.9018 -0.4742 -0.2105
 8778TIP3    H147749   4.670   1.428  13.917  1.0399  0.4747  1.3376
 8778TIP3    H247750   4.520   1.426  13.938  0.4886 -1.5783 -2.0233
 8779TIP3   OH247751   2.786   6.122  11.452 -0.4183  0.4073  0.3868
 8779TIP3    H147752   2.696   6.089  11.452 -0.9039  1.6186  1.6546
 8779TIP3    H247753   2.838   6.051  11.416 -1.7904 -0.6028  0.3225
 8780TIP3   OH247754   5.468   5.979   5.927 -0.7781 -0.1093 -1.0754
 8780TIP3    H147755   5.383   5.937   5.938 -0.7437  0.0017 -0.3663
 8780TIP3    H247756   5.457   6.066   5.964 -0.2382 -0.2350 -0.6120
 8781TIP3   OH247757   3.102   3.319   3.524  0.0520  0.0458 -0.0144
 8781TIP3    H147758   3.116   3.235   3.567 -0.7912  0.1184  0.4139
 8781TIP3    H247759   3.124   3.384   3.590  0.1051  0.1634 -0.1467
 8782TIP3   OH247760   1.060   5.602  14.519  0.4522  0.1574 -0.3629
 8782TIP3    H147761   0.998   5.643  14.579  1.0456  1.0069 -0.3177
 8782TIP3    H247762   1.032   5.631  14.432  0.5597  0.2213 -0.3752
 8783TIP3   OH247763   1.813   4.043   4.599  0.5346 -0.8112 -0.9006
 8783TIP3    H147764   1.808   3.952   4.570  0.6938 -0.9611 -0.4640
 8783TIP3    H247765   1.885   4.045   4.662  0.5656 -0.3728 -0.9435
 8784TIP3   OH247766   2.323   5.997  15.834  0.4059  0.0860  0.2064
 8784TIP3    H147767   2.370   5.947  15.900  1.4918  2.4596  1.3512
 8784TIP3    H247768   2.345   6.088  15.852 -1.6753  1.0557 -1.5869
 8785TIP3   OH247769   1.577   6.615  16.525 -0.5076 -0.2598  0.8206
 8785TIP3    H147770   1.528   6.611  16.607 -1.8605  1.1694  0.1417
 8785TIP3    H247771   1.520   6.665  16.466  1.2612  0.4147 -0.3891
 8786TIP3   OH247772   6.765   4.442   3.091 -0.1873  0.1553  0.3544
 8786TIP3    H147773   6.823   4.409   3.160 -0.4959 -0.6489  0.2403
 8786TIP3    H247774   6.685   4.468   3.137  1.0734  3.6073  0.8758
 8787TIP3   OH247775   6.074   0.723  14.810  0.0150 -0.1659  0.2927
 8787TIP3    H147776   6.045   0.760  14.893 -0.6871 -2.2320  1.0220
 8787TIP3    H247777   6.149   0.669  14.832  0.0080 -0.5063 -0.4686
 8788TIP3   OH247778   2.564   0.286   5.210 -0.2636  0.1817 -0.0060
 8788TIP3    H147779   2.487   0.291   5.267 -0.3089  0.6373 -0.0982
 8788TIP3    H247780   2.638   0.278   5.270 -0.3229  0.5253  0.1194
 8789TIP3   OH247781   0.381   0.737   4.046 -0.1511  0.1184 -0.1671
 8789TIP3    H147782   0.460   0.791   4.045 -0.2620  0.3080  0.5068
 8789TIP3    H247783   0.379   0.696   3.960  0.5843  0.2517 -0.2590
 8790TIP3   OH247784   2.054   2.401   4.820 -0.3954  0.0775  0.0838
 8790TIP3    H147785   2.101   2.340   4.877 -0.0868 -0.9552 -1.2246
 8790TIP3    H247786   2.086   2.381   4.732 -2.2380  0.3205 -0.6845
 8791TIP3   OH247787   4.305   5.476  12.101 -0.0209 -0.0877 -0.0244
 8791TIP3    H147788   4.257   5.397  12.125  1.1163 -1.3369 -1.6265
 8791TIP3    H247789   4.238   5.543  12.094 -0.8434 -0.4788  2.8245
 8792TIP3   OH247790   5.182   0.201  11.534  0.0903  0.2330  0.4932
 8792TIP3    H147791   5.186   0.287  11.494 -1.0846 -0.5768 -1.5438
 8792TIP3    H247792   5.230   0.144  11.473 -0.8224 -0.8634  0.7712
 8793TIP3   OH247793   3.940   6.398  15.934  0.7040 -0.3061 -0.5938
 8793TIP3    H147794   3.904   6.316  15.968 -1.3478  0.1508 -1.5140
 8793TIP3    H247795   4.019   6.371  15.887  0.4576 -1.6673 -0.2895
 8794TIP3   OH247796   1.470   1.972  13.923  0.3883 -0.0017 -0.3458
 8794TIP3    H147797   1.376   1.990  13.932  0.5724  0.3319  1.4389
 8794TIP3    H247798   1.487   1.902  13.986  1.6223  1.2046  0.7506
 8795TIP3   OH247799   2.445   3.357  15.957  0.6299  0.4235 -0.1845
 8795TIP3    H147800   2.462   3.389  15.868 -0.1624  2.5289  0.3571
 8795TIP3    H247801   2.482   3.425  16.014  0.6662 -0.6376  1.0871
 8796TIP3   OH247802   6.224   4.471   1.242  0.3510  0.0395 -0.2197
 8796TIP3    H147803   6.290   4.508   1.183  0.1348  1.3581  0.3261
 8796TIP3    H247804   6.237   4.377   1.236  2.0326  0.2523 -0.4211
 8797TIP3   OH247805   1.400   0.779   3.001 -0.0570 -0.4729  0.1467
 8797TIP3    H147806   1.414   0.827   2.919  0.1822  0.7558  0.8879
 8797TIP3    H247807   1.344   0.705   2.976 -0.4162  0.1700 -1.0219
 8798TIP3   OH247808   1.724   6.564   4.937  0.0500  0.1030  0.0092
 8798TIP3    H147809   1.732   6.599   4.849 -2.7546 -1.8179 -1.1400
 8798TIP3    H247810   1.801   6.507   4.947 -1.1024 -2.1090 -2.5190
 8799TIP3   OH247811   0.323   5.393  12.615  0.1325  0.0422  0.0503
 8799TIP3    H147812   0.324   5.389  12.519 -2.7514  1.2326 -0.1229
 8799TIP3    H247813   0.355   5.306  12.642 -0.8301 -1.0342 -2.0260
 8800TIP3   OH247814   2.273   0.791   2.184 -0.1819 -0.0096 -0.3505
 8800TIP3    H147815   2.365   0.765   2.189 -0.2244 -0.7575 -2.4479
 8800TIP3    H247816   2.231   0.722   2.133 -0.6373  3.1265 -4.8261
 8801TIP3   OH247817   5.533   1.694  14.009  0.0216 -0.4038 -0.3752
 8801TIP3    H147818   5.554   1.611  14.051 -0.3246 -0.6176 -0.6203
 8801TIP3    H247819   5.597   1.703  13.939  0.0030 -0.5085 -0.4055
 8802TIP3   OH247820   2.871   5.145  16.680  0.2001 -0.6950  0.0497
 8802TIP3    H147821   2.828   5.077  16.731  2.7161 -2.3574  0.1345
 8802TIP3    H247822   2.964   5.126  16.688  0.9763  2.2826 -0.6735
 8803TIP3   OH247823   4.099   1.305  11.340  0.2871  0.3987  0.0077
 8803TIP3    H147824   4.192   1.326  11.342  0.2965  0.4926 -0.9986
 8803TIP3    H247825   4.074   1.314  11.248 -0.1314 -2.2045 -0.2017
 8804TIP3   OH247826   1.133   2.466   3.119 -0.0945  0.0402 -0.0376
 8804TIP3    H147827   1.084   2.415   3.056  0.5121  0.1804 -0.6281
 8804TIP3    H247828   1.078   2.466   3.198  0.9740 -3.6350  0.8763
 8805TIP3   OH247829   2.081   1.187  15.402 -0.6242  0.1647 -0.2585
 8805TIP3    H147830   2.164   1.140  15.402 -0.2972  0.7222  0.3306
 8805TIP3    H247831   2.042   1.166  15.487 -0.9113  0.2109 -0.3769
 8806TIP3   OH247832   1.005   0.372   3.859  0.5100 -0.2110  0.0961
 8806TIP3    H147833   0.954   0.452   3.877 -0.1221 -0.1268 -1.8277
 8806TIP3    H247834   1.095   0.397   3.879  0.2780  0.9008 -0.1393
 8807TIP3   OH247835   5.510   3.911  14.504  0.0689  0.0357  0.1591
 8807TIP3    H147836   5.540   3.937  14.417 -0.2805 -0.9668 -0.2723
 8807TIP3    H247837   5.469   3.990  14.540 -0.4293  0.2581 -0.8701
 8808TIP3   OH247838   0.959   6.126  12.127  0.2960 -0.3809 -0.2609
 8808TIP3    H147839   0.919   6.205  12.090  1.6582 -0.4211 -2.0097
 8808TIP3    H247840   1.019   6.158  12.193 -2.3113 -0.3092  2.2528
 8809TIP3   OH247841   0.571   5.939   0.937 -0.2207 -0.3997  0.0204
 8809TIP3    H147842   0.540   5.897   0.857 -1.3032 -0.6852  0.5829
 8809TIP3    H247843   0.517   5.903   1.006  0.4076  0.1824  0.8370
 8810TIP3   OH247844   1.850   6.396   2.009 -0.6379  0.0229  0.5719
 8810TIP3    H147845   1.770   6.373   2.057 -0.2485 -0.5256  0.9719
 8810TIP3    H247846   1.858   6.328   1.942 -1.8073  1.4238 -1.0668
 8811TIP3   OH247847   6.185   0.930   0.879  0.6603 -0.6096 -0.0755
 8811TIP3    H147848   6.092   0.913   0.863  0.6377 -1.3351  0.7707
 8811TIP3    H247849   6.191   0.948   0.973  1.4066 -0.7525 -0.0890
 8812TIP3   OH247850   3.746   3.618   5.671  0.4575  0.0633  0.0449
 8812TIP3    H147851   3.802   3.610   5.749  1.1521 -1.7883 -0.5800
 8812TIP3    H247852   3.707   3.531   5.661 -2.4638  1.2374  0.3422
 8813TIP3   OH247853   3.837   3.903   3.390 -0.3379 -0.6507 -0.6105
 8813TIP3    H147854   3.840   3.915   3.295 -0.0623 -1.4461 -0.7127
 8813TIP3    H247855   3.929   3.904   3.417 -0.4339 -0.0609 -0.3022
 8814TIP3   OH247856   6.586   1.505  16.990 -0.0576  0.5544  0.2588
 8814TIP3    H147857   6.640   1.569  16.943  0.1176  0.3123  0.1276
 8814TIP3    H247858   6.505   1.501  16.940  0.4825 -0.4047 -0.5956
 8815TIP3   OH247859   1.394   2.825   5.269 -0.1876 -0.6961  0.2049
 8815TIP3    H147860   1.485   2.823   5.298  0.1711  0.6145 -0.7748
 8815TIP3    H247861   1.351   2.889   5.327  0.4754  1.7420 -1.8376
 8816TIP3   OH247862   6.322   2.758  11.232  0.0333  0.3606 -0.0701
 8816TIP3    H147863   6.375   2.685  11.264  0.9285  1.2692  0.5658
 8816TIP3    H247864   6.237   2.718  11.210  0.2483 -0.7381  1.0035
 8817TIP3   OH247865   5.118   1.169   2.703 -0.2259  0.2970 -0.1598
 8817TIP3    H147866   5.025   1.189   2.714  0.1537  1.4688  1.2907
 8817TIP3    H247867   5.152   1.161   2.793  1.0335 -0.2976 -0.6593
 8818TIP3   OH247868   1.855   0.170   6.070 -0.5894  0.1836 -0.3949
 8818TIP3    H147869   1.909   0.237   6.028 -0.7014  0.2737 -0.3973
 8818TIP3    H247870   1.860   0.190   6.164 -0.3185 -0.0328 -0.3614
 8819TIP3   OH247871   2.437   1.747  14.267 -0.3642 -0.3161  0.2156
 8819TIP3    H147872   2.369   1.717  14.327  0.9381 -0.7789  1.5372
 8819TIP3    H247873   2.494   1.802  14.321  0.1255  0.3520 -0.9391
 8820TIP3   OH247874   5.169   5.576  11.381 -0.3536 -0.1142  0.0296
 8820TIP3    H147875   5.262   5.556  11.367  0.5166  3.9006 -0.9733
 8820TIP3    H247876   5.155   5.558  11.474  2.5385  2.6197  1.1709
 8821TIP3   OH247877   3.085   5.862  16.548  0.0156 -0.1344 -0.0799
 8821TIP3    H147878   3.141   5.879  16.472  1.0923 -2.3624  0.1333
 8821TIP3    H247879   3.039   5.781  16.526 -0.6633 -0.0807  1.0877
 8822TIP3   OH247880   0.693   5.679  13.001 -0.5084 -0.1308 -0.8022
 8822TIP3    H147881   0.763   5.706  13.060 -0.5292  0.4867 -1.0526
 8822TIP3    H247882   0.704   5.734  12.923 -1.5024  0.2497 -0.6862
 8823TIP3   OH247883   4.649   3.452   0.812 -0.0415  0.0155  0.0639
 8823TIP3    H147884   4.723   3.428   0.756 -0.8487  1.3423 -1.6288
 8823TIP3    H247885   4.572   3.440   0.757 -1.1788 -1.4774  1.8422
 8824TIP3   OH247886   3.114   5.648  15.009 -0.3347  0.5173 -0.0902
 8824TIP3    H147887   3.030   5.694  15.014  0.4739  1.9833  0.5310
 8824TIP3    H247888   3.169   5.690  15.075  0.9188 -0.3692 -0.5224
 8825TIP3   OH247889   5.314   0.875   6.142  0.6918  0.1855  0.4794
 8825TIP3    H147890   5.402   0.850   6.114  0.8927 -0.5065  1.6399
 8825TIP3    H247891   5.281   0.932   6.072  1.1744 -1.3750 -1.0940
 8826TIP3   OH247892   3.873   5.371   0.558  0.0420 -0.0663 -0.6118
 8826TIP3    H147893   3.889   5.282   0.526 -1.9315 -1.0550  0.9274
 8826TIP3    H247894   3.845   5.359   0.649  3.5161  2.4323  1.0214
 8827TIP3   OH247895   0.624   2.104  14.552  0.1482  0.3563  0.3760
 8827TIP3    H147896   0.572   2.024  14.560  2.6508 -1.4511 -0.3853
 8827TIP3    H247897   0.651   2.124  14.642 -0.5406  0.4363  0.5766
 8828TIP3   OH247898   5.874   6.556   2.866 -0.0573  0.3109 -0.0719
 8828TIP3    H147899   5.904   6.616   2.933 -1.0657 -0.9038  1.5346
 8828TIP3    H247900   5.930   6.479   2.875 -0.0634  0.2094 -0.7857
 8829TIP3   OH247901   6.562   5.207   0.155 -0.5344 -0.0942  0.3037
 8829TIP3    H147902   6.466   5.203   0.161 -0.5333 -1.6125 -0.3532
 8829TIP3    H247903   6.579   5.289   0.108 -1.6392 -0.8097 -1.4551
 8830TIP3   OH247904   6.378   4.254  14.154  1.2991 -0.1669  0.0348
 8830TIP3    H147905   6.405   4.345  14.147  0.4223  0.2315  1.3861
 8830TIP3    H247906   6.284   4.255  14.135  1.2434 -0.7551  0.2416
 8831TIP3   OH247907   4.629   1.253  12.739 -0.0790  0.0155 -0.8531
 8831TIP3    H147908   4.713   1.295  12.722  1.1092 -1.5830  0.7577
 8831TIP3    H247909   4.632   1.170  12.692  1.1020 -2.0013  2.3929
 8832TIP3   OH247910   3.976   2.983   5.762 -0.2639 -0.0831  0.2847
 8832TIP3    H147911   3.953   2.900   5.804 -0.0311 -0.2487  0.0854
 8832TIP3    H247912   3.939   3.050   5.820 -1.3559 -0.3417 -0.0861
 8833TIP3   OH247913   6.471   6.057   6.432 -0.3688  0.5716 -0.2239
 8833TIP3    H147914   6.435   6.012   6.355  0.3031  0.6501 -0.5913
 8833TIP3    H247915   6.436   6.146   6.427 -2.5911 -0.1451  1.0936
 8834TIP3   OH247916   3.447   4.958  11.299 -0.2667 -0.2990 -0.3874
 8834TIP3    H147917   3.482   5.047  11.308 -1.1640 -0.0664  1.3082
 8834TIP3    H247918   3.525   4.902  11.292  0.4258  0.3927  1.2510
 8835TIP3   OH247919   3.667   4.556   5.784  0.0307 -0.2961 -0.0275
 8835TIP3    H147920   3.737   4.572   5.721 -0.2012 -0.8866 -0.4451
 8835TIP3    H247921   3.696   4.601   5.864  0.5923 -0.0200 -0.3787
 8836TIP3   OH247922   6.506   3.603  16.638  0.2780 -0.0488 -0.5426
 8836TIP3    H147923   6.472   3.691  16.626  0.7268 -0.1567 -3.1096
 8836TIP3    H247924   6.578   3.596  16.576  0.1742 -2.2737 -0.5119
 8837TIP3   OH247925   6.008   4.554  11.235  0.1311  0.5124  0.1771
 8837TIP3    H147926   5.994   4.637  11.189 -2.1819 -0.0076 -0.2056
 8837TIP3    H247927   6.103   4.540  11.232  0.5919  3.1187  0.2772
 8838TIP3   OH247928   2.433   4.156  15.947 -0.1732  0.6088  0.4144
 8838TIP3    H147929   2.441   4.251  15.940  1.2923  0.5129  0.4385
 8838TIP3    H247930   2.341   4.141  15.965 -0.5912  1.9733 -0.4456
 8839TIP3   OH247931   5.125   3.273  17.133  0.0450 -0.3634  0.9903
 8839TIP3    H147932   5.075   3.299  17.211 -0.2494 -0.4285  0.8268
 8839TIP3    H247933   5.144   3.355  17.089 -1.2344 -0.4362  0.2635
 8840TIP3   OH247934   4.399   1.529  16.375 -0.0523 -0.6194 -0.0183
 8840TIP3    H147935   4.323   1.588  16.373  0.2033 -0.2852 -0.0486
 8840TIP3    H247936   4.473   1.586  16.355 -0.1581 -1.5653 -3.9673
 8841TIP3   OH247937   3.618   4.118  11.366  0.0206  0.4383  0.4843
 8841TIP3    H147938   3.693   4.066  11.337 -1.3908 -1.4639  0.0896
 8841TIP3    H247939   3.572   4.061  11.428 -0.5392  1.9811  1.5470
 8842TIP3   OH247940   1.285   0.479  10.536 -0.7785 -0.0963 -0.1063
 8842TIP3    H147941   1.211   0.538  10.525  0.5630  1.3609 -1.9574
 8842TIP3    H247942   1.351   0.511  10.474  1.3724 -1.3752  1.3819
 8843TIP3   OH247943   5.350   4.513  12.472 -0.1525 -0.7475 -0.4420
 8843TIP3    H147944   5.301   4.573  12.528  0.4858 -2.4729  2.1455
 8843TIP3    H247945   5.436   4.506  12.512  0.6514 -1.4339 -2.1712
 8844TIP3   OH247946   4.287   3.563  11.626  0.0413  0.6554 -0.1433
 8844TIP3    H147947   4.200   3.554  11.585 -0.3424 -0.2545  0.8064
 8844TIP3    H247948   4.342   3.502  11.577 -0.1324  0.4188 -0.0474
 8845TIP3   OH247949   0.921   5.351   2.022 -0.2213  0.0170  0.0286
 8845TIP3    H147950   0.867   5.318   2.094  1.4469 -1.2393  0.7731
 8845TIP3    H247951   0.860   5.400   1.966 -1.4959  1.4867  2.5376
 8846TIP3   OH247952   6.122   1.469  11.593  0.0518 -0.1243  0.0296
 8846TIP3    H147953   6.066   1.449  11.668 -1.1575  0.7121 -0.6179
 8846TIP3    H247954   6.117   1.390  11.538 -0.6072 -0.0054 -0.0885
 8847TIP3   OH247955   3.205   0.832   0.867  0.5205  0.4573 -0.1403
 8847TIP3    H147956   3.283   0.804   0.914  1.5745  0.6622 -1.7272
 8847TIP3    H247957   3.133   0.809   0.926  1.6718 -0.9371  0.8019
 8848TIP3   OH247958   6.076   0.659   1.331  0.2805  0.5644  0.5799
 8848TIP3    H147959   6.087   0.746   1.291 -0.7363 -0.1516 -1.3774
 8848TIP3    H247960   6.037   0.677   1.417  2.6875  2.1775  1.4586
 8849TIP3   OH247961   3.585   3.267   5.360  0.2597 -0.0228  0.4074
 8849TIP3    H147962   3.520   3.304   5.420 -0.3172 -0.8441  0.3055
 8849TIP3    H247963   3.544   3.273   5.274  0.4601 -0.2305  0.2974
 8850TIP3   OH247964   5.034   3.011  16.042 -0.1882  0.1015 -0.0162
 8850TIP3    H147965   4.972   3.053  15.982 -0.0645 -1.5243 -1.3611
 8850TIP3    H247966   5.113   2.998  15.989  0.1357 -0.8482  0.6822
 8851TIP3   OH247967   1.735   2.880  13.209 -0.0186  0.8313 -0.0024
 8851TIP3    H147968   1.769   2.800  13.169 -0.9116  0.5765 -0.2798
 8851TIP3    H247969   1.813   2.929  13.234  0.5695  0.8363 -1.7283
 8852TIP3   OH247970   1.814   0.506   1.688 -0.1232 -0.1330 -0.2539
 8852TIP3    H147971   1.808   0.481   1.596  0.5146 -1.5495  0.0668
 8852TIP3    H247972   1.876   0.579   1.689 -0.9250  0.5822 -1.0515
 8853TIP3   OH247973   3.693   0.238  13.105 -0.1913  0.0268  0.1257
 8853TIP3    H147974   3.652   0.324  13.102 -0.9096 -0.3239 -1.1710
 8853TIP3    H247975   3.680   0.208  13.195 -1.6274  0.4919  0.1006
 8854TIP3   OH247976   1.424   2.774  16.229 -0.1256  0.2350 -0.0608
 8854TIP3    H147977   1.397   2.705  16.169  0.9984 -0.2281 -0.0542
 8854TIP3    H247978   1.519   2.782  16.217 -0.3114  2.3348 -0.6397
 8855TIP3   OH247979   2.646   4.866  12.622 -0.5033  0.2603  0.6128
 8855TIP3    H147980   2.695   4.870  12.540 -0.3527 -0.7121  0.6498
 8855TIP3    H247981   2.673   4.945  12.670  1.3347 -0.4346  0.8000
 8856TIP3   OH247982   6.612   3.585   3.363  0.4178 -0.8108  0.0102
 8856TIP3    H147983   6.639   3.510   3.416 -0.0898 -0.9587  0.0574
 8856TIP3    H247984   6.578   3.649   3.426  1.3985 -0.2907  0.0349
 8857TIP3   OH247985   3.349   1.244  14.498 -0.0018  0.4735  0.2208
 8857TIP3    H147986   3.378   1.153  14.495  0.1501  0.5265  0.0192
 8857TIP3    H247987   3.295   1.255  14.419  1.2597  0.9772 -0.6132
 8858TIP3   OH247988   4.619   3.837  17.203  0.0280  0.9114 -0.4843
 8858TIP3    H147989   4.528   3.821  17.179 -0.3559 -0.7233  1.7332
 8858TIP3    H247990   4.615   3.861  17.295  1.8490  0.7737 -0.3389
 8859TIP3   OH247991   0.212   4.135  13.232  0.4717  0.0652  0.0952
 8859TIP3    H147992   0.295   4.131  13.280  0.2284  1.1070  0.6404
 8859TIP3    H247993   0.235   4.109  13.143  1.4617  0.6736  0.1587
 8860TIP3   OH247994   6.206   6.225   0.131  0.0228 -0.0340  0.6504
 8860TIP3    H147995   6.239   6.140   0.103  0.3284 -0.6338  2.6378
 8860TIP3    H247996   6.121   6.234   0.087  0.1991 -1.1429  0.0561
 8861TIP3   OH247997   3.055   5.908   5.197 -0.0072  0.3513 -0.0778
 8861TIP3    H147998   3.008   5.853   5.259  0.5052 -1.1065 -0.9217
 8861TIP3    H247999   3.007   5.898   5.115  2.5067 -2.5164 -1.4268
 8862TIP3   OH248000   6.494   2.253   1.468 -0.8060 -0.4992 -0.5471
 8862TIP3    H148001   6.562   2.195   1.434 -1.4444 -0.7439 -1.4629
 8862TIP3    H248002   6.457   2.206   1.543 -0.8223 -0.9532 -0.8346
 8863TIP3   OH248003   2.831   3.957   3.395 -0.1246  0.3722 -0.2755
 8863TIP3    H148004   2.913   3.994   3.429  1.2964 -0.4759 -2.5268
 8863TIP3    H248005   2.840   3.964   3.299 -2.7668  0.3578 -0.5805
 8864TIP3   OH248006   2.108   6.335  13.700  0.1652  0.3766  0.6035
 8864TIP3    H148007   2.074   6.373  13.618 -0.5468 -0.8624  0.2955
 8864TIP3    H248008   2.123   6.243  13.679  1.1780  0.3123  1.5304
 8865TIP3   OH248009   5.859   5.319   0.540  0.8129 -0.6196 -0.5907
 8865TIP3    H148010   5.766   5.328   0.519  0.7002  0.4343  0.2357
 8865TIP3    H248011   5.895   5.266   0.469  0.0693  1.0513 -2.2912
 8866TIP3   OH248012   5.818   5.857   3.904  0.5884 -0.1266 -0.1085
 8866TIP3    H148013   5.732   5.857   3.863  1.7103  0.4784 -2.6637
 8866TIP3    H248014   5.826   5.945   3.943  0.3221  0.0777 -0.5040
 8867TIP3   OH248015   3.205   1.248  16.061 -0.4103  0.1273 -0.4214
 8867TIP3    H148016   3.127   1.227  16.113  1.0148  1.2609  2.4145
 8867TIP3    H248017   3.180   1.326  16.012 -1.5284 -0.4311 -0.7830
 8868TIP3   OH248018   0.301   4.045  14.508 -0.0386 -0.3324  0.0093
 8868TIP3    H148019   0.323   3.952  14.517  1.0224 -0.0454  0.6138
 8868TIP3    H248020   0.341   4.086  14.584  0.6189  0.7942 -0.9043
 8869TIP3   OH248021   5.775   1.838  13.120  0.1157  0.2193 -0.2021
 8869TIP3    H148022   5.745   1.747  13.125 -1.2420  0.7039  2.0874
 8869TIP3    H248023   5.789   1.854  13.027  0.7728 -2.4287 -0.6364
 8870TIP3   OH248024   2.182   3.581  11.904 -0.1473  0.3806  0.3617
 8870TIP3    H148025   2.277   3.571  11.911 -0.0712  0.1968 -0.7496
 8870TIP3    H248026   2.170   3.657  11.848 -0.6681  0.5825  0.7374
 8871TIP3   OH248027   4.431   5.694   1.321 -0.9296  0.2742 -0.3105
 8871TIP3    H148028   4.411   5.783   1.291 -1.7694 -0.0204 -0.6646
 8871TIP3    H248029   4.345   5.653   1.333 -0.5599 -0.9510 -1.5756
 8872TIP3   OH248030   6.095   3.108  14.896 -0.4734 -0.2005  0.3507
 8872TIP3    H148031   6.150   3.054  14.839 -0.5875 -1.6842  1.5792
 8872TIP3    H248032   6.120   3.198  14.875 -1.6121 -0.5503 -3.1559
 8873TIP3   OH248033   2.595   1.990   1.087 -0.0313  0.0907 -0.2764
 8873TIP3    H148034   2.514   1.938   1.079  0.9797 -1.5932 -0.0405
 8873TIP3    H248035   2.570   2.066   1.139 -2.1860  1.2547 -2.7651
 8874TIP3   OH248036   0.482   2.619  16.115 -0.1122 -0.3093  0.0703
 8874TIP3    H148037   0.527   2.639  16.197 -1.3413 -0.4638  0.8102
 8874TIP3    H248038   0.549   2.577  16.060  1.3182  1.7162  0.1539
 8875TIP3   OH248039   1.580   0.869   0.119  0.1565 -0.1305 -0.2262
 8875TIP3    H148040   1.664   0.912   0.133  0.4459 -1.1890  1.7425
 8875TIP3    H248041   1.602   0.783   0.082 -0.4407  1.3582 -4.6238
 8876TIP3   OH248042   4.773   3.183   3.944  0.3980 -0.0822  0.2582
 8876TIP3    H148043   4.761   3.093   3.974 -3.4399  0.1124 -0.1179
 8876TIP3    H248044   4.735   3.184   3.856 -1.4860  2.1892  0.9662
 8877TIP3   OH248045   2.398   2.440   0.105  0.3973 -0.2089  0.2113
 8877TIP3    H148046   2.325   2.417   0.163  0.4946  1.7135  1.1959
 8877TIP3    H248047   2.424   2.358   0.064 -1.0674 -1.2620  1.3029
 8878TIP3   OH248048   5.704   0.244  14.204 -1.1455  0.4051 -0.6561
 8878TIP3    H148049   5.750   0.221  14.285 -0.0403 -0.3299 -1.4710
 8878TIP3    H248050   5.639   0.175  14.194 -1.1683  0.3999 -0.4813
 8879TIP3   OH248051   4.617   2.717  13.422  0.5196  0.0025 -0.4962
 8879TIP3    H148052   4.669   2.794  13.445  0.1229  0.3777 -0.8381
 8879TIP3    H248053   4.534   2.752  13.391 -0.5121 -0.6177  1.4138
 8880TIP3   OH248054   0.647   0.773  12.128  0.4008  0.5007 -0.4945
 8880TIP3    H148055   0.618   0.741  12.043  1.1225  0.3485 -0.6955
 8880TIP3    H248056   0.730   0.817  12.110  1.3509 -0.8541  0.3214
 8881TIP3   OH248057   0.579   2.812   4.015  0.1073 -0.4315  0.2642
 8881TIP3    H148058   0.612   2.746   3.954  0.7196  0.0181  0.1000
 8881TIP3    H248059   0.645   2.817   4.084 -0.5526 -0.8894  0.9378
 8882TIP3   OH248060   4.970   6.538  13.400 -0.7825 -0.1340  0.2411
 8882TIP3    H148061   4.918   6.606  13.443 -2.2318 -0.3726 -1.0429
 8882TIP3    H248062   4.947   6.545  13.308  0.8435 -0.8408 -0.2475
 8883TIP3   OH248063   3.217   4.335   4.549 -0.6513 -0.2517  0.0639
 8883TIP3    H148064   3.310   4.320   4.564 -0.8453 -0.8264  0.7395
 8883TIP3    H248065   3.212   4.425   4.516  0.2685 -0.6598 -1.2999
 8884TIP3   OH248066   1.283   0.404  13.343  0.3497  0.1764 -0.1302
 8884TIP3    H148067   1.367   0.450  13.341 -1.5903  4.5021  2.6695
 8884TIP3    H248068   1.241   0.425  13.259  1.7127 -1.5985 -1.3279
 8885TIP3   OH248069   2.172   2.742  12.844  0.4026 -0.4441  0.3770
 8885TIP3    H148070   2.121   2.788  12.910 -1.4105  1.0458 -1.8681
 8885TIP3    H248071   2.138   2.776  12.760  3.3770 -1.2789 -1.3178
 8886TIP3   OH248072   6.144   2.368   0.172 -0.2597 -0.6094 -0.2199
 8886TIP3    H148073   6.151   2.429   0.099  1.2816 -1.9363 -1.2562
 8886TIP3    H248074   6.169   2.283   0.135  0.9475 -1.2716  1.9153
 8887TIP3   OH248075   3.827   0.239   4.934  0.4169  0.3215 -0.0213
 8887TIP3    H148076   3.880   0.291   4.994  1.2637 -0.9617  0.4030
 8887TIP3    H248077   3.737   0.252   4.964  0.8679 -0.8945  2.0754
 8888TIP3   OH248078   3.386   6.647   3.533 -0.1657  0.2461  0.5228
 8888TIP3    H148079   3.323   6.607   3.473 -0.1254  0.8009  0.1032
 8888TIP3    H248080   3.466   6.656   3.481 -0.1010  0.6365  0.6864
 8889TIP3   OH248081   0.154   1.667  11.435 -0.1480 -0.3661  0.2467
 8889TIP3    H148082   0.121   1.599  11.377  1.2945 -0.7606 -0.1366
 8889TIP3    H248083   0.217   1.715  11.382  0.6675 -0.2803  1.2685
 8890TIP3   OH248084   2.838   3.062  14.604  0.4990  0.0126  0.2391
 8890TIP3    H148085   2.825   2.988  14.663 -0.8865 -1.1118 -1.4185
 8890TIP3    H248086   2.844   3.024  14.517  3.5771  1.5360 -0.3642
 8891TIP3   OH248087   6.451   6.733  17.208 -0.1999 -0.6394 -0.9137
 8891TIP3    H148088   6.428   6.682  17.131 -0.2626 -0.0206 -1.3158
 8891TIP3    H248089   6.541   6.761  17.193  1.6002 -4.3842  1.3664
 8892TIP3   OH248090   2.450   4.885   2.239  0.3231  0.2108 -0.5482
 8892TIP3    H148091   2.457   4.799   2.281  0.6209  0.3803 -0.2442
 8892TIP3    H248092   2.537   4.900   2.201  0.3293  0.4674 -0.4296
 8893TIP3   OH248093   1.880   3.091  12.027 -0.5046 -0.7297  0.5377
 8893TIP3    H148094   1.945   3.095  11.956  0.5646 -2.0244  1.3912
 8893TIP3    H248095   1.802   3.054  11.987 -0.1078 -0.8891 -0.1025
 8894TIP3   OH248096   5.705   2.237   3.030 -0.1800  0.7373 -0.2867
 8894TIP3    H148097   5.697   2.331   3.046  0.2627  0.5562  1.2082
 8894TIP3    H248098   5.792   2.214   3.064 -1.1831 -0.5921  1.6241
 8895TIP3   OH248099   0.653   4.101  15.878 -0.6003 -0.5253 -0.1205
 8895TIP3    H148100   0.676   4.134  15.791  0.5234 -1.1756 -0.0990
 8895TIP3    H248101   0.558   4.098  15.879 -0.7316  1.7183 -0.4751
 8896TIP3   OH248102   2.512   5.797  13.096  0.2660 -0.2976  0.1527
 8896TIP3    H148103   2.558   5.881  13.091  1.2930 -0.7189  1.6723
 8896TIP3    H248104   2.470   5.787  13.011  1.9092  0.7477 -0.8224
 8897TIP3   OH248105   1.724   5.138   0.503 -0.2146 -0.9997  0.3924
 8897TIP3    H148106   1.815   5.166   0.507 -0.9001  1.4510  0.4608
 8897TIP3    H248107   1.698   5.128   0.595 -0.6374  0.6769  0.4852
 8898TIP3   OH248108   0.675   2.623   5.804  0.1965  0.0535  0.0497
 8898TIP3    H148109   0.587   2.592   5.822  0.3702 -0.9213 -0.6693
 8898TIP3    H248110   0.664   2.696   5.744 -0.0645 -1.3159 -1.6341
 8899TIP3   OH248111   2.502   5.101   4.896 -0.3470  0.8940  0.2565
 8899TIP3    H148112   2.484   5.190   4.866 -1.9846  0.9143  1.2095
 8899TIP3    H248113   2.421   5.052   4.880 -0.2830  0.1801  1.8624
 8900TIP3   OH248114   0.565   3.838   0.625 -0.0743  0.0501 -0.4801
 8900TIP3    H148115   0.597   3.917   0.580 -0.8982  1.7454  1.7058
 8900TIP3    H248116   0.488   3.868   0.673 -1.4913 -2.5588 -0.9551
 8901TIP3   OH248117   6.233   3.650   3.619 -0.1268 -0.4003 -0.2178
 8901TIP3    H148118   6.199   3.601   3.694  0.3429  0.3267  0.4852
 8901TIP3    H248119   6.187   3.614   3.543 -2.2573  0.3621  0.6442
 8902TIP3   OH248120   3.403   1.996   0.100  0.0242 -0.2076  0.9395
 8902TIP3    H148121   3.493   1.970   0.120 -0.2859 -0.9764  1.3665
 8902TIP3    H248122   3.396   1.990   0.005 -0.1817 -2.2426  1.0405
 8903TIP3   OH248123   6.733   1.854   3.825  0.8218 -0.3216 -0.2137
 8903TIP3    H148124   6.688   1.934   3.852  0.6877 -0.9521  1.5770
 8903TIP3    H248125   6.699   1.836   3.737 -3.0881 -1.1693  1.2652
 8904TIP3   OH248126   2.327   4.570   3.255  0.0914  0.0063 -0.2370
 8904TIP3    H148127   2.404   4.513   3.262 -1.4850 -2.2990 -0.8089
 8904TIP3    H248128   2.277   4.553   3.334  0.5057  2.1841  0.5867
 8905TIP3   OH248129   3.761   0.389  15.944 -0.3501 -0.0301 -0.2424
 8905TIP3    H148130   3.839   0.406  15.996 -0.8096  1.0500  0.1123
 8905TIP3    H248131   3.777   0.433  15.861 -1.4692  2.1198  0.6144
 8906TIP3   OH248132   2.623   6.119   2.883  0.0547 -0.2489 -0.2582
 8906TIP3    H148133   2.574   6.054   2.834 -1.0579 -0.4906  1.1024
 8906TIP3    H248134   2.644   6.187   2.819  1.5610 -2.0708 -1.7928
 8907TIP3   OH248135   0.095   5.285  12.415 -0.1394 -0.3806  0.2416
 8907TIP3    H148136   0.015   5.316  12.457 -1.2313 -2.0272 -0.4911
 8907TIP3    H248137   0.136   5.364  12.379 -0.8510  0.6244  1.5486
 8908TIP3   OH248138   6.545   0.374   3.847  0.1209  0.0367 -0.3322
 8908TIP3    H148139   6.611   0.442   3.842  1.1324 -0.9129 -0.3349
 8908TIP3    H248140   6.571   0.320   3.921 -0.9738 -0.0422  0.0174
 8909TIP3   OH248141   3.177   0.973   5.500 -0.5156 -0.2833  0.4883
 8909TIP3    H148142   3.250   0.969   5.438 -0.3713 -1.8252  0.7108
 8909TIP3    H248143   3.199   0.909   5.568 -1.6689 -0.1637  1.0095
 8910TIP3   OH248144   3.457   2.597  17.192 -0.1927 -0.0740  0.8171
 8910TIP3    H148145   3.398   2.660  17.152 -0.4927 -1.2351 -0.6260
 8910TIP3    H248146   3.534   2.649  17.217 -0.4935  0.8930 -0.2089
 8911TIP3   OH248147   3.021   5.481  16.200  0.0835  0.3027 -0.4696
 8911TIP3    H148148   2.954   5.540  16.234 -0.4569 -0.8165  0.4885
 8911TIP3    H248149   3.050   5.431  16.276 -0.8741 -2.0165 -1.5257
 8912TIP3   OH248150   0.128   1.547  16.537 -0.0405 -0.0508  0.9933
 8912TIP3    H148151   0.060   1.483  16.558 -0.1632  0.5904  2.7249
 8912TIP3    H248152   0.086   1.608  16.476 -0.6252 -0.3748  1.0652
 8913TIP3   OH248153   4.691   1.306  15.419  0.3987  0.4374 -0.6092
 8913TIP3    H148154   4.751   1.350  15.359  0.5233 -1.2512 -1.7862
 8913TIP3    H248155   4.718   1.214  15.417 -0.4366  0.1039  1.0440
 8914TIP3   OH248156   5.452   6.568  15.014  0.5250 -0.5751 -0.3588
 8914TIP3    H148157   5.411   6.553  15.099  0.4855  0.1419 -0.2457
 8914TIP3    H248158   5.520   6.634  15.032 -1.2737  1.6735 -1.3436
 8915TIP3   OH248159   0.115   2.456   3.378  0.2170  0.3996 -0.1214
 8915TIP3    H148160   0.059   2.453   3.300  1.5778  0.3719 -1.1347
 8915TIP3    H248161   0.146   2.366   3.388  1.4931  0.7621 -0.6573
 8916TIP3   OH248162   4.648   3.546  17.029 -0.0425  0.6093  0.0688
 8916TIP3    H148163   4.681   3.635  17.044  2.9800 -0.2400 -0.7157
 8916TIP3    H248164   4.691   3.519  16.947 -1.9439 -1.1228 -0.4331
 8917TIP3   OH248165   3.299   1.928  15.746 -0.2593 -0.8789  0.2287
 8917TIP3    H148166   3.326   1.955  15.833 -0.4628 -2.1151  0.7095
 8917TIP3    H248167   3.379   1.895  15.705  0.0633  0.7022 -0.4872
 8918TIP3   OH248168   5.590   4.458  12.660 -0.3104 -0.5885  0.1663
 8918TIP3    H148169   5.608   4.410  12.579  1.3942  0.5058 -0.1737
 8918TIP3    H248170   5.583   4.391  12.727 -0.7279 -1.4546 -0.7228
 8919TIP3   OH248171   5.841   0.638  13.757  0.5611 -0.0844 -0.2692
 8919TIP3    H148172   5.773   0.615  13.820 -0.4252 -1.9016 -1.8890
 8919TIP3    H248173   5.794   0.653  13.675  1.9224  0.9278 -0.9032
 8920TIP3   OH248174   4.432   1.425  15.400  0.3289  0.0567 -0.2099
 8920TIP3    H148175   4.509   1.435  15.456  0.8983 -2.8567 -0.3320
 8920TIP3    H248176   4.416   1.331  15.397 -2.3940  0.4563 -1.3796
 8921TIP3   OH248177   0.481   5.684   1.056 -0.1768 -0.6054  0.5190
 8921TIP3    H148178   0.498   5.600   1.098  0.4275 -0.0179  1.4836
 8921TIP3    H248179   0.461   5.744   1.128  1.1917  0.4984  0.0216
 8922TIP3   OH248180   5.892   3.736   1.516 -0.4306  0.2723 -0.2133
 8922TIP3    H148181   5.925   3.820   1.550  0.6468 -0.3458  0.3160
 8922TIP3    H248182   5.835   3.761   1.443 -0.4155  1.4814  0.1543
 8923TIP3   OH248183   1.654   1.662   3.664  0.6376 -0.1572 -0.1480
 8923TIP3    H148184   1.713   1.660   3.589 -0.0661 -0.7998 -0.7038
 8923TIP3    H248185   1.571   1.627   3.630 -0.8583  2.9757 -0.0575
 8924TIP3   OH248186   4.109   3.236  10.982  0.9046 -0.1208 -0.3648
 8924TIP3    H148187   4.177   3.298  10.956  0.0660  0.1635 -1.9385
 8924TIP3    H248188   4.111   3.169  10.914 -1.3588  0.6464 -1.2591
 8925TIP3   OH248189   1.245   0.866   5.065  0.1388 -0.2162  0.1404
 8925TIP3    H148190   1.307   0.796   5.042  1.0262 -0.4333  2.8593
 8925TIP3    H248191   1.263   0.884   5.157 -1.5015  2.1857  0.0654
 8926TIP3   OH248192   5.859   6.112   4.018  0.0774  0.2434  0.2228
 8926TIP3    H148193   5.898   6.143   3.937 -0.8115 -0.6616 -0.5732
 8926TIP3    H248194   5.915   6.148   4.087  1.1398  0.6032 -0.7980
 8927TIP3   OH248195   6.326   1.579  12.951  0.6357 -0.0292  0.5101
 8927TIP3    H148196   6.296   1.551  13.037  0.0339  0.0306  0.3263
 8927TIP3    H248197   6.302   1.672  12.946  1.0278  0.0686  0.4331
 8928TIP3   OH248198   1.525   6.403  14.789  0.6902  0.5866 -0.4657
 8928TIP3    H148199   1.621   6.402  14.792  0.6566 -0.4087  1.3771
 8928TIP3    H248200   1.498   6.327  14.839 -1.0896  1.5484  0.1280
 8929TIP3   OH248201   1.925   5.076  15.216  0.1104 -0.1345  0.1630
 8929TIP3    H148202   1.950   5.003  15.273  2.0538  1.5020  1.5656
 8929TIP3    H248203   1.832   5.090  15.233 -1.0195 -3.7315 -1.9893
 8930TIP3   OH248204   0.410   4.321  15.512  0.3148  0.1458  0.3227
 8930TIP3    H148205   0.414   4.398  15.456  0.6628 -0.3716 -0.3719
 8930TIP3    H248206   0.366   4.255  15.458  1.5092 -0.6548  0.2996
 8931TIP3   OH248207   1.544   1.450  13.443 -0.7391  0.2020 -0.4903
 8931TIP3    H148208   1.554   1.535  13.399 -0.9551  1.6057  1.9524
 8931TIP3    H248209   1.492   1.398  13.383 -1.8118  2.3010 -1.5082
 8932TIP3   OH248210   6.393   1.355  13.512 -0.3579  0.0181  0.5715
 8932TIP3    H148211   6.344   1.302  13.575 -1.1228  0.3221  0.2479
 8932TIP3    H248212   6.415   1.294  13.441  1.6270 -0.6516  1.6674
 8933TIP3   OH248213   6.322   3.553   1.082  0.5650 -0.2326 -0.1037
 8933TIP3    H148214   6.341   3.476   1.030  1.3412 -1.8664  2.4067
 8933TIP3    H248215   6.369   3.624   1.037  4.0833 -2.1794  0.1101
 8934TIP3   OH248216   0.465   0.056  17.014  0.7478  0.1042  0.7695
 8934TIP3    H148217   0.494  -0.003  16.943  0.0503 -0.9695  1.3438
 8934TIP3    H248218   0.511   0.024  17.091  0.6748  0.5875  1.0134
 8935TIP3   OH248219   1.236   3.637   3.558  0.3137  0.1325  0.0963
 8935TIP3    H148220   1.272   3.725   3.566  0.7262 -0.0753  0.5289
 8935TIP3    H248221   1.294   3.582   3.609 -1.3652 -0.0063  1.9807
 8936TIP3   OH248222   6.087   4.821   3.011 -0.3563 -0.4408 -0.4088
 8936TIP3    H148223   6.041   4.902   2.989 -0.4047 -0.2974  0.1982
 8936TIP3    H248224   6.042   4.753   2.962 -1.3373 -0.3307  0.3147
 8937TIP3   OH248225   2.980   0.929  12.069  0.3552  0.4919 -0.0943
 8937TIP3    H148226   2.934   0.846  12.084  2.2683 -0.3528  1.5369
 8937TIP3    H248227   3.038   0.938  12.144  3.2594  1.1729 -2.2206
 8938TIP3   OH248228   4.514   1.429   5.341  0.6389  0.2484 -0.2876
 8938TIP3    H148229   4.483   1.511   5.301  0.8831  0.2204 -0.5352
 8938TIP3    H248230   4.576   1.458   5.408  0.6091  0.2727 -0.2701
 8939TIP3   OH248231   5.571   0.463   4.301  0.3106 -0.4607 -0.2634
 8939TIP3    H148232   5.503   0.477   4.366 -1.1025  1.0790 -1.9593
 8939TIP3    H248233   5.582   0.368   4.296  0.2116 -0.6160  1.9092
 8940TIP3   OH248234   5.477   3.452  15.294  0.4477 -0.2835 -0.1179
 8940TIP3    H148235   5.405   3.412  15.245 -1.0881  0.4562  1.4287
 8940TIP3    H248236   5.492   3.394  15.368  1.0342 -0.1202 -0.0998
 8941TIP3   OH248237   6.225   5.621   3.661 -0.1656 -0.1318  0.0779
 8941TIP3    H148238   6.206   5.676   3.737 -0.2196  1.0566 -0.7700
 8941TIP3    H248239   6.283   5.553   3.695 -0.1080  0.4337  1.1612
 8942TIP3   OH248240   4.013   0.637  14.139  0.0572  0.0100 -0.3806
 8942TIP3    H148241   4.107   0.642  14.123  0.3063  2.4289  1.3723
 8942TIP3    H248242   4.005   0.601  14.227 -0.8396 -2.4481 -1.3716
 8943TIP3   OH248243   0.949   6.680   5.238 -0.4193  0.0012 -0.3152
 8943TIP3    H148244   1.022   6.674   5.299  0.9189 -2.2692 -1.9518
 8943TIP3    H248245   0.924   6.772   5.239  0.6596  0.3401  2.3079
 8944TIP3   OH248246   6.288   0.543  13.634  0.2116 -0.5582  0.2133
 8944TIP3    H148247   6.214   0.536  13.695  1.4502  1.3802  2.1304
 8944TIP3    H248248   6.268   0.621  13.581 -0.1641 -1.3772 -0.8746
 8945TIP3   OH248249   3.741   6.265  13.944  0.4165  0.2965 -0.1412
 8945TIP3    H148250   3.771   6.197  13.883  0.3723  0.2106 -0.0681
 8945TIP3    H248251   3.656   6.234  13.974  1.4622 -0.8803  1.8050
 8946TIP3   OH248252   3.003   1.741  16.641  0.4402 -0.1220  0.2553
 8946TIP3    H148253   3.041   1.827  16.622 -1.8671  0.8343 -0.3697
 8946TIP3    H248254   2.909   1.758  16.650 -0.3596 -2.8597 -1.7826
 8947TIP3   OH248255   4.040   2.186   2.350  0.4725  0.7008 -0.0661
 8947TIP3    H148256   4.018   2.274   2.380 -0.6270  0.8884 -1.3593
 8947TIP3    H248257   3.972   2.130   2.387 -0.3912  0.8082 -1.4436
 8948TIP3   OH248258   0.966   5.729  16.300 -0.4568  0.1322  0.2708
 8948TIP3    H148259   1.024   5.741  16.375 -0.7554 -2.2758  0.9522
 8948TIP3    H248260   1.004   5.657  16.251 -1.6440  0.0177 -0.5212
 8949TIP3   OH248261   2.321   1.356   0.792 -0.9599  0.1949 -0.2454
 8949TIP3    H148262   2.374   1.280   0.816  1.7213  1.9130 -0.2670
 8949TIP3    H248263   2.270   1.376   0.870  0.2531 -0.0890  0.6393
 8950TIP3   OH248264   0.859   1.831  14.104  0.1215 -0.2959  0.2429
 8950TIP3    H148265   0.923   1.902  14.090  0.4995 -0.2679  1.9219
 8950TIP3    H248266   0.913   1.755  14.125 -0.3496 -0.6987  0.0028
 8951TIP3   OH248267   5.509   5.588   3.964  0.4085 -0.2333  0.2139
 8951TIP3    H148268   5.469   5.672   3.984  1.8564  0.5754 -0.1256
 8951TIP3    H248269   5.475   5.564   3.878 -1.1497 -0.7517  0.9433
 8952TIP3   OH248270   5.713   2.023  14.267 -0.3765 -0.2718 -0.0508
 8952TIP3    H148271   5.741   2.082  14.337  2.5730 -0.3123 -1.0292
 8952TIP3    H248272   5.621   2.045  14.251 -1.0458 -0.0036  3.4867
 8953TIP3   OH248273   4.390   1.896   5.084  0.3462 -0.3920  0.4026
 8953TIP3    H148274   4.320   1.958   5.066  1.0068 -0.1778 -1.6953
 8953TIP3    H248275   4.468   1.949   5.095  0.4620 -0.7147  1.2063
 8954TIP3   OH248276   2.374   3.181  17.182  0.3314 -0.3105 -0.1049
 8954TIP3    H148277   2.463   3.145  17.181  0.3484 -0.2669 -0.7014
 8954TIP3    H248278   2.321   3.112  17.221  1.1317  0.9501  3.6045
 8955TIP3   OH248279   4.437   0.920  10.901  0.2362 -0.0381 -0.0754
 8955TIP3    H148280   4.516   0.922  10.954 -0.0935 -1.4337  0.5165
 8955TIP3    H248281   4.415   0.827  10.894 -2.0526  0.3595  0.8682
 8956TIP3   OH248282   2.683   2.541  17.188  0.1491  0.2446  0.0090
 8956TIP3    H148283   2.747   2.514  17.254  0.6690  0.1616 -0.5148
 8956TIP3    H248284   2.732   2.540  17.106 -0.1325  1.6038 -0.2062
 8957TIP3   OH248285   3.792   2.538  15.373 -0.0646 -0.4581 -0.4033
 8957TIP3    H148286   3.768   2.574  15.458 -0.0070  0.0901 -0.6187
 8957TIP3    H248287   3.795   2.613  15.315  1.9046 -0.5178 -0.4552
 8958TIP3   OH248288   0.358   6.063   6.453 -0.0002 -0.2564  0.0206
 8958TIP3    H148289   0.302   6.133   6.487 -0.9979 -0.3247 -1.3634
 8958TIP3    H248290   0.316   5.982   6.483 -0.4903 -0.3000 -0.7483
 8959TIP3   OH248291   0.145   1.465  12.499 -0.1368 -0.3583 -0.5963
 8959TIP3    H148292   0.068   1.416  12.471 -0.5158 -0.2021  0.1543
 8959TIP3    H248293   0.151   1.538  12.437 -1.6463  0.6413  0.3671
 8960TIP3   OH248294   1.759   4.337   0.522  0.1566 -0.1628  0.5736
 8960TIP3    H148295   1.705   4.300   0.592 -1.2121 -0.0505 -0.3892
 8960TIP3    H248296   1.719   4.307   0.441  1.9281 -0.5990 -0.2060
 8961TIP3   OH248297   2.985   3.887   6.597  0.0036  0.0269  0.7906
 8961TIP3    H148298   3.006   3.803   6.637 -0.7287  0.0023  1.1321
 8961TIP3    H248299   3.067   3.936   6.602 -0.1040  0.1012  2.5317
 8962TIP3   OH248300   3.898   1.700  13.681 -0.0045  0.2156  0.0888
 8962TIP3    H148301   3.937   1.774  13.634  1.0481 -0.2877  0.1418
 8962TIP3    H248302   3.949   1.694  13.762  1.1079 -1.6414 -0.6875
 8963TIP3   OH248303   0.600   1.152   2.059  0.0572 -0.1441  0.3572
 8963TIP3    H148304   0.590   1.243   2.088 -0.8497  0.4212 -1.5434
 8963TIP3    H248305   0.531   1.140   1.994 -0.1555 -2.3797  0.9284
 8964TIP3   OH248306   1.754   4.311  14.108  0.0400  0.4777 -0.5283
 8964TIP3    H148307   1.826   4.286  14.166 -0.4073  1.6652  0.5936
 8964TIP3    H248308   1.680   4.258  14.137  0.5893 -1.3400 -2.2035
 8965TIP3   OH248309   3.859   0.836   0.310 -0.2469 -0.1006 -0.4325
 8965TIP3    H148310   3.796   0.830   0.382 -0.5149 -0.0922 -0.6646
 8965TIP3    H248311   3.944   0.826   0.352 -0.3301  1.0277  0.0387
 8966TIP3   OH248312   2.730   3.121  17.194 -0.2221  0.4001 -0.3537
 8966TIP3    H148313   2.747   3.028  17.175  1.6953  0.7938 -0.8123
 8966TIP3    H248314   2.774   3.137  17.278  1.1919  1.3043 -1.2167
 8967TIP3   OH248315   1.681   4.655   3.694  0.2263 -0.2016  0.3166
 8967TIP3    H148316   1.756   4.705   3.727  0.1200 -0.4399  0.9331
 8967TIP3    H248317   1.608   4.684   3.748 -0.2973  0.6010 -0.7889
 8968TIP3   OH248318   3.626   0.914   5.197  0.2869 -0.7697 -0.3061
 8968TIP3    H148319   3.704   0.859   5.207  1.0687  0.1184 -1.2190
 8968TIP3    H248320   3.555   0.852   5.180  0.9261 -1.5543 -0.1846
 8969TIP3   OH248321   5.479   5.690  11.060  0.2702  0.0390 -0.2906
 8969TIP3    H148322   5.397   5.642  11.052  0.8964 -0.9517 -0.9579
 8969TIP3    H248323   5.518   5.687  10.973  0.2630  1.9292 -0.4164
 8970TIP3   OH248324   1.492   4.219  14.193  0.1000  0.3543 -0.4792
 8970TIP3    H148325   1.513   4.176  14.276  0.8855 -1.2568 -1.4644
 8970TIP3    H248326   1.413   4.269  14.212  1.0576  1.2075  1.6083
 8971TIP3   OH248327   3.327   1.371  12.864 -0.1119 -0.0855 -0.2241
 8971TIP3    H148328   3.335   1.297  12.803 -0.6094  0.5846 -1.1192
 8971TIP3    H248329   3.416   1.405  12.872  0.1564 -0.8944  0.3477
 8972TIP3   OH248330   3.887   6.305   2.736 -0.5258 -0.1389 -0.0327
 8972TIP3    H148331   3.967   6.320   2.686 -0.1472 -0.5162  0.4520
 8972TIP3    H248332   3.877   6.210   2.737 -1.3038 -0.0696 -0.5909
 8973TIP3   OH248333   0.852   6.046  11.401  0.3418  0.0691 -0.4963
 8973TIP3    H148334   0.941   6.081  11.411  0.8786 -1.1188 -0.9985
 8973TIP3    H248335   0.798   6.124  11.388  1.5798  0.7353 -2.0700
 8974TIP3   OH248336   1.909   3.070  15.188 -0.0521 -0.2894 -0.5843
 8974TIP3    H148337   1.879   3.143  15.243  0.0417 -0.6234 -0.0795
 8974TIP3    H248338   1.959   3.112  15.118 -0.3043  0.1570 -0.5024
 8975TIP3   OH248339   6.028   2.785  16.802  0.3696 -0.2759  0.1412
 8975TIP3    H148340   6.090   2.811  16.734 -0.4449 -0.2141 -0.5877
 8975TIP3    H248341   5.952   2.841  16.788 -0.7347 -1.8456 -0.3787
 8976TIP3   OH248342   2.011   0.290   1.579  0.1651 -0.4707 -0.3312
 8976TIP3    H148343   2.023   0.208   1.531  0.0146 -1.4895  1.3063
 8976TIP3    H248344   2.007   0.357   1.511  0.5970 -1.7771 -1.6961
 8977TIP3   OH248345   4.347   2.255   3.221 -0.1156  0.5770 -0.4870
 8977TIP3    H148346   4.274   2.249   3.160 -0.6140 -1.6457  0.2398
 8977TIP3    H248347   4.310   2.298   3.298 -0.3006  0.6536 -0.6194
 8978TIP3   OH248348   4.061   6.307  13.490 -0.0587 -0.1800  0.0549
 8978TIP3    H148349   3.971   6.287  13.515  0.0851 -1.8570 -0.6315
 8978TIP3    H248350   4.108   6.308  13.574 -0.5091 -0.4683  0.3186
 8979TIP3   OH248351   6.641   3.215  14.619  0.2103  0.3417  0.2875
 8979TIP3    H148352   6.684   3.294  14.651 -1.0233  0.8340  0.7870
 8979TIP3    H248353   6.611   3.170  14.698  1.5448 -1.0486  0.0641
 8980TIP3   OH248354   2.793   0.778   5.711 -0.2860  0.2641  0.0591
 8980TIP3    H148355   2.716   0.723   5.701  0.6155 -0.8059 -1.4092
 8980TIP3    H248356   2.864   0.717   5.734  0.1599  1.1987  1.2344
 8981TIP3   OH248357   2.534   0.663  13.768  0.5414  0.0551  0.3811
 8981TIP3    H148358   2.472   0.688  13.837 -0.6006  0.5689 -0.8076
 8981TIP3    H248359   2.509   0.573  13.746  0.1639  0.2912 -0.1560
 8982TIP3   OH248360   3.550   6.176  11.643 -0.4328 -0.5373  0.4584
 8982TIP3    H148361   3.633   6.156  11.599 -0.4425  1.5532 -0.6379
 8982TIP3    H248362   3.528   6.096  11.690 -0.1424 -2.8084 -2.9184
 8983TIP3   OH248363   2.184   2.578  14.337  0.0533 -0.0967 -0.2233
 8983TIP3    H148364   2.219   2.551  14.422 -0.7519  1.3454  0.6145
 8983TIP3    H248365   2.162   2.671  14.348  0.0103  0.1605 -2.0459
 8984TIP3   OH248366   2.489   6.086  13.765 -0.4264 -0.0783 -0.9803
 8984TIP3    H148367   2.542   6.165  13.757 -0.9932  0.4328  0.2277
 8984TIP3    H248368   2.505   6.039  13.683  1.4659  0.3184 -0.8867
 8985TIP3   OH248369   4.179   2.906   4.495  0.2895  0.2088  0.5374
 8985TIP3    H148370   4.201   2.846   4.567  3.9047  1.5538  0.7879
 8985TIP3    H248371   4.148   2.850   4.425 -0.3695 -1.4748  2.1046
 8986TIP3   OH248372   2.697   6.309   2.691 -0.1703  0.2243 -0.7193
 8986TIP3    H148373   2.617   6.302   2.639  0.2904 -0.7665 -1.3286
 8986TIP3    H248374   2.737   6.391   2.662 -0.8784  0.6517 -0.5179
 8987TIP3   OH248375   1.271   5.974   5.231 -0.4540  0.1992 -0.2435
 8987TIP3    H148376   1.334   5.952   5.162  1.5718  0.7696  1.3416
 8987TIP3    H248377   1.296   6.062   5.259  0.7375 -1.0468  3.1595
 8988TIP3   OH248378   6.191   3.519  13.219  0.2953  0.4994  0.4968
 8988TIP3    H148379   6.119   3.496  13.279  1.1945 -0.6592  1.1785
 8988TIP3    H248380   6.232   3.595  13.259 -0.1600  0.7836  0.4339
 8989TIP3   OH248381   5.613   6.475   4.222  0.0304 -0.0812 -0.2273
 8989TIP3    H148382   5.622   6.381   4.205 -0.8063 -0.3299  0.5788
 8989TIP3    H248383   5.552   6.505   4.155  0.6412 -0.0202 -0.7584
 8990TIP3   OH248384   6.760   0.947  15.228  0.2210  0.0623  0.5967
 8990TIP3    H148385   6.839   0.936  15.176  0.8447 -0.4017  1.6069
 8990TIP3    H248386   6.790   0.990  15.308 -0.1948 -1.7602  1.8057
 8991TIP3   OH248387   4.015   5.013   1.702 -0.1363 -0.2108 -0.2296
 8991TIP3    H148388   3.921   4.997   1.703  0.3358 -4.0703 -1.5002
 8991TIP3    H248389   4.032   5.053   1.617 -0.4646 -0.7822 -0.5650
 8992TIP3   OH248390   0.693   3.622  13.311  0.1887 -0.6723  0.1554
 8992TIP3    H148391   0.710   3.532  13.283  0.9029 -0.0966 -1.4158
 8992TIP3    H248392   0.779   3.654  13.338  0.2868  0.0497 -0.9525
 8993TIP3   OH248393   6.415   0.049   1.835 -0.1702  0.2433  0.7660
 8993TIP3    H148394   6.476   0.080   1.902 -0.2637 -0.4225  1.1665
 8993TIP3    H248395   6.427  -0.046   1.833 -0.7299  0.1733  0.3880
 8994TIP3   OH248396   2.916   0.401   1.073 -0.1544  0.2775  0.6811
 8994TIP3    H148397   2.826   0.406   1.104 -0.8285  0.7212 -1.2092
 8994TIP3    H248398   2.969   0.424   1.149 -1.7330  2.3800  1.2242
 8995TIP3   OH248399   5.842   2.661   5.011 -0.7454 -0.6385  0.5548
 8995TIP3    H148400   5.858   2.650   5.105  0.8288 -1.2045  0.2431
 8995TIP3    H248401   5.815   2.574   4.982  1.9334 -1.3555 -0.0661
 8996TIP3   OH248402   5.977   0.982   2.682  0.3324 -0.1959  0.1721
 8996TIP3    H148403   6.058   0.931   2.680  0.7602  0.4694 -0.7499
 8996TIP3    H248404   5.933   0.956   2.763  1.2441 -0.9118  0.4521
 8997TIP3   OH248405   5.493   2.463  14.899 -0.1212 -0.1240  0.3062
 8997TIP3    H148406   5.552   2.392  14.924 -2.0085 -0.8614  3.0593
 8997TIP3    H248407   5.537   2.543  14.929 -0.1109 -0.5901  1.5872
 8998TIP3   OH248408   2.478   5.257  14.224  0.1618 -0.2141 -0.3370
 8998TIP3    H148409   2.532   5.336  14.217  0.4069 -0.3140  0.3466
 8998TIP3    H248410   2.501   5.205  14.148 -0.6004  0.7318 -1.2540
 8999TIP3   OH248411   0.650   2.015   4.761  0.1570 -0.2198  0.6838
 8999TIP3    H148412   0.561   2.030   4.792  0.5104  0.0834  1.5570
 8999TIP3    H248413   0.692   1.965   4.830  0.9925  0.5760  0.7678
 9000TIP3   OH248414   2.742   4.792   1.036 -0.1871  0.0356 -0.4092
 9000TIP3    H148415   2.682   4.724   1.006 -0.5860  0.1942  0.0139
 9000TIP3    H248416   2.697   4.874   1.016 -0.5180  0.1419  0.7072
 9001TIP3   OH248417   6.290   3.514  12.724  0.5238  0.0039 -0.2872
 9001TIP3    H148418   6.337   3.452  12.668 -1.2937 -1.0990 -0.6441
 9001TIP3    H248419   6.336   3.597  12.710  1.0966 -0.5766 -2.1998
 9002TIP3   OH248420   0.343   3.796   4.465 -0.1440 -0.7701  0.0526
 9002TIP3    H148421   0.311   3.875   4.509  2.2502 -0.0291  0.6425
 9002TIP3    H248422   0.377   3.827   4.381 -1.0693 -1.5481 -0.6313
 9003TIP3   OH248423   4.405   1.888   0.882 -0.4041  0.0112 -0.2677
 9003TIP3    H148424   4.451   1.961   0.840 -0.1227 -0.8458 -1.5129
 9003TIP3    H248425   4.459   1.811   0.862 -1.2925 -0.7096  0.0249
 9004TIP3   OH248426   0.879   4.273  14.221  0.2297 -0.3072 -0.3842
 9004TIP3    H148427   0.823   4.341  14.183 -0.2671 -0.2586  0.4064
 9004TIP3    H248428   0.859   4.194  14.170 -0.1600 -0.1629 -0.4576
 9005TIP3   OH248429   2.415   5.094  15.982 -0.2070 -0.0043  0.0946
 9005TIP3    H148430   2.507   5.113  15.962  0.4163 -1.5010  1.2838
 9005TIP3    H248431   2.376   5.179  15.999 -0.0234  1.0878 -3.9668
 9006TIP3   OH248432   4.649   4.760   2.952 -0.2697 -0.3049 -0.2666
 9006TIP3    H148433   4.614   4.718   3.031 -1.4602  0.8540 -0.1225
 9006TIP3    H248434   4.740   4.734   2.948 -0.5554 -1.5223  0.7149
 9007TIP3   OH248435   0.234   0.484  11.410 -0.5650 -0.2857 -0.2853
 9007TIP3    H148436   0.144   0.516  11.418 -1.0973 -1.7981  0.1438
 9007TIP3    H248437   0.267   0.524  11.329 -1.8331 -0.1636 -0.7628
 9008TIP3   OH248438   1.856   6.349   5.129 -0.3657  0.2441 -0.5735
 9008TIP3    H148439   1.927   6.345   5.192  0.1928  1.6447 -1.0727
 9008TIP3    H248440   1.777   6.333   5.180  0.3526 -2.8779 -0.2504
 9009TIP3   OH248441   3.694   2.286  11.199 -0.4443 -0.0113 -0.1448
 9009TIP3    H148442   3.653   2.256  11.280  1.3989 -1.0948  0.4706
 9009TIP3    H248443   3.757   2.353  11.227  1.1567 -1.3241 -0.4412
 9010TIP3   OH248444   6.491   6.558   0.894  0.1064  0.5380 -0.3319
 9010TIP3    H148445   6.529   6.480   0.933  1.0663  1.7363  1.2671
 9010TIP3    H248446   6.565   6.606   0.857 -0.5932  0.2334 -2.2383
 9011TIP3   OH248447   1.069   3.703   5.785 -0.0418  0.0049  0.4471
 9011TIP3    H148448   1.015   3.766   5.832 -0.6969 -0.2644  0.0803
 9011TIP3    H248449   1.068   3.734   5.694 -1.0969 -0.9866  0.0899
 9012TIP3   OH248450   5.847   1.122  12.090  0.0624  0.4407 -0.2331
 9012TIP3    H148451   5.900   1.180  12.145  0.3042 -0.2521  0.2669
 9012TIP3    H248452   5.762   1.166  12.085  0.1162  0.6433  0.4807
 9013TIP3   OH248453   4.370   0.879  14.860 -0.0411  0.4637  0.5044
 9013TIP3    H148454   4.442   0.865  14.921 -0.2251 -2.0355  0.2203
 9013TIP3    H248455   4.291   0.867  14.912 -0.2333  0.8295  0.3006
 9014TIP3   OH248456   3.647   4.916  12.118  0.3331 -0.4385  0.6873
 9014TIP3    H148457   3.605   4.886  12.037  1.0022 -0.0035  0.1713
 9014TIP3    H248458   3.589   4.886  12.187 -0.8232  0.1553 -0.0082
 9015TIP3   OH248459   5.295   5.514  15.655 -0.4042  0.1204  0.7537
 9015TIP3    H148460   5.294   5.507  15.751  0.9300  1.5087  0.9073
 9015TIP3    H248461   5.383   5.485  15.630 -1.6750 -3.2253 -0.4019
 9016TIP3   OH248462   5.144   2.252   5.680 -0.2368  0.0358 -0.0045
 9016TIP3    H148463   5.142   2.233   5.586  1.6081 -1.4217  0.2066
 9016TIP3    H248464   5.164   2.168   5.721  2.7561  1.3225  1.4146
 9017TIP3   OH248465   3.600   3.387   3.152 -0.2887  0.4289 -0.4615
 9017TIP3    H148466   3.515   3.404   3.112 -1.2142 -1.0913  0.7537
 9017TIP3    H248467   3.640   3.321   3.095 -0.1812  0.7013 -0.7016
 9018TIP3   OH248468   4.396   3.618   2.284  0.0830  0.4450 -0.2770
 9018TIP3    H148469   4.466   3.568   2.242 -1.7494 -2.1951 -0.4190
 9018TIP3    H248470   4.368   3.564   2.357 -3.1237  0.3399 -1.4158
 9019TIP3   OH248471   4.059   3.035  12.860 -0.1068  0.4570  0.1716
 9019TIP3    H148472   4.152   3.020  12.880  0.2456  0.5173 -1.2537
 9019TIP3    H248473   4.017   3.046  12.945  0.6216 -2.7372  1.0827
 9020TIP3   OH248474   3.817   3.528  17.047  0.1014 -0.4496  0.4824
 9020TIP3    H148475   3.877   3.601  17.031 -1.4254  0.7308 -0.0910
 9020TIP3    H248476   3.761   3.558  17.119 -0.5086 -1.0671  0.2794
 9021TIP3   OH248477   0.972   2.206  13.687 -0.1292 -0.5904  0.4082
 9021TIP3    H148478   0.900   2.169  13.738 -0.3066 -1.8915 -0.7377
 9021TIP3    H248479   0.947   2.297  13.672 -1.8641 -1.1693 -0.4776
 9022TIP3   OH248480   3.695   0.331  14.098  0.0923  0.0554  0.2343
 9022TIP3    H148481   3.608   0.324  14.059  0.9050  2.8244 -2.5085
 9022TIP3    H248482   3.729   0.413  14.064  3.8520 -0.9671  1.1132
 9023TIP3   OH248483   6.494   2.205  15.551 -0.2884 -0.3262  0.3466
 9023TIP3    H148484   6.518   2.114  15.569 -0.2635  0.0799  2.7103
 9023TIP3    H248485   6.528   2.254  15.626 -0.9524  1.5302 -0.4996
 9024TIP3   OH248486   0.861   5.427   3.609  0.3344 -0.1319 -0.0629
 9024TIP3    H148487   0.955   5.437   3.624  0.1822  0.2448  0.6889
 9024TIP3    H248488   0.846   5.465   3.523  0.8306  0.0531 -0.0714
 9025TIP3   OH248489   5.332   5.365   5.727  0.0350 -0.2002 -0.4133
 9025TIP3    H148490   5.252   5.344   5.678 -0.4440  0.6700 -0.0216
 9025TIP3    H248491   5.403   5.348   5.665 -0.3358 -2.3447 -0.3196
 9026TIP3   OH248492   4.527   5.228   3.978 -0.2424  0.1688 -0.0335
 9026TIP3    H148493   4.504   5.143   3.940 -1.9924  1.2932 -1.6653
 9026TIP3    H248494   4.541   5.210   4.071 -3.2978 -1.5192  0.2323
 9027TIP3   OH248495   4.308   2.430   3.422 -0.1813 -0.7256 -0.0681
 9027TIP3    H148496   4.253   2.397   3.494 -1.1507 -1.2911 -1.0417
 9027TIP3    H248497   4.393   2.445   3.463 -0.5559 -1.5464  1.0900
 9028TIP3   OH248498   0.902   1.542   2.117  0.2168  0.1109 -0.0654
 9028TIP3    H148499   0.843   1.529   2.043  0.9670  1.0502 -0.8567
 9028TIP3    H248500   0.986   1.565   2.077  0.9474 -0.5065  1.0549
 9029TIP3   OH248501   2.278   4.795   0.445 -0.4934  0.2572 -0.7029
 9029TIP3    H148502   2.258   4.713   0.490 -0.2029  0.1091 -0.8403
 9029TIP3    H248503   2.199   4.848   0.456 -0.4535  0.1971 -0.0826
 9030TIP3   OH248504   6.317   5.353  13.603  0.7372 -0.1114  0.4067
 9030TIP3    H148505   6.369   5.434  13.603  0.8645 -0.1747  1.8381
 9030TIP3    H248506   6.226   5.382  13.600  0.7956  0.0645  0.3311
 9031TIP3   OH248507   6.339   1.521   6.071  0.1954  0.0992  0.3378
 9031TIP3    H148508   6.262   1.575   6.053  0.3061  0.1808  0.0984
 9031TIP3    H248509   6.411   1.583   6.080  0.2401  0.0204  0.5197
 9032TIP3   OH248510   1.675   4.999   6.158  0.2601 -0.0135  0.1836
 9032TIP3    H148511   1.606   4.989   6.224  0.1207  1.6553  0.3233
 9032TIP3    H248512   1.637   4.962   6.078  0.0101 -1.0321  0.7572
 9033TIP3   OH248513   2.527   3.291  13.650  0.1351  0.2803  0.8649
 9033TIP3    H148514   2.558   3.205  13.679  0.0706 -0.5557 -1.3786
 9033TIP3    H248515   2.572   3.306  13.567 -1.0416  1.7358  0.4509
 9034TIP3   OH248516   1.035   1.368   2.501 -0.0361  0.1367 -0.8114
 9034TIP3    H148517   1.111   1.313   2.483 -0.5189 -0.6709 -0.4441
 9034TIP3    H248518   0.998   1.333   2.582 -0.9276  0.3795 -1.0935
 9035TIP3   OH248519   6.756   2.985  11.820  0.1962  0.1993 -0.0243
 9035TIP3    H148520   6.733   2.950  11.734  1.3767 -3.7873  1.0657
 9035TIP3    H248521   6.765   3.080  11.806 -2.1777  0.0769 -3.6168
 9036TIP3   OH248522   3.496   0.379  11.773 -0.0315 -0.0009 -0.0277
 9036TIP3    H148523   3.564   0.445  11.762  1.3689 -1.2946  0.4487
 9036TIP3    H248524   3.515   0.314  11.705  0.6274 -1.4947  1.5177
 9037TIP3   OH248525   6.395   2.727  16.491  0.6820  0.3303 -0.2648
 9037TIP3    H148526   6.324   2.787  16.516  0.9125  1.9062 -2.9305
 9037TIP3    H248527   6.473   2.766  16.529  0.2925 -1.0518  2.1238
 9038TIP3   OH248528   0.739   4.988   4.934  0.1869  0.0245  0.0357
 9038TIP3    H148529   0.818   4.975   4.880  1.1374 -1.2387  1.6277
 9038TIP3    H248530   0.671   4.938   4.888  1.1659 -1.6656  0.3069
 9039TIP3   OH248531   1.543   2.530   4.372 -0.3017  0.3063 -0.1964
 9039TIP3    H148532   1.550   2.596   4.303  1.6622  0.2471 -0.0991
 9039TIP3    H248533   1.607   2.463   4.349  1.6121  1.0469  2.4642
 9040TIP3   OH248534   6.681   3.634  10.285  0.3402  0.2202  0.2807
 9040TIP3    H148535   6.754   3.690  10.311  0.2834  0.1178  0.6731
 9040TIP3    H248536   6.682   3.562  10.349 -0.2226  0.3195  0.4074
 9041TIP3   OH248537   6.575   2.167   2.429 -0.0487  0.4093  0.5062
 9041TIP3    H148538   6.534   2.094   2.475 -1.2046  0.2984 -0.6636
 9041TIP3    H248539   6.593   2.134   2.341 -2.0104  1.9238 -0.5644
 9042TIP3   OH248540   6.207   2.340  12.769  0.3522  0.1422  0.1514
 9042TIP3    H148541   6.277   2.386  12.816  0.0951  2.3746 -1.5071
 9042TIP3    H248542   6.127   2.367  12.813  0.2289  1.0724 -0.6105
 9043TIP3   OH248543   1.543   5.955  15.569  0.1214  0.1225 -0.8076
 9043TIP3    H148544   1.489   5.900  15.626  0.8110  0.7709  0.5313
 9043TIP3    H248545   1.482   5.988  15.503 -0.4738 -1.5272 -1.1331
 9044TIP3   OH248546   3.328   2.294  13.516  0.5018 -0.2483 -0.0139
 9044TIP3    H148547   3.309   2.263  13.605 -0.3766  0.8355  0.2023
 9044TIP3    H248548   3.418   2.266  13.500  1.1142  0.5585  1.6909
 9045TIP3   OH248549   4.939   2.207  16.699  0.8011  0.4498  0.0060
 9045TIP3    H148550   4.943   2.125  16.650 -0.2128  0.4747 -0.1274
 9045TIP3    H248551   4.924   2.275  16.633 -1.3682  0.3970  0.3926
 9046TIP3   OH248552   0.128   5.093   0.542 -0.5276  0.2291 -0.1467
 9046TIP3    H148553   0.056   5.122   0.486 -0.5779  0.5576  0.0844
 9046TIP3    H248554   0.193   5.058   0.481 -0.9191 -0.1557 -0.3523
 9047TIP3   OH248555   1.369   5.617  13.085 -0.6349 -0.2033  0.2400
 9047TIP3    H148556   1.393   5.653  13.171 -1.4706  2.3308 -0.4846
 9047TIP3    H248557   1.274   5.627  13.080 -0.4173  1.6603 -1.7111
 9048TIP3   OH248558   5.262   2.355  15.925 -0.4638  0.1822  0.1586
 9048TIP3    H148559   5.350   2.387  15.941 -1.4682  3.8868 -0.7475
 9048TIP3    H248560   5.221   2.352  16.012 -0.4213  1.8172  0.2525
 9049TIP3   OH248561   2.532   6.446   1.782 -0.1310 -0.8177  0.2767
 9049TIP3    H148562   2.575   6.395   1.851 -2.0033 -1.0076  1.3858
 9049TIP3    H248563   2.604   6.475   1.725  1.2345 -2.7502  0.8854
 9050TIP3   OH248564   1.319   0.406   3.782 -0.2464 -0.1230 -0.0657
 9050TIP3    H148565   1.377   0.413   3.705  0.6576 -0.4761  0.5621
 9050TIP3    H248566   1.320   0.312   3.804 -2.8948 -0.5432 -1.3922
 9051TIP3   OH248567   4.182   5.353   5.981 -0.0931  0.0432  0.5980
 9051TIP3    H148568   4.120   5.393   5.921 -0.9233 -2.7684 -0.5685
 9051TIP3    H248569   4.128   5.302   6.042  0.9180 -0.2559  1.2794
 9052TIP3   OH248570   5.754   2.211   2.714  0.6699 -0.2030  0.3502
 9052TIP3    H148571   5.718   2.134   2.758 -0.7838 -0.1299 -0.6515
 9052TIP3    H248572   5.696   2.283   2.739 -0.0132 -0.1081 -1.4203
 9053TIP3   OH248573   3.404   2.303  16.145 -0.0118 -0.1065 -0.0766
 9053TIP3    H148574   3.474   2.326  16.084 -0.3387 -0.4763 -0.5965
 9053TIP3    H248575   3.423   2.355  16.223  0.1576  0.7286 -0.6499
 9054TIP3   OH248576   2.336   0.457  15.548 -0.1485 -0.0051 -0.1577
 9054TIP3    H148577   2.418   0.499  15.573  0.9995 -1.0995 -1.9008
 9054TIP3    H248578   2.349   0.364  15.566 -1.3355 -0.0941  0.3391
 9055TIP3   OH248579   1.697   0.196  16.812  0.6187  0.1902 -0.0815
 9055TIP3    H148580   1.666   0.108  16.832 -1.1554  0.4158 -1.5169
 9055TIP3    H248581   1.774   0.183  16.757 -0.3828 -0.5238 -1.3705
 9056TIP3   OH248582   2.809   5.193  13.888  0.4591 -0.0250  0.8104
 9056TIP3    H148583   2.779   5.240  13.810 -0.3240 -1.3461  0.2929
 9056TIP3    H248584   2.888   5.240  13.914  0.3853  0.8327 -0.4080
 9057TIP3   OH248585   5.220   0.327  15.210  0.3556  0.6014 -0.1906
 9057TIP3    H148586   5.297   0.376  15.181  0.3402  2.4340  2.4556
 9057TIP3    H248587   5.150   0.392  15.213 -0.5676 -0.3828  0.1344
 9058TIP3   OH248588   3.283   0.381  16.121  0.4387 -0.1956 -0.0525
 9058TIP3    H148589   3.365   0.431  16.112  1.1657 -1.4046 -0.3932
 9058TIP3    H248590   3.285   0.349  16.211 -0.9872  1.9520  0.8164
 9059TIP3   OH248591   3.212   2.552  11.458 -0.1184  0.2139  0.5085
 9059TIP3    H148592   3.255   2.636  11.440  2.4162 -1.0786  0.0363
 9059TIP3    H248593   3.186   2.558  11.550  0.9056  1.1713  0.7555
 9060TIP3   OH248594   6.324   4.703  12.938  0.2704 -0.0727 -0.3848
 9060TIP3    H148595   6.262   4.634  12.961  0.0528  0.8475  1.9872
 9060TIP3    H248596   6.269   4.779  12.919  0.6003  0.0538 -0.8696
 9061TIP3   OH248597   1.931   0.308  16.719 -0.4437  0.4093  0.5225
 9061TIP3    H148598   1.974   0.392  16.703 -1.2241  0.5518 -0.8888
 9061TIP3    H248599   1.922   0.305  16.815  0.3243  1.5501  0.6608
 9062TIP3   OH248600   3.157   6.415   2.098 -0.3804 -0.3398  0.0926
 9062TIP3    H148601   3.206   6.489   2.063 -0.0904 -0.8980 -0.7083
 9062TIP3    H248602   3.068   6.426   2.065 -0.4998  0.0105  0.5283
 9063TIP3   OH248603   2.577   3.529   1.003  0.0139 -0.7598 -0.0944
 9063TIP3    H148604   2.669   3.528   1.027  0.3545  0.1198 -1.2916
 9063TIP3    H248605   2.532   3.489   1.078  1.2517 -0.2539  0.9424
 9064TIP3   OH248606   2.628   2.137  16.676 -0.1961  0.1693  0.2182
 9064TIP3    H148607   2.617   2.201  16.747  2.1534  0.1405  0.7070
 9064TIP3    H248608   2.720   2.145  16.652 -0.0238 -2.4865 -0.2502
 9065TIP3   OH248609   5.735   0.665   4.114  0.1587  0.5859 -0.4567
 9065TIP3    H148610   5.771   0.616   4.188  0.6404  0.2946 -0.8779
 9065TIP3    H248611   5.775   0.625   4.037 -0.5365  0.7152 -0.8939
 9066TIP3   OH248612   5.653   4.807   2.293  0.0757 -0.4155  0.2929
 9066TIP3    H148613   5.691   4.852   2.218 -1.7760 -0.3931 -0.6879
 9066TIP3    H248614   5.571   4.854   2.310  0.9304  0.3091  3.0676
 9067TIP3   OH248615   3.209   0.359  15.182  0.2688 -0.0864 -0.5568
 9067TIP3    H148616   3.144   0.295  15.211 -1.1184  0.7161 -1.7824
 9067TIP3    H248617   3.248   0.320  15.104  0.4404 -0.0424 -0.4950
 9068TIP3   OH248618   6.439   4.966  15.604  0.5109 -0.3826 -0.3360
 9068TIP3    H148619   6.373   4.988  15.669  1.8086 -0.0342  0.9042
 9068TIP3    H248620   6.389   4.953  15.523 -1.0446  0.0098  0.5183
 9069TIP3   OH248621   1.779   5.663  11.759 -0.0826  1.0351  0.7555
 9069TIP3    H148622   1.799   5.695  11.671  1.8945  0.0141  0.7760
 9069TIP3    H248623   1.693   5.700  11.779 -1.1104  0.4442 -2.0402
 9070TIP3   OH248624   2.039   1.744   5.556 -0.3266  0.5850  0.0613
 9070TIP3    H148625   2.100   1.673   5.577  0.1077  0.9433  0.0160
 9070TIP3    H248626   1.986   1.754   5.635 -0.7876 -0.1850 -0.1358
 9071TIP3   OH248627   0.317   1.830  11.287  0.3707 -0.0161 -0.1729
 9071TIP3    H148628   0.344   1.824  11.196 -0.0310  0.3827 -0.3207
 9071TIP3    H248629   0.373   1.899  11.324 -0.6512  1.0677 -0.5709
 9072TIP3   OH248630   0.227   3.908   0.628  0.1684 -0.3036 -0.2393
 9072TIP3    H148631   0.225   3.854   0.549 -1.0497 -0.2536 -0.2586
 9072TIP3    H248632   0.167   3.863   0.689 -0.6611  0.8692 -0.1601
 9073TIP3   OH248633   3.137   3.008   1.457  0.1805 -0.1846 -0.3034
 9073TIP3    H148634   3.196   3.035   1.527 -0.3342 -0.6730  0.3345
 9073TIP3    H248635   3.068   3.074   1.458 -0.8972 -1.2491  1.0300
 9074TIP3   OH248636   6.685   1.449   5.098 -0.4578 -0.0249 -0.7166
 9074TIP3    H148637   6.768   1.469   5.055 -0.2068  1.5809  0.4194
 9074TIP3    H248638   6.648   1.535   5.118 -0.2795 -0.6534  2.8166
 9075TIP3   OH248639   3.637   5.634   4.989  0.2679  0.1849  0.5441
 9075TIP3    H148640   3.706   5.665   4.931 -1.1426 -0.1715 -1.4232
 9075TIP3    H248641   3.641   5.692   5.065  1.6688  1.1759 -0.2395
 9076TIP3   OH248642   1.413   6.539   4.421 -0.5077  0.0106  0.0369
 9076TIP3    H148643   1.419   6.483   4.343 -3.4197 -1.9978  1.0717
 9076TIP3    H248644   1.417   6.628   4.387 -0.8111 -0.8016 -2.3408
 9077TIP3   OH248645   5.334   2.762   3.012 -0.4037  0.3010  0.1278
 9077TIP3    H148646   5.299   2.695   3.070  0.6063  0.5530  1.0638
 9077TIP3    H248647   5.427   2.766   3.033  0.1023  0.0553 -1.8745
 9078TIP3   OH248648   1.241   2.814  16.448 -0.1618  0.6569 -0.1960
 9078TIP3    H148649   1.268   2.835  16.538 -0.2723  2.3481 -0.5322
 9078TIP3    H248650   1.324   2.800  16.402 -0.1305 -1.5265  0.4251
 9079TIP3   OH248651   6.359   0.801   4.714  0.3705 -0.1161  0.5909
 9079TIP3    H148652   6.422   0.760   4.655  0.8028 -0.9075  1.5787
 9079TIP3    H248653   6.325   0.876   4.664  0.5630 -0.8751 -0.7258
 9080TIP3   OH248654   0.598   5.716  14.577  0.0457 -0.1617 -0.1051
 9080TIP3    H148655   0.560   5.631  14.600 -1.7166  0.5791 -0.1497
 9080TIP3    H248656   0.591   5.720  14.482  0.2720 -0.0140 -0.1170
 9081TIP3   OH248657   0.389   0.140   5.870 -0.4539  0.2116 -0.0792
 9081TIP3    H148658   0.402   0.079   5.798  1.6432  1.0411 -0.4582
 9081TIP3    H248659   0.444   0.106   5.941  0.3405  1.3619 -0.1259
 9082TIP3   OH248660   2.435   4.767  14.283 -0.6530  0.3481 -0.0997
 9082TIP3    H148661   2.401   4.690  14.327 -0.3172 -0.0557 -0.5401
 9082TIP3    H248662   2.528   4.770  14.307 -1.1799  2.1158  2.0860
 9083TIP3   OH248663   5.078   2.795  13.967 -0.2576  0.0725 -0.4386
 9083TIP3    H148664   5.067   2.716  13.914 -1.9396  1.6999 -2.6736
 9083TIP3    H248665   5.153   2.775  14.024 -0.6298 -3.1145 -0.8571
 9084TIP3   OH248666   3.743   5.269   2.297 -0.9155 -0.0546 -0.1372
 9084TIP3    H148667   3.746   5.179   2.329 -0.6757 -0.0305 -0.0876
 9084TIP3    H248668   3.830   5.304   2.317 -0.7301 -0.0653 -0.8853
 9085TIP3   OH248669   5.571   1.236   5.794 -0.4689  0.1068 -0.0358
 9085TIP3    H148670   5.575   1.222   5.700 -1.0943 -1.2948  0.1313
 9085TIP3    H248671   5.479   1.252   5.813 -0.5029 -0.6126  0.4578
 9086TIP3   OH248672   1.392   3.481   4.573  0.7283 -0.6042 -0.4679
 9086TIP3    H148673   1.435   3.402   4.540 -0.8952 -1.7628  0.0415
 9086TIP3    H248674   1.316   3.492   4.517  0.3131 -0.0673  0.1872
 9087TIP3   OH248675   4.405   0.552  14.802  0.7650  0.8972 -0.1296
 9087TIP3    H148676   4.433   0.598  14.722  1.0021 -1.3959 -1.4529
 9087TIP3    H248677   4.487   0.526  14.843  0.6941 -1.1589 -1.1709
 9088TIP3   OH248678   5.918   1.368  16.970  0.5387  0.0741  0.0710
 9088TIP3    H148679   5.886   1.332  17.053  1.3290 -0.1996  0.2695
 9088TIP3    H248680   5.989   1.427  16.996 -0.6107  1.6498 -0.2717
 9089TIP3   OH248681   4.855   4.461  12.648 -0.2796 -0.4177 -0.0876
 9089TIP3    H148682   4.876   4.369  12.632  1.2342 -0.1356  0.0950
 9089TIP3    H248683   4.776   4.459  12.701 -0.1562 -1.6190  0.0800
 9090TIP3   OH248684   0.778   4.685   4.297  0.0349 -0.1527  0.1670
 9090TIP3    H148685   0.776   4.592   4.275 -1.3879  0.1791 -1.2614
 9090TIP3    H248686   0.820   4.727   4.222 -2.2727  0.6897 -0.7212
 9091TIP3   OH248687   6.331   6.203  14.187  0.6043 -0.4910 -0.0086
 9091TIP3    H148688   6.238   6.185  14.176  0.8281 -1.7502 -0.0118
 9091TIP3    H248689   6.337   6.298  14.190 -0.6218 -0.3794 -0.5045
 9092TIP3   OH248690   5.574   3.476   2.102  0.0375  0.0276  0.1252
 9092TIP3    H148691   5.625   3.418   2.044 -2.0234 -2.7052  0.8341
 9092TIP3    H248692   5.519   3.527   2.043  0.7413  0.1488 -0.4448
 9093TIP3   OH248693   0.202   0.209  11.474  0.2015  0.7124 -0.6769
 9093TIP3    H148694   0.154   0.208  11.556  0.2677 -0.1176 -0.6421
 9093TIP3    H248695   0.211   0.302  11.453  0.1366  0.9343  0.2220
 9094TIP3   OH248696   4.092   3.369   0.833  0.0888  0.0652  0.4366
 9094TIP3    H148697   4.167   3.394   0.779 -0.1244  3.2761  1.4034
 9094TIP3    H248698   4.022   3.427   0.803 -1.0853 -0.6445  1.7120
 9095TIP3   OH248699   4.995   3.864  16.357  0.1788 -0.0208  0.5629
 9095TIP3    H148700   4.905   3.888  16.378 -1.1233 -1.2984 -2.7453
 9095TIP3    H248701   5.048   3.939  16.382 -1.9198  1.0922  1.8603
 9096TIP3   OH248702   3.941   4.988  14.968 -0.1179 -0.4139  0.2113
 9096TIP3    H148703   3.904   4.921  14.910  0.9258 -0.1981 -0.7440
 9096TIP3    H248704   3.995   5.042  14.911  2.4673 -1.3105  1.6615
 9097TIP3   OH248705   3.335   6.452  16.865 -0.3378 -0.0992 -0.3212
 9097TIP3    H148706   3.263   6.423  16.809  0.6954 -1.9217 -0.7909
 9097TIP3    H248707   3.404   6.479  16.803  0.0882 -0.2115  0.1007
 9098TIP3   OH248708   6.450   0.051   0.374 -0.4108  0.5131 -0.2499
 9098TIP3    H148709   6.481  -0.012   0.438 -1.1711 -1.6156 -1.8557
 9098TIP3    H248710   6.463   0.136   0.416  0.8564 -0.6571  1.9261
 9099TIP3   OH248711   2.764   0.282  12.768  0.0327  0.7454  0.4836
 9099TIP3    H148712   2.794   0.191  12.764 -0.2854  0.6264  0.7451
 9099TIP3    H248713   2.742   0.304  12.678 -0.5881  0.3217  0.5270
 9100TIP3   OH248714   3.037   3.343   2.557  0.3286  0.0809  0.8644
 9100TIP3    H148715   2.960   3.308   2.602 -0.4894 -0.4942 -0.8937
 9100TIP3    H248716   3.068   3.414   2.614 -1.3217  0.1261  1.7695
 9101TIP3   OH248717   4.659   1.159   0.998  0.0733 -0.6257 -0.2001
 9101TIP3    H148718   4.702   1.157   1.083 -1.4906 -0.6491  0.6154
 9101TIP3    H248719   4.573   1.196   1.015 -0.1176 -0.2140 -1.8596
 9102TIP3   OH248720   1.444   4.065  16.046 -0.0128  0.3082  0.2216
 9102TIP3    H148721   1.474   4.093  16.132 -1.9136 -3.1694  2.2875
 9102TIP3    H248722   1.378   4.130  16.021 -0.0367  0.9291  1.8089
 9103TIP3   OH248723   1.231   4.533   3.581  0.3386 -0.1677 -0.4743
 9103TIP3    H148724   1.187   4.473   3.642  1.3632 -1.3158 -0.8199
 9103TIP3    H248725   1.187   4.517   3.497  1.6456 -1.6425 -0.9191
 9104TIP3   OH248726   0.977   3.512   4.784  0.4227 -0.4108 -0.3267
 9104TIP3    H148727   0.981   3.554   4.698  1.1489 -0.7349 -0.4626
 9104TIP3    H248728   1.068   3.493   4.805  0.1831 -1.0576  0.1521
 9105TIP3   OH248729   3.056   2.967  15.633 -0.4152 -0.6356 -0.1392
 9105TIP3    H148730   3.132   2.996  15.684  0.2797  0.8159 -1.9133
 9105TIP3    H248731   2.981   2.990  15.687  0.3383 -2.5715  1.8961
 9106TIP3   OH248732   0.919   4.652  14.583 -0.5066 -0.5257 -0.4355
 9106TIP3    H148733   1.007   4.670  14.617  0.1787 -1.2199 -1.7724
 9106TIP3    H248734   0.910   4.711  14.508 -0.4723 -1.6755 -1.3746
 9107TIP3   OH248735   4.477   2.857  13.083 -0.0568  0.2433 -0.2548
 9107TIP3    H148736   4.440   2.821  13.164 -1.2289 -0.7630 -1.1964
 9107TIP3    H248737   4.535   2.789  13.051  0.2158  0.5353 -0.3835
 9108TIP3   OH248738   3.912   6.482  12.168 -0.0810 -0.0463  0.7114
 9108TIP3    H148739   3.954   6.540  12.232 -0.4174  0.3496  0.5787
 9108TIP3    H248740   3.961   6.400  12.174  1.7621  0.9000 -0.5895
 9109TIP3   OH248741   5.634   4.739   6.545  0.0251 -0.0694 -0.2566
 9109TIP3    H148742   5.726   4.742   6.519  0.4328 -0.0055  1.1539
 9109TIP3    H248743   5.603   4.654   6.513  0.4631  0.0663 -1.0598
 9110TIP3   OH248744   4.075   6.504   2.143 -0.4344  0.0507  0.0591
 9110TIP3    H148745   4.001   6.491   2.202  0.3529 -1.7027  0.7190
 9110TIP3    H248746   4.150   6.466   2.189  1.1991  2.8525 -0.0304
 9111TIP3   OH248747   0.297   6.311  14.310  0.1458  0.0309 -0.3055
 9111TIP3    H148748   0.255   6.393  14.335  0.0717 -0.0096 -0.2959
 9111TIP3    H248749   0.321   6.322  14.218  0.3196  0.1403 -0.2474
 9112TIP3   OH248750   2.791   4.940   1.716  0.8066  0.6232  0.1993
 9112TIP3    H148751   2.795   4.916   1.624  0.1847 -0.1666  0.3674
 9112TIP3    H248752   2.878   4.975   1.735  1.0992  0.3407 -0.5638
 9113TIP3   OH248753   0.373   0.450   0.068 -0.4039 -0.1313 -0.0223
 9113TIP3    H148754   0.415   0.430  -0.016 -1.4557 -0.1543 -0.5563
 9113TIP3    H248755   0.280   0.435   0.052 -0.5157 -1.0903  1.4327
 9114TIP3   OH248756   4.308   4.925  11.360 -0.1966  0.4588  0.4510
 9114TIP3    H148757   4.383   4.953  11.307 -0.9001  0.1754 -0.7265
 9114TIP3    H248758   4.347   4.875  11.431  0.6558 -1.2550 -1.1462
 9115TIP3   OH248759   4.758   6.479  13.689  0.2009  0.1998  0.0097
 9115TIP3    H148760   4.849   6.489  13.660  0.8024 -2.2881  0.8174
 9115TIP3    H248761   4.763   6.487  13.784 -0.6194  1.0161  0.0024
 9116TIP3   OH248762   5.547   3.517  14.915  0.2974  0.3827  0.1418
 9116TIP3    H148763   5.463   3.565  14.916 -0.5022 -0.9567 -0.3138
 9116TIP3    H248764   5.568   3.507  14.822  1.5563  1.6549  0.2574
 9117TIP3   OH248765   3.016   1.589   0.540 -0.1135 -0.5670  0.2729
 9117TIP3    H148766   2.962   1.593   0.618 -1.1906  0.2586 -0.4820
 9117TIP3    H248767   2.992   1.507   0.497 -0.6473 -0.2881  0.0319
 9118TIP3   OH248768   2.870   0.609   0.167  0.8423 -0.7307 -0.4281
 9118TIP3    H148769   2.911   0.665   0.233 -1.4587  1.0742 -0.4225
 9118TIP3    H248770   2.840   0.670   0.100 -0.7564 -2.0737 -0.9859
 9119TIP3   OH248771   2.675   3.871   4.022  0.3931 -0.3977 -0.1618
 9119TIP3    H148772   2.751   3.892   4.076  0.5893 -1.8333  0.1735
 9119TIP3    H248773   2.621   3.815   4.077 -2.5709  3.0555  0.7889
 9120TIP3   OH248774   3.474   0.422  14.975 -0.1665  0.0969 -0.4910
 9120TIP3    H148775   3.511   0.435  14.888 -1.0511 -0.5487 -0.9870
 9120TIP3    H248776   3.458   0.328  14.980 -2.3389  0.4172 -0.5810
 9121TIP3   OH248777   1.518   1.552  16.469  0.5291  0.4428 -0.0858
 9121TIP3    H148778   1.578   1.540  16.395 -1.2326 -2.0433 -1.2309
 9121TIP3    H248779   1.434   1.572  16.429 -0.2923 -0.1508  1.2920
 9122TIP3   OH248780   4.033   0.457   0.505 -0.9455  0.1175  0.3750
 9122TIP3    H148781   4.096   0.443   0.575  1.0562 -0.4381 -1.4510
 9122TIP3    H248782   3.948   0.463   0.550  0.0244 -1.8970  2.6987
 9123TIP3   OH248783   6.604   4.310   3.985  0.3485 -0.8147  0.2104
 9123TIP3    H148784   6.557   4.391   4.006  1.5361 -0.1687  0.4824
 9123TIP3    H248785   6.549   4.240   4.021 -2.3630 -0.4513 -2.8009
 9124TIP3   OH248786   1.367   2.952  16.692 -0.1692  0.2014 -0.3081
 9124TIP3    H148787   1.276   2.939  16.720 -0.0989  1.8996  0.9224
 9124TIP3    H248788   1.411   2.985  16.770  1.0887  1.0488 -1.3339
 9125TIP3   OH248789   4.736   6.350   3.687 -0.5147 -0.6570 -0.3838
 9125TIP3    H148790   4.681   6.304   3.624 -1.4487  1.3944 -1.1579
 9125TIP3    H248791   4.681   6.360   3.765 -0.3824 -0.7206 -0.2828
 9126TIP3   OH248792   5.295   3.570  14.379  0.1557 -0.3188 -0.3242
 9126TIP3    H148793   5.231   3.634  14.347 -0.2296 -1.1466 -1.2702
 9126TIP3    H248794   5.333   3.533  14.299  1.2553 -0.4085  0.2227
 9127TIP3   OH248795   3.901   4.027   2.561  0.5027  0.2166  0.1353
 9127TIP3    H148796   3.844   3.974   2.505  0.2561  2.0412 -1.4574
 9127TIP3    H248797   3.959   3.965   2.603 -1.2253 -1.5053  0.1110
 9128TIP3   OH248798   1.510   2.513  15.313 -0.2535  0.1405  0.2398
 9128TIP3    H148799   1.479   2.515  15.404 -1.5168  2.7097 -0.1520
 9128TIP3    H248800   1.565   2.435  15.308 -2.7004 -1.9016  2.3537
 9129TIP3   OH248801   6.241   4.117   3.023 -0.5485 -0.3039  0.3571
 9129TIP3    H148802   6.193   4.169   2.959  0.0595 -0.3662 -0.1607
 9129TIP3    H248803   6.310   4.074   2.972 -0.9652 -1.5253  0.7911
 9130TIP3   OH248804   1.506   6.130  14.403 -0.2866  0.1853  0.2332
 9130TIP3    H148805   1.484   6.220  14.426 -0.8819  0.0423  0.2396
 9130TIP3    H248806   1.422   6.090  14.378  0.0059 -0.2986  0.0025
 9131TIP3   OH248807   1.774   6.705  13.719 -0.4153 -0.0312  0.3156
 9131TIP3    H148808   1.834   6.638  13.752 -0.1484  1.3189  2.8824
 9131TIP3    H248809   1.808   6.787  13.755 -1.9023  1.2238 -0.9801
 9132TIP3   OH248810   4.710   6.416  16.579  0.5456  0.3481 -0.0286
 9132TIP3    H148811   4.640   6.474  16.548 -0.8679 -2.1716 -1.9033
 9132TIP3    H248812   4.705   6.423  16.675 -0.2510  2.4681 -0.1679
 9133TIP3   OH248813   2.953   2.144   1.940 -0.0980 -0.2080  0.3064
 9133TIP3    H148814   2.986   2.134   1.850 -1.3007 -2.6249  0.0373
 9133TIP3    H248815   2.867   2.185   1.929  0.9942  2.3512  0.6786
 9134TIP3   OH248816   5.949   0.672   2.659  0.4921 -0.3283  0.3031
 9134TIP3    H148817   5.912   0.757   2.635  1.3579 -0.0532 -0.0968
 9134TIP3    H248818   5.961   0.677   2.754 -2.6577 -1.3047  0.8724
 9135TIP3   OH248819   2.022   6.116  15.714 -0.0555  0.4849  0.2326
 9135TIP3    H148820   2.088   6.057  15.751  1.2591  0.7502 -1.5730
 9135TIP3    H248821   1.961   6.058  15.669  0.5805  0.3986 -0.5403
 9136TIP3   OH248822   2.356   2.074  11.605  0.1150  0.6498 -0.1851
 9136TIP3    H148823   2.273   2.083  11.560 -0.2425 -0.0484  0.3131
 9136TIP3    H248824   2.333   2.052  11.695  0.8326 -0.7802 -0.3175
 9137TIP3   OH248825   6.181   6.360  12.923 -0.3182  0.0064  0.1292
 9137TIP3    H148826   6.101   6.399  12.888 -1.3901 -0.8657  1.4772
 9137TIP3    H248827   6.250   6.386  12.862 -1.6691  0.5866 -1.2003
 9138TIP3   OH248828   1.395   4.335   0.249  0.6690  0.6839  0.1327
 9138TIP3    H148829   1.302   4.332   0.228  0.4194  0.7831  1.1688
 9138TIP3    H248830   1.439   4.312   0.167 -0.2608  0.6457 -0.3696
 9139TIP3   OH248831   2.527   0.414  13.654 -0.6924  0.2542  0.0286
 9139TIP3    H148832   2.507   0.322  13.673  1.1203  0.0565  1.2695
 9139TIP3    H248833   2.523   0.420  13.559 -1.5120 -0.9473 -0.0280
 9140TIP3   OH248834   3.566   6.535   6.238  0.3892 -0.0287 -0.2712
 9140TIP3    H148835   3.627   6.564   6.169  1.2802  0.5601  0.7329
 9140TIP3    H248836   3.622   6.520   6.314 -0.6128 -0.4433  0.3980
 9141TIP3   OH248837   3.445   2.621  16.644 -0.2453 -0.8944  0.4110
 9141TIP3    H148838   3.354   2.651  16.655 -0.3995 -1.0718 -0.3110
 9141TIP3    H248839   3.449   2.592  16.552  0.7179 -0.2738  0.2479
 9142TIP3   OH248840   3.247   0.211   5.879  0.0097  0.1531  0.2631
 9142TIP3    H148841   3.253   0.245   5.969  0.9491 -1.1273  0.7110
 9142TIP3    H248842   3.330   0.166   5.865  0.1481  0.9295 -1.5164
 9143TIP3   OH248843   0.919   5.834   2.630  0.4846  0.1345  0.8209
 9143TIP3    H148844   0.993   5.774   2.628  1.2580  1.0490  1.2606
 9143TIP3    H248845   0.956   5.919   2.605 -0.1593  0.8422  2.1603
 9144TIP3   OH248846   2.134   0.105   2.467  0.0615  0.4605 -0.2831
 9144TIP3    H148847   2.113   0.197   2.452  0.9700  0.4314 -2.0261
 9144TIP3    H248848   2.052   0.066   2.495 -1.0043  1.3253 -2.0130
 9145TIP3   OH248849   3.205   4.134   3.261 -0.8374 -0.3339 -0.2885
 9145TIP3    H148850   3.194   4.171   3.173  1.8626  0.4707 -0.3690
 9145TIP3    H248851   3.214   4.040   3.246  2.3189  0.0137 -1.3051
 9146TIP3   OH248852   3.767   1.227  12.127 -0.0018 -0.4541 -0.5365
 9146TIP3    H148853   3.800   1.316  12.131 -0.4285 -0.2534 -1.2816
 9146TIP3    H248854   3.768   1.197  12.218  1.8914 -0.3561 -0.4802
 9147TIP3   OH248855   2.612   5.020   5.628  0.2197  0.6640  0.0282
 9147TIP3    H148856   2.668   4.998   5.553  1.1781  1.1016  0.5916
 9147TIP3    H248857   2.600   4.936   5.674 -0.8187  0.2877 -0.8819
 9148TIP3   OH248858   5.741   4.993  11.928  0.1012 -0.0433 -0.2951
 9148TIP3    H148859   5.741   5.088  11.942  0.4889 -0.2441  1.2055
 9148TIP3    H248860   5.831   4.966  11.947 -0.3872 -0.9055  0.9180
 9149TIP3   OH248861   0.146   5.512  16.079  0.1647 -0.5103  0.1472
 9149TIP3    H148862   0.120   5.598  16.112  3.4272  0.0837  1.5179
 9149TIP3    H248863   0.185   5.531  15.993 -1.7874 -1.1105 -0.9358
 9150TIP3   OH248864   2.722   6.041   1.296  0.9420 -0.4410  0.8201
 9150TIP3    H148865   2.631   6.015   1.310  1.0292 -2.0818 -1.2259
 9150TIP3    H248866   2.773   5.976   1.343  1.1022  0.3984  1.8481
 9151TIP3   OH248867   0.649   4.389  13.440  0.3077  0.2117 -0.0328
 9151TIP3    H148868   0.709   4.463  13.429  0.3319  0.2933  0.5940
 9151TIP3    H248869   0.685   4.319  13.386  1.2046  0.1291  0.6493
 9152TIP3   OH248870   1.648   3.918  14.691 -0.6605 -0.2269 -0.2243
 9152TIP3    H148871   1.597   3.992  14.658  1.2170  2.2718  2.0607
 9152TIP3    H248872   1.606   3.894  14.773  0.3199  0.1733  0.4102
 9153TIP3   OH248873   2.698   5.658   5.530  0.0884 -0.0242  0.2824
 9153TIP3    H148874   2.756   5.718   5.578  1.4031  0.5974 -1.9250
 9153TIP3    H248875   2.630   5.634   5.593  1.8581  0.4904  2.5106
 9154TIP3   OH248876   1.056   5.566  12.524 -0.0978 -0.4171  0.0355
 9154TIP3    H148877   1.117   5.559  12.451 -2.3984 -1.1916 -1.9567
 9154TIP3    H248878   0.978   5.518  12.495 -2.5920  2.4547  1.3999
 9155TIP3   OH248879   0.933   1.239   2.026  0.0775 -0.4413  0.0305
 9155TIP3    H148880   0.879   1.198   2.094  1.2589  1.0012  1.9299
 9155TIP3    H248881   0.978   1.165   1.985  0.1980 -1.2898  1.5992
 9156TIP3   OH248882   5.753   4.166  15.803  0.0226 -0.5419 -0.2740
 9156TIP3    H148883   5.735   4.074  15.783  1.2735 -0.4004 -2.3537
 9156TIP3    H248884   5.688   4.215  15.753  0.6201 -0.2689 -0.7998
 9157TIP3   OH248885   1.553   1.138  16.827 -0.6789  0.0561  0.0136
 9157TIP3    H148886   1.507   1.140  16.743  0.3465  1.1134 -0.5506
 9157TIP3    H248887   1.503   1.199  16.883  0.0828  1.3283 -0.6474
 9158TIP3   OH248888   1.617   4.459  15.186 -0.1239  0.0455 -0.0624
 9158TIP3    H148889   1.569   4.386  15.224 -0.4927  0.8983  1.1863
 9158TIP3    H248890   1.705   4.425  15.168 -0.5403 -0.9176 -0.2909
 9159TIP3   OH248891   3.062   4.153   0.813 -0.0718  0.1597 -0.3192
 9159TIP3    H148892   2.979   4.191   0.786 -0.5074 -0.5007  0.0440
 9159TIP3    H248893   3.072   4.179   0.905 -0.0091  0.0306 -0.2884
 9160TIP3   OH248894   5.553   0.938   0.105 -0.3093 -0.4163  0.6638
 9160TIP3    H148895   5.514   1.019   0.138 -0.2774 -0.2368  0.2620
 9160TIP3    H248896   5.646   0.945   0.125 -0.5926 -1.3372  2.6608
 9161TIP3   OH248897   1.062   4.906  16.531 -0.4704 -0.7646 -0.3489
 9161TIP3    H148898   1.139   4.856  16.503  1.2746  0.5542  1.7314
 9161TIP3    H248899   1.060   4.981  16.473 -0.9114 -1.3608 -1.1327
 9162TIP3   OH248900   3.223   2.843  13.924 -0.2009  0.1084 -0.2658
 9162TIP3    H148901   3.262   2.910  13.868  0.3348 -1.1248 -1.4305
 9162TIP3    H248902   3.261   2.760  13.892 -1.4502 -0.8308  0.5855
 9163TIP3   OH248903   1.952   2.662  13.579 -0.0846  0.1267 -0.3405
 9163TIP3    H148904   2.041   2.692  13.595 -0.6205  1.3606  0.4954
 9163TIP3    H248905   1.938   2.593  13.644  0.4691 -0.5292 -0.9094
 9164TIP3   OH248906   6.079   3.414   0.815 -0.3716 -0.5265 -0.1831
 9164TIP3    H148907   6.145   3.353   0.848  0.1211  0.3048  0.4332
 9164TIP3    H248908   6.088   3.410   0.720  0.7494 -0.2546 -0.1049
 9165TIP3   OH248909   4.388   1.207   5.878 -0.4172 -0.0586  0.3007
 9165TIP3    H148910   4.324   1.274   5.904 -0.5080  0.1895 -0.5402
 9165TIP3    H248911   4.336   1.131   5.855 -0.3520 -0.1837  0.5634
 9166TIP3   OH248912   4.597   4.216  14.109  0.1522  0.2367 -0.0344
 9166TIP3    H148913   4.671   4.273  14.087 -0.1026  0.4979 -0.2396
 9166TIP3    H248914   4.576   4.171  14.027  0.1809  0.0513  0.0599
 9167TIP3   OH248915   1.781   1.018   3.549  0.1180  0.1989 -0.1569
 9167TIP3    H148916   1.855   1.066   3.588 -0.0792  0.9070 -0.6363
 9167TIP3    H248917   1.727   0.994   3.624  1.5520 -1.6186  0.3606
 9168TIP3   OH248918   2.691   5.808  13.899 -0.3165 -0.7170  0.0145
 9168TIP3    H148919   2.775   5.778  13.864  0.3687 -0.7423  1.5992
 9168TIP3    H248920   2.702   5.902  13.911 -1.4647 -0.2423 -2.2329
 9169TIP3   OH248921   3.427   6.187   1.280 -0.5260 -0.4516 -0.3603
 9169TIP3    H148922   3.424   6.116   1.344  0.9465 -2.1956 -2.1165
 9169TIP3    H248923   3.337   6.196   1.250 -0.5003 -3.0137 -1.4965
 9170TIP3   OH248924   4.364   5.177   1.568 -0.4827  0.1338  0.0215
 9170TIP3    H148925   4.323   5.227   1.639 -0.6670 -0.3110  0.2349
 9170TIP3    H248926   4.399   5.244   1.510  0.3489  0.5097  0.9231
 9171TIP3   OH248927   2.888   0.162   2.893  0.6565 -0.0088 -0.3844
 9171TIP3    H148928   2.848   0.224   2.954  2.0255  0.2479  0.2705
 9171TIP3    H248929   2.978   0.154   2.922  0.9310 -1.0641 -1.4620
 9172TIP3   OH248930   0.480   1.360   1.719  0.5591 -0.2443  0.0120
 9172TIP3    H148931   0.554   1.307   1.691 -0.2454 -1.0634 -0.6101
 9172TIP3    H248932   0.516   1.448   1.730  1.9013 -0.8713  0.9763
 9173TIP3   OH248933   3.162   3.407   0.440 -0.1076  0.6620 -0.1943
 9173TIP3    H148934   3.223   3.344   0.477 -0.2685  1.3183  1.2460
 9173TIP3    H248935   3.213   3.488   0.434 -0.1470  0.6229 -1.2551
 9174TIP3   OH248936   2.189   3.441  15.733  0.0492  0.3596  0.5618
 9174TIP3    H148937   2.273   3.487  15.737  0.5144 -0.5141  1.1024
 9174TIP3    H248938   2.170   3.418  15.823 -0.1120 -0.6047  0.2900
 9175TIP3   OH248939   3.126   6.534  11.597 -0.4012 -0.5044  0.7152
 9175TIP3    H148940   3.191   6.570  11.658 -0.0527  0.0381  0.0444
 9175TIP3    H248941   3.160   6.447  11.574  0.7612  0.2477 -0.5697
 9176TIP3   OH248942   4.438   0.728   3.855 -0.1912 -0.0456 -0.5267
 9176TIP3    H148943   4.430   0.635   3.878 -1.7990 -0.0074 -0.8102
 9176TIP3    H248944   4.413   0.731   3.763 -0.9734  0.7885 -0.2921
 9177TIP3   OH248945   2.159   1.930   3.937  0.0795  0.1279 -0.1957
 9177TIP3    H148946   2.239   1.972   3.908  0.9421 -0.8190  0.7444
 9177TIP3    H248947   2.092   1.961   3.875  1.1268  1.0165 -0.9210
 9178TIP3   OH248948   1.509   6.433   1.379 -0.1021  0.4662  0.4016
 9178TIP3    H148949   1.487   6.379   1.455 -0.1698  0.9178  0.7093
 9178TIP3    H248950   1.603   6.421   1.367 -0.0481  0.5692  0.7018
 9179TIP3   OH248951   2.560   1.891   5.897 -0.2708 -0.0713 -0.2682
 9179TIP3    H148952   2.554   1.960   5.963  0.4128 -0.3157  0.0616
 9179TIP3    H248953   2.649   1.896   5.864  0.0744 -1.3383  0.3820
 9180TIP3   OH248954   6.623   5.651  11.704  0.0660  0.5664  0.0340
 9180TIP3    H148955   6.622   5.746  11.711 -1.8458  0.5317  0.7704
 9180TIP3    H248956   6.532   5.625  11.719  0.7793 -1.4718  1.1942
 9181TIP3   OH248957   4.144   5.898  17.008 -0.1839 -0.0142 -0.2212
 9181TIP3    H148958   4.180   5.862  17.089 -0.3951 -0.2848 -0.2456
 9181TIP3    H248959   4.065   5.945  17.036 -1.2655 -1.5787 -0.4505
 9182TIP3   OH248960   3.101   1.894   1.804 -0.1031 -0.1009 -0.0557
 9182TIP3    H148961   3.107   1.897   1.899 -2.8956  0.3940  0.1762
 9182TIP3    H248962   3.191   1.878   1.775  1.2196  1.9429  2.5277
 9183TIP3   OH248963   6.646   6.523   6.067  0.0688  0.0951  0.7339
 9183TIP3    H148964   6.637   6.447   6.124 -1.0116  0.8220  1.5955
 9183TIP3    H248965   6.661   6.596   6.127  0.0115  0.7138  0.0109
 9184TIP3   OH248966   3.474   0.642  14.074 -0.3305 -0.1246  0.1932
 9184TIP3    H148967   3.481   0.556  14.033 -0.9956 -0.9159  1.6411
 9184TIP3    H248968   3.387   0.674  14.050 -0.6344 -0.4927  0.7699
 9185TIP3   OH248969   1.714   0.128  12.337 -0.4180  0.6592 -0.8591
 9185TIP3    H148970   1.676   0.141  12.250  1.2279  0.0159 -1.7215
 9185TIP3    H248971   1.742   0.036  12.337 -0.1442  0.7323  0.2460
 9186TIP3   OH248972   1.628   2.894   3.841 -0.6411  0.0423  0.2953
 9186TIP3    H148973   1.719   2.865   3.853 -0.7086  0.5428  2.5825
 9186TIP3    H248974   1.633   2.960   3.772  0.6438 -0.3345 -0.0098
 9187TIP3   OH248975   4.524   4.446  17.234  0.0898 -0.0444  0.2514
 9187TIP3    H148976   4.592   4.399  17.281  0.0762  0.0298  0.3443
 9187TIP3    H248977   4.570   4.494  17.165  0.1071 -0.1728  0.1716
 9188TIP3   OH248978   0.123   2.728  15.034 -0.3282  0.8787 -0.4510
 9188TIP3    H148979   0.095   2.713  14.944  0.2270  1.4151 -0.7168
 9188TIP3    H248980   0.213   2.760  15.027 -0.9403  2.8946  0.1421
 9189TIP3   OH248981   5.154   5.864  11.928  0.3664  0.5949  1.1027
 9189TIP3    H148982   5.178   5.777  11.958 -0.8715 -0.2682 -0.3114
 9189TIP3    H248983   5.197   5.873  11.843  0.5068  1.3951  1.2438
 9190TIP3   OH248984   4.187   2.690   5.105 -0.2193  0.1036 -0.1289
 9190TIP3    H148985   4.128   2.617   5.124 -1.3162  1.1582  0.7239
 9190TIP3    H248986   4.176   2.706   5.012  0.8655 -1.4810 -0.5787
 9191TIP3   OH248987   6.094   3.308   2.873 -0.0541 -0.4833 -0.1411
 9191TIP3    H148988   6.110   3.377   2.808  1.1513 -0.9698 -0.3865
 9191TIP3    H248989   6.060   3.235   2.822  2.5389 -1.4950 -0.5829
 9192TIP3   OH248990   6.377   0.364  13.117  0.1868 -0.1112  0.1326
 9192TIP3    H148991   6.449   0.374  13.180  1.4489 -0.3570 -1.2321
 9192TIP3    H248992   6.365   0.452  13.081 -1.5113  0.3629  1.6695
 9193TIP3   OH248993   5.362   0.124  13.717  0.0396 -0.4425  0.2272
 9193TIP3    H148994   5.345   0.128  13.623  2.3887 -0.6114 -0.2666
 9193TIP3    H248995   5.397   0.211  13.738 -1.5910  0.0066  1.2333
 9194TIP3   OH248996   5.155   5.696   0.327 -0.3051 -0.3996  0.0155
 9194TIP3    H148997   5.107   5.619   0.357  0.4522 -0.9197 -0.0655
 9194TIP3    H248998   5.233   5.698   0.382 -0.6652  0.7353  0.4981
 9195TIP3   OH248999   1.890   2.265  13.555 -0.1326 -0.5983  0.2343
 9195TIP3    H149000   1.808   2.296  13.517 -0.3998  0.5281  1.6294
 9195TIP3    H249001   1.866   2.182  13.598 -0.5409 -0.2780  0.6336
 9196TIP3   OH249002   0.697   1.849  17.220 -0.4697 -0.0910 -0.2932
 9196TIP3    H149003   0.766   1.896  17.268 -0.8358  1.3530 -1.1052
 9196TIP3    H249004   0.688   1.766  17.267  0.1540  0.6704  1.2812
 9197TIP3   OH249005   5.530   2.631  15.712 -0.2333  0.0645 -0.5975
 9197TIP3    H149006   5.621   2.607  15.728  0.2132  1.3185 -1.1462
 9197TIP3    H249007   5.532   2.725  15.694 -1.8438  0.4738  1.0102
 9198TIP3   OH249008   2.372   5.150   1.099 -0.3035  0.1768 -0.4670
 9198TIP3    H149009   2.283   5.128   1.070 -0.3410 -0.8860  0.3998
 9198TIP3    H249010   2.363   5.168   1.193  0.1314  1.7063 -0.6857
 9199TIP3   OH249011   6.538   2.112   3.801  0.3164 -0.2382 -0.1206
 9199TIP3    H149012   6.586   2.178   3.849 -0.2886  0.7515 -0.8300
 9199TIP3    H249013   6.586   2.103   3.718  0.1652 -0.3866 -0.1928
 9200TIP3   OH249014   3.957   0.434   2.635 -0.2983 -0.0428  0.3201
 9200TIP3    H149015   4.009   0.470   2.706  0.8873 -0.4522 -0.3099
 9200TIP3    H249016   4.012   0.365   2.597  0.2401  1.8191 -2.6088
 9201TIP3   OH249017   0.539   0.528   3.220  0.7171  0.3190 -0.1231
 9201TIP3    H149018   0.459   0.508   3.269  1.2689  1.8914  1.5145
 9201TIP3    H249019   0.537   0.467   3.146 -1.8849  0.1919 -0.0394
 9202TIP3   OH249020   4.968   0.163  16.224  0.2990  0.8425 -0.2179
 9202TIP3    H149021   5.016   0.237  16.263 -0.8724  0.3267  2.4678
 9202TIP3    H249022   4.886   0.160  16.273  0.1043 -1.9325 -0.5815
 9203TIP3   OH249023   4.453   3.244  12.409 -0.2961 -0.5803  0.5335
 9203TIP3    H149024   4.507   3.302  12.463  0.6326 -2.2204  1.4461
 9203TIP3    H249025   4.367   3.286  12.408  0.5464  1.2406  0.4363
 9204TIP3   OH249026   4.973   6.702  10.698  0.4884 -0.1587  0.7764
 9204TIP3    H149027   4.967   6.724  10.605  1.7724 -1.5508  0.3249
 9204TIP3    H249028   4.951   6.784  10.743  1.1116  0.9070 -0.7557
 9205TIP3   OH249029   0.665   1.064   1.537 -0.3637 -0.7589  0.0814
 9205TIP3    H149030   0.751   1.027   1.515  0.1953  0.5531 -0.0392
 9205TIP3    H249031   0.630   1.005   1.604  0.7827 -1.1144  0.3939
 9206TIP3   OH249032   1.727   4.915   0.236 -0.1483 -0.8317 -0.2946
 9206TIP3    H149033   1.777   4.985   0.277 -0.8944 -0.8739  0.7151
 9206TIP3    H249034   1.712   4.945   0.146  0.9563 -0.4542 -0.3569
 9207TIP3   OH249035   3.703   5.707  14.613 -0.0797  0.1313  0.2620
 9207TIP3    H149036   3.625   5.662  14.581  1.1163 -1.1907 -0.9081
 9207TIP3    H249037   3.671   5.762  14.685 -1.8456 -1.4662  0.7877
 9208TIP3   OH249038   4.979   4.136  13.940  0.1264 -0.0516  0.2657
 9208TIP3    H149039   5.070   4.107  13.953 -0.4711 -1.2046  2.2328
 9208TIP3    H249040   4.946   4.079  13.870  0.7889  0.1672 -0.2453
 9209TIP3   OH249041   3.888   2.401  12.339  0.0991  0.3326  0.5116
 9209TIP3    H149042   3.971   2.353  12.339 -0.4036 -0.5732  0.9294
 9209TIP3    H249043   3.902   2.474  12.399  0.6813  0.3464  0.3618
 9210TIP3   OH249044   2.386   5.260  16.902 -0.2568  0.1073 -0.2316
 9210TIP3    H149045   2.456   5.198  16.881 -1.2120 -0.6019 -1.5336
 9210TIP3    H249046   2.306   5.212  16.881 -1.0241  1.8750 -1.5232
 9211TIP3   OH249047   6.453   6.657   0.148  0.0832  0.2730 -0.5104
 9211TIP3    H149048   6.468   6.727   0.085  1.2761 -0.2481 -0.8354
 9211TIP3    H249049   6.457   6.701   0.233  2.9659  0.3383 -0.5911
 9212TIP3   OH249050   3.540   1.290  16.889 -0.1725 -0.6069  0.3170
 9212TIP3    H149051   3.461   1.316  16.936  0.2263  1.1620  0.0432
 9212TIP3    H249052   3.591   1.370  16.880  0.8607 -1.3751 -1.0376
 9213TIP3   OH249053   1.632   2.144   2.527  0.3267  0.2125 -0.1426
 9213TIP3    H149054   1.676   2.189   2.598  0.9843  0.7531 -0.8685
 9213TIP3    H249055   1.563   2.204   2.499  0.2755  0.1423 -0.1680
 9214TIP3   OH249056   1.812   5.583   3.056  0.4700 -0.2897  0.1217
 9214TIP3    H149057   1.850   5.668   3.082  1.6527 -1.0833  1.0857
 9214TIP3    H249058   1.877   5.519   3.083  0.5194 -1.4061 -2.3721
 9215TIP3   OH249059   5.909   2.178  13.082  1.3986 -0.6579  0.0199
 9215TIP3    H149060   5.870   2.254  13.039 -0.8092 -2.1104 -0.7241
 9215TIP3    H249061   5.952   2.213  13.160 -0.8263  1.1996  0.4949
 9216TIP3   OH249062   5.485   1.252  16.197 -0.3187 -0.2552  0.0682
 9216TIP3    H149063   5.471   1.188  16.127  1.1469  0.2242 -0.7167
 9216TIP3    H249064   5.557   1.215  16.249  0.4927  0.7092 -0.3528
 9217TIP3   OH249065   3.963   2.163   1.027  0.0279  0.0169  0.0042
 9217TIP3    H149066   3.952   2.076   0.988 -0.1780 -0.0986  0.3205
 9217TIP3    H249067   3.879   2.181   1.070  0.1067  0.3270  0.0316
 9218TIP3   OH249068   4.267   5.965  14.193  0.3913 -0.4940  0.2727
 9218TIP3    H149069   4.350   6.012  14.197 -0.1793  0.5868 -0.1908
 9218TIP3    H249070   4.219   5.994  14.270  0.4776 -1.2076  0.6047
 9219TIP3   OH249071   0.538   0.784   6.871  0.2969  0.2904 -0.1542
 9219TIP3    H149072   0.515   0.859   6.816  3.8942  1.1449 -0.7647
 9219TIP3    H249073   0.579   0.722   6.810  1.2594 -0.2415  0.9943
 9220TIP3   OH249074   6.702   2.650   1.150  0.0089  0.1338 -0.0488
 9220TIP3    H149075   6.693   2.652   1.055  0.7749 -3.0500 -0.3190
 9220TIP3    H249076   6.618   2.617   1.182  0.0949  0.2214  0.2715
 9221TIP3   OH249077   4.232   0.618  12.780 -0.2106 -0.2665 -0.0326
 9221TIP3    H149078   4.145   0.610  12.741  0.1001 -1.6882 -0.4937
 9221TIP3    H249079   4.291   0.629  12.705  0.0430  0.3876  0.2591
 9222TIP3   OH249080   0.156   3.995  14.257 -0.1880  0.3949 -0.1318
 9222TIP3    H149081   0.182   4.083  14.232  0.2255  0.5037  0.6560
 9222TIP3    H249082   0.179   3.988  14.350 -3.0771  0.5513  0.6835
 9223TIP3   OH249083   3.392   5.649  11.675  0.8279 -0.1966  0.8093
 9223TIP3    H149084   3.417   5.557  11.663  0.9284 -0.1640  0.7696
 9223TIP3    H249085   3.475   5.695  11.685  0.7948 -0.0435  0.3731
 9224TIP3   OH249086   5.639   6.713  11.151  0.0939  0.2004  0.3496
 9224TIP3    H149087   5.692   6.638  11.124  1.1278  0.4670  1.5703
 9224TIP3    H249088   5.579   6.727  11.077  1.0501 -0.7189 -0.6430
 9225TIP3   OH249089   6.577   5.986   2.922  0.5973 -0.2776  0.0390
 9225TIP3    H149090   6.579   5.915   2.857  2.6709 -0.9438  0.7515
 9225TIP3    H249091   6.499   5.967   2.974  1.0773 -2.0823  0.1985
 9226TIP3   OH249092   3.374   1.611   1.232  0.0582  0.3734  0.4490
 9226TIP3    H149093   3.407   1.522   1.222 -1.8743 -0.2272 -1.1729
 9226TIP3    H249094   3.431   1.663   1.175 -0.5840 -0.3346 -0.8773
 9227TIP3   OH249095   4.149   6.205  16.057  0.2758 -0.2276  0.1738
 9227TIP3    H149096   4.183   6.285  16.015  0.0929 -1.0711 -1.7017
 9227TIP3    H249097   4.120   6.233  16.143 -0.1188  1.8249 -0.5738
 9228TIP3   OH249098   3.380   6.072   2.181  0.5615  0.1335 -0.7655
 9228TIP3    H149099   3.439   6.113   2.118  0.7862  0.2875 -0.4594
 9228TIP3    H249100   3.402   5.979   2.178  1.4724  0.3089  0.0185
 9229TIP3   OH249101   4.072   0.775   3.537 -0.2259 -0.2194 -0.6043
 9229TIP3    H149102   4.018   0.714   3.486 -0.4671  0.0626 -0.6947
 9229TIP3    H249103   4.073   0.855   3.485  1.5897 -0.6943 -1.3747
 9230TIP3   OH249104   5.357   5.286  16.169 -0.1277  0.6890  0.6782
 9230TIP3    H149105   5.264   5.306  16.162  0.1104  1.4569 -0.8497
 9230TIP3    H249106   5.401   5.367  16.142  0.9338 -0.6421 -2.0105
 9231TIP3   OH249107   6.322   2.104   0.569  0.3916  0.7859  0.5033
 9231TIP3    H149108   6.376   2.050   0.627  0.2908 -0.8644 -0.8383
 9231TIP3    H249109   6.386   2.154   0.518  0.8908 -1.8789 -1.7689
 9232TIP3   OH249110   4.527   0.943   1.202  0.5050  0.1323 -0.0813
 9232TIP3    H149111   4.509   0.909   1.114  0.3216 -0.2747  0.1139
 9232TIP3    H249112   4.600   0.890   1.234 -0.3043 -0.6420  0.5405
 9233TIP3   OH249113   2.870   2.532   5.971  0.6684  0.0014  0.6870
 9233TIP3    H149114   2.816   2.473   6.023 -0.3616  0.0151 -0.3322
 9233TIP3    H249115   2.892   2.603   6.032 -0.0929 -0.2252  1.2465
 9234TIP3   OH249116   0.900   3.252  14.308 -0.8248 -0.4885 -0.1403
 9234TIP3    H149117   0.959   3.265  14.234  0.9690 -1.6206  1.0318
 9234TIP3    H249118   0.820   3.216  14.268 -0.7362  0.9446 -1.7282
 9235TIP3   OH249119   6.571   1.737  13.622  0.7262  0.1760  0.7262
 9235TIP3    H149120   6.582   1.816  13.568  0.1303 -0.8165 -0.9138
 9235TIP3    H249121   6.476   1.732  13.636  0.5862 -1.1066 -0.5485
 9236TIP3   OH249122   1.119   0.068  15.213  0.2860  0.4847 -0.2225
 9236TIP3    H149123   1.119   0.091  15.306  1.3707 -0.5692  0.0618
 9236TIP3    H249124   1.207   0.090  15.183  0.5747 -0.9850 -0.5168
 9237TIP3   OH249125   6.560   4.138  13.377 -0.6857 -0.8319 -0.1945
 9237TIP3    H149126   6.485   4.179  13.419 -0.5615 -0.7308 -0.0679
 9237TIP3    H249127   6.610   4.211  13.339 -0.3959 -0.8495  0.1436
 9238TIP3   OH249128   0.372   5.233  11.931 -0.0539  0.3701 -0.9314
 9238TIP3    H149129   0.395   5.141  11.934 -0.4906  0.2574  2.1306
 9238TIP3    H249130   0.277   5.235  11.942 -0.2677  1.1844 -2.5684
 9239TIP3   OH249131   3.483   5.174  12.177  0.1971  0.5341  0.7321
 9239TIP3    H149132   3.514   5.229  12.249  0.9923 -0.5691  1.2587
 9239TIP3    H249133   3.544   5.101  12.174 -0.5531 -0.0884 -0.2642
 9240TIP3   OH249134   3.920   5.890  16.799 -0.1251  0.5791 -0.0577
 9240TIP3    H149135   4.002   5.899  16.848  0.4699  0.8231 -1.0617
 9240TIP3    H249136   3.879   5.811  16.834  0.7686  0.1954  0.1397
 9241TIP3   OH249137   3.345   1.204   4.324 -0.7748 -0.2054  0.1587
 9241TIP3    H149138   3.375   1.236   4.410  1.4490  2.0196 -1.3127
 9241TIP3    H249139   3.250   1.217   4.326 -0.8977 -1.0136  2.5634
 9242TIP3   OH249140   6.210   0.416   3.182 -0.2280 -0.2886 -0.3708
 9242TIP3    H149141   6.140   0.375   3.233 -0.2669 -0.8878 -0.8866
 9242TIP3    H249142   6.231   0.497   3.229 -0.8557 -0.4024  0.1097
 9243TIP3   OH249143   3.343   5.317   5.860 -0.1723  0.1677 -0.3749
 9243TIP3    H149144   3.365   5.303   5.952 -2.1606 -5.1029 -0.3494
 9243TIP3    H249145   3.406   5.264   5.812 -2.3574 -1.5490 -1.5171
 9244TIP3   OH249146   4.779   5.857  13.762  0.3155 -0.4230  0.1990
 9244TIP3    H149147   4.746   5.847  13.673  0.9704  2.5859 -0.4972
 9244TIP3    H249148   4.700   5.870  13.815 -0.0213 -1.2460 -0.0824
 9245TIP3   OH249149   6.239   4.989  11.202 -0.0191 -0.0472  0.6159
 9245TIP3    H149150   6.203   5.040  11.130  1.3389 -0.2800 -0.2762
 9245TIP3    H249151   6.267   5.053  11.266 -0.8663  0.1810  0.7722
 9246TIP3   OH249152   5.535   5.417   0.646  0.7439 -0.0598  0.2386
 9246TIP3    H149153   5.565   5.492   0.594  1.0153  0.2362  0.8102
 9246TIP3    H249154   5.565   5.437   0.735 -2.5387  1.0624  1.2130
 9247TIP3   OH249155   5.439   4.954   2.950  0.2822  0.2221 -0.1538
 9247TIP3    H149156   5.479   4.904   3.021 -1.6667  1.2656  1.8093
 9247TIP3    H249157   5.452   5.045   2.975 -1.3616  0.5990 -0.5629
 9248TIP3   OH249158   5.706   0.715  13.528  0.2114 -0.1832  0.4527
 9248TIP3    H149159   5.613   0.714  13.552  0.4772  2.0307  1.8837
 9248TIP3    H249160   5.719   0.799  13.483  1.7972  0.3118  1.7207
 9249TIP3   OH249161   6.332   0.047  16.257  0.0266  0.1375  0.5196
 9249TIP3    H149162   6.296   0.083  16.338 -0.1726  1.3824 -0.0921
 9249TIP3    H249163   6.411   0.098  16.241 -0.3675  0.4662 -0.4792
 9250TIP3   OH249164   2.273   0.823   3.913  0.6013  0.2596  0.1680
 9250TIP3    H149165   2.306   0.759   3.850 -0.4184 -0.4594  0.3385
 9250TIP3    H249166   2.231   0.771   3.981  0.3829  1.0879  0.6850
 9251TIP3   OH249167   1.492   6.080  10.593  0.3679  0.3090  0.4044
 9251TIP3    H149168   1.461   6.068  10.683  1.9021 -0.8404  0.8260
 9251TIP3    H249169   1.507   6.174  10.584 -3.7681  1.1136 -0.0790
 9252TIP3   OH249170   5.044   2.669   3.733  0.1764  0.1976  0.0204
 9252TIP3    H149171   4.991   2.711   3.665  1.4682  0.7102 -0.7072
 9252TIP3    H249172   5.007   2.581   3.740 -0.5232  0.4121 -0.7451
 9253TIP3   OH249173   1.779   4.326  15.690 -0.7008 -0.3094  0.4528
 9253TIP3    H149174   1.792   4.233  15.711 -0.4488 -0.4767 -0.4085
 9253TIP3    H249175   1.747   4.364  15.772  2.0407 -0.5445  1.7847
 9254TIP3   OH249176   0.477   3.683   2.520  0.2445  0.4890  0.3941
 9254TIP3    H149177   0.461   3.638   2.602  0.3665 -1.3556 -0.5439
 9254TIP3    H249178   0.494   3.613   2.457 -3.4020  1.5016 -2.0540
 9255TIP3   OH249179   3.196   1.110  15.171  0.2431 -0.0783 -0.0465
 9255TIP3    H149180   3.111   1.116  15.127  0.2407 -2.1786 -0.4239
 9255TIP3    H249181   3.199   1.020  15.204  2.5483 -0.2215 -0.5104
 9256TIP3   OH249182   3.119   5.539   0.078 -0.3450  0.0650 -0.2575
 9256TIP3    H149183   3.152   5.526  -0.011 -0.6863 -0.7951 -0.2669
 9256TIP3    H249184   3.194   5.522   0.135 -0.1070  0.6890 -0.3790
 9257TIP3   OH249185   2.686   6.160   4.058 -0.2482  0.0033  0.0830
 9257TIP3    H149186   2.731   6.149   4.142 -2.9289 -0.5360  1.5668
 9257TIP3    H249187   2.601   6.196   4.082 -0.4579  1.5120 -2.6296
 9258TIP3   OH249188   3.576   0.901  15.702  0.2465 -0.4716  0.1751
 9258TIP3    H149189   3.645   0.872  15.643  1.3788  2.1547  0.0847
 9258TIP3    H249190   3.595   0.856  15.785  0.1405 -2.2197 -0.7150
 9259TIP3   OH249191   3.895   6.220  13.075 -0.0721 -0.6061  0.1608
 9259TIP3    H149192   3.971   6.220  13.016 -0.6516 -0.0432 -0.6042
 9259TIP3    H249193   3.875   6.313  13.088 -1.2956 -0.7528 -0.5387
 9260TIP3   OH249194   0.232   3.166  11.000  0.2287 -0.4744 -0.0072
 9260TIP3    H149195   0.271   3.119  11.073 -0.0269 -1.2733 -0.3729
 9260TIP3    H249196   0.214   3.099  10.935 -0.9019  0.0055 -0.2152
 9261TIP3   OH249197   3.908   0.317  16.550 -0.1032  0.1599  0.3114
 9261TIP3    H149198   3.946   0.330  16.463  0.3930  2.0275  0.7750
 9261TIP3    H249199   3.814   0.310  16.533  0.1199 -1.1436 -0.5103
 9262TIP3   OH249200   0.321   2.214  11.230  0.8487  0.2220 -0.0469
 9262TIP3    H149201   0.376   2.143  11.198  0.7269  0.0293  0.1724
 9262TIP3    H249202   0.334   2.285  11.166 -0.3279 -0.5633 -1.2223
 9263TIP3   OH249203   0.374   5.391   2.635 -0.0629  0.3476  0.0122
 9263TIP3    H149204   0.287   5.378   2.674  0.8422 -0.0944  2.0218
 9263TIP3    H249205   0.400   5.478   2.665 -0.3170  1.0220 -1.6634
 9264TIP3   OH249206   2.546   5.377   4.811  0.6108  0.0553  0.3334
 9264TIP3    H149207   2.470   5.422   4.775  0.2583  1.0286  2.1567
 9264TIP3    H249208   2.619   5.406   4.757 -0.2884 -1.0353 -1.5611
 9265TIP3   OH249209   0.390   3.051  12.078  0.1016  0.0684  0.6085
 9265TIP3    H149210   0.432   3.014  12.156  0.2250 -2.0587 -0.3948
 9265TIP3    H249211   0.441   3.016  12.004 -2.3677 -1.2709 -0.5897
 9266TIP3   OH249212   6.177   4.945   0.687  0.3834  0.3680 -0.3134
 9266TIP3    H149213   6.138   5.032   0.693 -1.5029 -0.4924  3.0084
 9266TIP3    H249214   6.106   4.885   0.709  1.7496 -2.0210 -1.8975
 9267TIP3   OH249215   1.883   3.966   0.896  0.1139 -0.4926 -0.1721
 9267TIP3    H149216   1.795   3.971   0.932 -0.1197 -0.5646 -0.7280
 9267TIP3    H249217   1.919   4.054   0.910 -0.6736  0.0872 -1.4896
 9268TIP3   OH249218   4.382   6.607   4.393 -0.3725 -0.0416 -0.4091
 9268TIP3    H149219   4.451   6.614   4.458 -1.8064  0.1105  1.1661
 9268TIP3    H249220   4.367   6.513   4.383  0.1485 -0.0798 -0.8704
 9269TIP3   OH249221   0.491   2.044   5.395 -0.1491 -0.0898 -0.9097
 9269TIP3    H149222   0.440   2.103   5.338  1.0647  0.9141 -1.0028
 9269TIP3    H249223   0.552   2.102   5.440 -0.0926 -1.0806  0.3231
 9270TIP3   OH249224   5.440   1.644  15.356  0.8729  0.2315 -0.7296
 9270TIP3    H149225   5.523   1.597  15.361  0.8574  0.3595  1.2982
 9270TIP3    H249226   5.456   1.727  15.402 -0.8108 -0.4723  1.2908
 9271TIP3   OH249227   5.934   3.120   2.254  0.2727 -0.0877 -0.0415
 9271TIP3    H149228   5.859   3.137   2.197 -0.7820 -0.7040  1.1086
 9271TIP3    H249229   5.950   3.026   2.245  1.0023  0.0626 -0.3798
 9272TIP3   OH249230   2.134   4.952   4.120  0.4846  0.2600 -0.4879
 9272TIP3    H149231   2.058   4.922   4.171  0.8445 -0.0915 -0.1490
 9272TIP3    H249232   2.096   4.990   4.041 -0.1617  1.9365  0.5685
 9273TIP3   OH249233   4.327   6.068   4.453  0.0672  0.1172 -0.0517
 9273TIP3    H149234   4.236   6.055   4.479  0.0277 -0.0149 -0.2542
 9273TIP3    H249235   4.377   6.012   4.512 -0.0622 -0.6024 -0.6081
 9274TIP3   OH249236   2.258   1.426  14.714 -0.4413 -0.0761 -0.0975
 9274TIP3    H149237   2.176   1.444  14.759 -0.1453  2.4998 -0.4214
 9274TIP3    H249238   2.324   1.470  14.768  0.3767 -0.0137 -1.1278
 9275TIP3   OH249239   0.456   5.523   0.111 -0.0418 -0.4920  0.0182
 9275TIP3    H149240   0.432   5.481   0.194 -2.4933 -0.0769 -0.3891
 9275TIP3    H249241   0.464   5.450   0.049  2.6256 -0.8904  0.6869
 9276TIP3   OH249242   0.240   3.253   0.380 -0.0682 -0.7449  0.3514
 9276TIP3    H149243   0.286   3.195   0.441 -1.0980 -0.7589  1.1453
 9276TIP3    H249244   0.310   3.298   0.333  0.7598 -0.9506  1.3378
 9277TIP3   OH249245   6.131   4.868  11.428 -0.7432  0.0722 -0.1203
 9277TIP3    H149246   6.037   4.874  11.445 -0.2396  0.4244  3.1334
 9277TIP3    H249247   6.156   4.956  11.399 -1.1080  0.5617  1.0046
 9278TIP3   OH249248   0.923   0.099   3.524  0.0778 -0.3704 -0.5375
 9278TIP3    H149249   0.866   0.108   3.448  1.3290 -1.9013 -1.7210
 9278TIP3    H249250   0.866   0.062   3.592 -1.1552  1.3965 -0.5218
 9279TIP3   OH249251   2.894   0.736  15.821  0.0702  0.3421 -0.1306
 9279TIP3    H149252   2.830   0.804  15.841  1.1462  0.9565  1.4985
 9279TIP3    H249253   2.889   0.676  15.895  0.6911 -0.1218 -0.4577
 9280TIP3   OH249254   4.343   3.264  10.764 -0.2172  0.4311  0.1960
 9280TIP3    H149255   4.429   3.299  10.740 -0.0055  0.7248  1.3140
 9280TIP3    H249256   4.299   3.337  10.807 -0.4628 -0.1543  0.9513
 9281TIP3   OH249257   2.107   6.567   6.345  0.4161 -0.0957 -0.3936
 9281TIP3    H149258   2.153   6.637   6.299 -1.1933  1.4929  0.2956
 9281TIP3    H249259   2.147   6.486   6.312  2.3509  1.1226 -1.1965
 9282TIP3   OH249260   4.762   4.512   1.145  0.0709 -0.6962 -1.2757
 9282TIP3    H149261   4.806   4.551   1.069 -0.8202  1.1682 -0.8854
 9282TIP3    H249262   4.686   4.467   1.109 -0.1631 -0.0989 -1.5385
 9283TIP3   OH249263   4.567   3.529  12.894 -0.3489 -0.8949 -0.3473
 9283TIP3    H149264   4.504   3.536  12.823 -1.4497  0.9740  0.7182
 9283TIP3    H249265   4.517   3.497  12.969  0.3863 -1.1766  0.0384
 9284TIP3   OH249266   2.016   4.746  16.466  0.5173  0.2384  0.9733
 9284TIP3    H149267   2.108   4.722  16.479  0.4417 -0.2685  0.6116
 9284TIP3    H249268   2.008   4.758  16.372  0.4720  1.3972  1.1148
 9285TIP3   OH249269   4.598   3.902  14.232  0.5281 -0.4466 -0.2568
 9285TIP3    H149270   4.595   3.950  14.149  3.5147  1.5466  0.6458
 9285TIP3    H249271   4.586   3.969  14.299 -0.4251 -1.8112  1.0110
 9286TIP3   OH249272   3.614   0.365   1.472  0.4087 -0.5954  0.1409
 9286TIP3    H149273   3.672   0.430   1.433  0.3521 -0.5449  0.1407
 9286TIP3    H249274   3.526   0.400   1.459  0.4194 -0.3028  0.8231
 9287TIP3   OH249275   3.418   3.106  17.121  0.6709 -0.1129 -0.4038
 9287TIP3    H149276   3.504   3.145  17.135  0.2353 -0.2417  4.3506
 9287TIP3    H249277   3.361   3.180  17.102  1.4286  0.2066 -1.5643
 9288TIP3   OH249278   0.296   0.901  12.061  0.0040 -0.2869 -0.7438
 9288TIP3    H149279   0.281   0.853  11.980  1.2338 -1.7734 -0.1203
 9288TIP3    H249280   0.377   0.949  12.046 -0.6670  0.8304 -0.9774
 9289TIP3   OH249281   0.201   2.859  13.993 -0.4335  0.8355  0.4161
 9289TIP3    H149282   0.174   2.795  14.059 -1.0997  0.3011 -0.3684
 9289TIP3    H249283   0.211   2.941  14.042 -0.4212  0.3363  1.2680
 9290TIP3   OH249284   4.427   5.582  11.856 -0.4083  0.2712 -0.2355
 9290TIP3    H149285   4.390   5.509  11.906 -1.3461  0.4477 -0.6473
 9290TIP3    H249286   4.419   5.658  11.914  1.4297 -0.0934  0.5633
 9291TIP3   OH249287   2.325   5.821  14.008  0.4616 -0.9010  0.6438
 9291TIP3    H149288   2.376   5.769  13.946 -0.1894  0.9357 -1.5228
 9291TIP3    H249289   2.389   5.879  14.049  0.5805 -0.6294  0.0822
 9292TIP3   OH249290   2.808   1.521  11.298 -0.1925 -0.3197  0.1356
 9292TIP3    H149291   2.791   1.613  11.318  1.7139  0.0575  0.2144
 9292TIP3    H249292   2.736   1.474  11.339  0.1683  0.9431  2.3561
 9293TIP3   OH249293   4.776   2.994  15.014 -0.0728  0.2444 -0.7037
 9293TIP3    H149294   4.775   3.037  14.928  0.2194  2.4525  0.3455
 9293TIP3    H249295   4.745   3.061  15.075 -0.6315 -1.3913  0.8887
 9294TIP3   OH249296   1.600   5.057   4.025  0.4251  0.0225 -0.6480
 9294TIP3    H149297   1.574   5.147   4.006 -0.4770 -0.0588  0.0953
 9294TIP3    H249298   1.598   5.051   4.121 -0.7991 -1.1265 -0.7114
 9295TIP3   OH249299   3.981   6.392   0.454 -0.1606  0.3448  0.4716
 9295TIP3    H149300   4.001   6.476   0.495  0.3909  1.3726 -1.7665
 9295TIP3    H249301   4.066   6.359   0.423 -0.6240 -0.0649 -0.4123
 9296TIP3   OH249302   6.732   2.355  16.866  0.2060 -0.0891 -0.1679
 9296TIP3    H149303   6.681   2.293  16.917 -1.5910 -0.9959 -2.8628
 9296TIP3    H249304   6.674   2.431  16.855 -0.2369 -0.6429 -2.2509
 9297TIP3   OH249305   5.898   3.803   2.461  0.6682 -0.4651  0.5223
 9297TIP3    H149306   5.897   3.890   2.420  0.1179 -0.6786  0.0640
 9297TIP3    H249307   5.916   3.743   2.388 -3.2720 -1.1533 -0.0866
 9298TIP3   OH249308   4.948   0.679  15.985  0.2198  0.3767 -0.0968
 9298TIP3    H149309   4.944   0.634  15.900 -1.6679  0.4880 -0.1032
 9298TIP3    H249310   4.857   0.698  16.007  0.6686  0.3972  1.9552
 9299TIP3   OH249311   4.623   2.313   0.823  0.6372 -0.1796 -0.4463
 9299TIP3    H149312   4.547   2.369   0.811  0.1823 -0.5782  0.4846
 9299TIP3    H249313   4.615   2.280   0.912  0.7628 -1.9313 -1.0538
 9300TIP3   OH249314   6.047   5.439  13.858 -0.2400  0.5160  0.0838
 9300TIP3    H149315   6.090   5.361  13.893 -0.2562  0.7971  0.7437
 9300TIP3    H249316   6.119   5.493  13.825 -0.3029 -0.2354 -1.3547
 9301TIP3   OH249317   1.292   1.223  14.288  0.0720 -0.0718 -0.0053
 9301TIP3    H149318   1.320   1.245  14.377 -1.0375 -0.2929  0.4171
 9301TIP3    H249319   1.222   1.160  14.300  0.8707 -1.2185 -1.0955
 9302TIP3   OH249320   4.314   5.450   3.924 -0.0841  0.2528  0.0926
 9302TIP3    H149321   4.395   5.407   3.953 -0.4268 -1.1270 -0.8620
 9302TIP3    H249322   4.251   5.431   3.993  0.3198  1.1042  0.7125
 9303TIP3   OH249323   0.649   0.994   5.055 -0.3372  0.0278  0.1876
 9303TIP3    H149324   0.609   0.930   4.997 -0.7191 -1.1047  1.6403
 9303TIP3    H249325   0.739   1.004   5.022 -0.4941 -0.7189 -0.4877
 9304TIP3   OH249326   0.808   1.524   2.502  0.1313 -0.2048 -0.6008
 9304TIP3    H149327   0.872   1.455   2.486  0.4251  0.2072 -1.2495
 9304TIP3    H249328   0.839   1.598   2.449  0.3446  0.7405  0.7922
 9305TIP3   OH249329   2.244   4.790   0.042  0.6387  0.3246  0.1641
 9305TIP3    H149330   2.170   4.838   0.080  1.2284  1.1833  0.2356
 9305TIP3    H249331   2.225   4.698   0.062  0.0495  0.6139  0.9802
 9306TIP3   OH249332   6.517   3.005   4.953  0.1670  0.4200  1.3623
 9306TIP3    H149333   6.564   3.089   4.947 -0.5190  0.7574  0.4328
 9306TIP3    H249334   6.481   3.003   5.041  0.4599  0.9621  1.4972
 9307TIP3   OH249335   5.768   2.009   1.916  0.4659  0.1142  0.8242
 9307TIP3    H149336   5.723   1.936   1.872  0.7209 -1.1021  2.4711
 9307TIP3    H249337   5.704   2.041   1.979  0.9560  0.1752  1.2952
 9308TIP3   OH249338   5.017   6.449   6.878 -0.5973  0.7036 -0.2243
 9308TIP3    H149339   5.057   6.438   6.792 -1.2725  0.0852 -0.4738
 9308TIP3    H249340   5.022   6.543   6.896 -1.2666  0.9726 -1.3525
 9309TIP3   OH249341   3.392   1.690   1.514  0.0059 -0.0833  0.3720
 9309TIP3    H149342   3.356   1.778   1.527 -1.0085 -0.4495  0.1126
 9309TIP3    H249343   3.365   1.666   1.425  1.9280  0.0922 -0.2962
 9310TIP3   OH249344   5.411   2.711  13.939  0.8527  0.3393 -0.1708
 9310TIP3    H149345   5.382   2.717  14.030  1.7946  1.3294  0.0849
 9310TIP3    H249346   5.464   2.790  13.925  2.4608 -0.8025 -0.9329
 9311TIP3   OH249347   3.359   0.943  16.546  0.0624  0.5000 -0.1252
 9311TIP3    H149348   3.450   0.938  16.574  0.5020  1.2194 -1.3657
 9311TIP3    H249349   3.323   1.017  16.594 -0.2943 -0.6473  1.4511
 9312TIP3   OH249350   2.795   2.828   0.196  0.2280 -0.0317 -0.4134
 9312TIP3    H149351   2.765   2.912   0.229  0.2556  0.0342 -0.5593
 9312TIP3    H249352   2.853   2.795   0.265  0.0809 -0.0114 -0.2781
 9313TIP3   OH249353   4.295   6.237   0.690 -0.0546 -0.4687 -0.0804
 9313TIP3    H149354   4.314   6.327   0.664 -2.2953 -0.2871 -1.4289
 9313TIP3    H249355   4.369   6.186   0.657  0.4976  0.6877 -0.6882
 9314TIP3   OH249356   2.459   3.675  16.808  0.1527 -0.6433 -0.0737
 9314TIP3    H149357   2.492   3.621  16.879 -0.7690 -0.3531  0.6011
 9314TIP3    H249358   2.520   3.749  16.804  0.1568 -0.6094  0.4920
 9315TIP3   OH249359   1.168   6.317   0.022  0.5269 -0.0382 -0.1704
 9315TIP3    H149360   1.170   6.362   0.106  0.9693  1.4210 -0.9172
 9315TIP3    H249361   1.102   6.249   0.032  0.3659  0.2990  1.2517
 9316TIP3   OH249362   5.926   5.746   3.550 -0.1357  0.3199  0.1356
 9316TIP3    H149363   5.867   5.694   3.495  2.0422 -0.6024 -1.4537
 9316TIP3    H249364   5.965   5.681   3.609  1.8963  0.2231 -1.2299
 9317TIP3   OH249365   3.186   5.486   0.794 -0.2197  0.2217  0.3410
 9317TIP3    H149366   3.132   5.555   0.833  1.8429  0.6674  2.6418
 9317TIP3    H249367   3.207   5.520   0.706 -1.5693  1.1712  0.3503
 9318TIP3   OH249368   4.269   6.051   6.423 -0.6570 -0.0560 -0.1184
 9318TIP3    H149369   4.285   5.957   6.414 -1.3848 -0.2643  0.6516
 9318TIP3    H249370   4.229   6.076   6.340 -1.0662 -0.5590 -0.0765
 9319TIP3   OH249371   3.677   2.862  14.537  0.8484  0.3393 -0.7747
 9319TIP3    H149372   3.722   2.941  14.567 -0.1748  0.1896  1.3240
 9319TIP3    H249373   3.595   2.894  14.498 -0.1969  0.3180  1.2775
 9320TIP3   OH249374   1.063   5.702  13.468  0.2409 -0.6943  0.6428
 9320TIP3    H149375   0.985   5.652  13.445  0.1368 -0.0143 -0.5169
 9320TIP3    H249376   1.071   5.768  13.400  0.6222  0.6182  1.9152
 9321TIP3   OH249377   4.330   6.354  16.498 -0.2437 -0.1121 -0.3933
 9321TIP3    H149378   4.348   6.350  16.592 -1.0069 -0.0677 -0.2403
 9321TIP3    H249379   4.361   6.441  16.472  0.9158 -0.5184 -0.3937
 9322TIP3   OH249380   1.384   4.124   3.947 -0.6040  0.0638 -0.0972
 9322TIP3    H149381   1.385   4.199   3.888 -0.9720 -0.0529 -0.2565
 9322TIP3    H249382   1.452   4.065   3.914 -0.8593 -0.0336 -0.4478
 9323TIP3   OH249383   0.482   6.400  12.689  0.3736 -0.0826  0.4828
 9323TIP3    H149384   0.553   6.459  12.713  0.8378  0.6330 -2.2731
 9323TIP3    H249385   0.459   6.426  12.599 -2.0107 -1.6213  0.5667
 9324TIP3   OH249386   0.242   0.413   1.505 -0.7534 -0.2879 -0.3512
 9324TIP3    H149387   0.168   0.398   1.446 -0.7858 -2.5401  0.1747
 9324TIP3    H249388   0.297   0.335   1.494  1.3733  1.1346 -0.4314
 9325TIP3   OH249389   4.078   0.682   4.590 -0.4218 -0.5036  0.4675
 9325TIP3    H149390   4.095   0.591   4.613 -1.1667 -0.2210  2.4066
 9325TIP3    H249391   4.008   0.709   4.650 -0.0557  1.4062  0.1130
 9326TIP3   OH249392   2.715   3.869  10.935  0.3751 -0.0621 -0.5527
 9326TIP3    H149393   2.769   3.870  10.857  0.0663 -1.7974 -0.8262
 9326TIP3    H249394   2.652   3.940  10.922 -0.7051 -1.3200 -2.6700
 9327TIP3   OH249395   5.479   1.977  11.674  0.3366  0.0053  0.3329
 9327TIP3    H149396   5.404   2.013  11.721  0.1638  2.5202 -1.6511
 9327TIP3    H249397   5.547   2.044  11.681  1.5270 -1.1182 -0.0372
 9328TIP3   OH249398   4.950   3.943  14.933 -0.3731  0.3037 -0.2216
 9328TIP3    H149399   4.941   3.885  15.009  4.0306 -1.4630 -0.7754
 9328TIP3    H249400   4.953   3.884  14.858 -2.2638  1.8652 -1.6370
 9329TIP3   OH249401   4.674   0.937  13.886 -0.1494 -0.2705  0.2225
 9329TIP3    H149402   4.674   0.979  13.800 -0.0896 -0.8142 -0.0486
 9329TIP3    H249403   4.627   0.998  13.943 -0.5878 -0.1155 -0.2986
 9330TIP3   OH249404   6.147   3.869  16.166  0.0891  0.5205  0.7104
 9330TIP3    H149405   6.204   3.902  16.097 -0.9102  1.5245  0.3216
 9330TIP3    H249406   6.115   3.785  16.134 -0.1615  0.8592  0.0682
 9331TIP3   OH249407   2.787   2.321  15.338  0.1758  0.5442 -0.2260
 9331TIP3    H149408   2.806   2.284  15.424 -1.6787 -1.2174 -0.5079
 9331TIP3    H249409   2.833   2.405  15.338  0.6378  0.3785  2.2888
 9332TIP3   OH249410   3.189   6.745  13.850 -0.3526  0.3816 -0.3468
 9332TIP3    H149411   3.160   6.672  13.904  0.0873  0.6471  0.2546
 9332TIP3    H249412   3.275   6.719  13.818  0.6323  1.3793  1.3610
 9333TIP3   OH249413   6.743   1.661  13.964 -0.1782  0.0943  0.0874
 9333TIP3    H149414   6.752   1.717  14.041 -1.0022  0.0847  0.1981
 9333TIP3    H249415   6.798   1.703  13.898 -1.1958  1.3695  0.0008
 9334TIP3   OH249416   4.412   4.597  13.173  0.0815 -0.1713  0.3452
 9334TIP3    H149417   4.393   4.683  13.135 -0.0946 -0.8104 -1.0656
 9334TIP3    H249418   4.342   4.540  13.140 -0.1344 -0.7356  1.7332
 9335TIP3   OH249419   3.461   0.811   2.881 -0.2639 -0.3327 -0.2133
 9335TIP3    H149420   3.426   0.840   2.965 -0.4129 -1.0454 -0.0245
 9335TIP3    H249421   3.431   0.720   2.872  0.1284 -0.4087 -0.8227
 9336TIP3   OH249422   1.642   5.435  13.269 -0.4440  0.2271  0.3402
 9336TIP3    H149423   1.613   5.526  13.279  0.4948  0.7226 -1.0157
 9336TIP3    H249424   1.722   5.442  13.216 -0.2044 -1.3785  0.4492
 9337TIP3   OH249425   6.498   3.300  16.160 -0.0063  0.2646  0.2150
 9337TIP3    H149426   6.592   3.288  16.147 -0.2220  0.1266 -1.3757
 9337TIP3    H249427   6.483   3.393  16.144  0.1950  0.8734  3.0071
 9338TIP3   OH249428   2.171   1.018   2.724 -0.8996 -0.1102 -0.8784
 9338TIP3    H149429   2.179   0.972   2.640  1.8535 -2.9522  0.7177
 9338TIP3    H249430   2.252   1.067   2.732 -1.6445  1.0781 -0.3275
 9339TIP3   OH249431   4.090   4.142  16.066 -0.2486 -0.3089  0.0166
 9339TIP3    H149432   4.080   4.237  16.064  0.5900 -0.1481  1.5388
 9339TIP3    H249433   4.001   4.108  16.070 -0.5359  0.4531  0.2402
 9340TIP3   OH249434   2.384   0.191  17.255 -0.1293 -0.2075 -0.5386
 9340TIP3    H149435   2.471   0.203  17.216 -0.5492  1.9365 -0.9591
 9340TIP3    H249436   2.401   0.150  17.339  1.4155  1.0450 -0.1938
 9341TIP3   OH249437   6.499   3.787  13.659 -0.2683 -0.1469  1.1605
 9341TIP3    H149438   6.419   3.758  13.702 -0.5566 -1.8479 -0.3854
 9341TIP3    H249439   6.515   3.721  13.591  0.2375  2.2633 -1.2124
 9342TIP3   OH249440   6.002   0.682  14.421  0.6755 -0.4368 -0.3205
 9342TIP3    H149441   6.087   0.656  14.386  0.1546 -1.2884 -0.9948
 9342TIP3    H249442   5.939   0.622  14.381 -0.3733  0.7634 -0.5858
 9343TIP3   OH249443   4.519   5.744   5.021 -0.2182 -0.1573  0.2292
 9343TIP3    H149444   4.528   5.657   5.059  0.5355 -0.7013 -1.1074
 9343TIP3    H249445   4.455   5.732   4.950  1.1043 -0.0412 -1.0393
 9344TIP3   OH249446   2.549   5.313  14.531  0.1043  0.0167  0.3219
 9344TIP3    H149447   2.466   5.325  14.577  0.2188 -0.7505  0.7448
 9344TIP3    H249448   2.525   5.304  14.439 -0.4675 -2.0198  0.6363
 9345TIP3   OH249449   6.485   6.136  15.021  0.5120 -0.0253  0.3033
 9345TIP3    H149450   6.540   6.169  14.950 -0.6632  0.2652 -0.5031
 9345TIP3    H249451   6.530   6.164  15.101  1.7018 -0.0993 -0.3254
 9346TIP3   OH249452   4.877   6.160   4.684 -0.0437 -0.1104 -0.6066
 9346TIP3    H149453   4.890   6.106   4.606 -0.1173  2.2188 -2.3331
 9346TIP3    H249454   4.958   6.149   4.734 -0.7660 -3.1586  0.0744
 9347TIP3   OH249455   3.366   1.170   0.689 -0.4616  0.2840 -0.1366
 9347TIP3    H149456   3.459   1.163   0.667 -0.7505 -0.2362 -1.2007
 9347TIP3    H249457   3.352   1.104   0.757 -0.1563  0.0625 -0.2898
 9348TIP3   OH249458   2.324   5.504  14.065 -0.5405  0.3582 -0.0165
 9348TIP3    H149459   2.311   5.533  13.975 -1.7156 -1.5560 -0.5384
 9348TIP3    H249460   2.366   5.418  14.056 -0.7394  0.1162  1.2418
 9349TIP3   OH249461   4.784   3.447  17.288  0.5592  0.8482  0.3292
 9349TIP3    H149462   4.853   3.486  17.235  0.1750  0.1926 -0.6867
 9349TIP3    H249463   4.746   3.380  17.232  1.0368 -0.8333  1.9274
 9350TIP3   OH249464   1.899   4.983  11.815 -0.1552  0.0757 -0.0935
 9350TIP3    H149465   1.909   5.071  11.853  0.4181  0.2371 -0.6182
 9350TIP3    H249466   1.804   4.969  11.813 -0.2625  0.8088 -0.2999
 9351TIP3   OH249467   4.068   3.424   4.788  0.2642  0.2920 -0.4758
 9351TIP3    H149468   4.112   3.412   4.873  1.4417 -1.6339 -1.2853
 9351TIP3    H249469   4.122   3.489   4.742 -0.8100  1.9326  0.4689
 9352TIP3   OH249470   1.799   5.350   5.546 -0.3858  0.2309 -0.9693
 9352TIP3    H149471   1.800   5.259   5.516 -0.3925 -0.8164  1.9052
 9352TIP3    H249472   1.887   5.365   5.582 -1.4808 -0.0656  2.1556
 9353TIP3   OH249473   0.274   4.654  12.125  0.6649  0.4880  0.0834
 9353TIP3    H149474   0.268   4.678  12.033  0.8625  1.3210  0.2750
 9353TIP3    H249475   0.187   4.673  12.161  1.3881  3.0958  0.7048
 9354TIP3   OH249476   2.772   3.717   3.289 -0.4094 -0.6333 -0.4299
 9354TIP3    H149477   2.813   3.796   3.324 -0.8075 -0.4659 -0.3289
 9354TIP3    H249478   2.712   3.749   3.222 -2.4638 -0.5649  1.3002
 9355TIP3   OH249479   2.766   4.649   3.898  0.0106  0.4355 -0.5392
 9355TIP3    H149480   2.716   4.583   3.851 -2.0872  2.6883 -1.7132
 9355TIP3    H249481   2.711   4.672   3.973  0.8753  0.6218  0.0581
 9356TIP3   OH249482   3.146   5.595   4.035 -0.1396  0.6858  0.3498
 9356TIP3    H149483   3.153   5.521   4.095  1.1077  0.3421 -0.1763
 9356TIP3    H249484   3.230   5.641   4.043 -0.7754  1.8716  0.4401
 9357TIP3   OH249485   2.235   3.168  15.991 -0.3435  0.5597  0.5202
 9357TIP3    H149486   2.179   3.164  15.914  0.3296 -0.2037  0.0614
 9357TIP3    H249487   2.313   3.215  15.961  0.5513 -1.0087  0.3164
 9358TIP3   OH249488   3.879   4.351   0.347  0.5940  0.1752  0.1021
 9358TIP3    H149489   3.942   4.391   0.407 -0.0944  2.0292 -0.3266
 9358TIP3    H249490   3.829   4.291   0.402  0.4025  1.3479  1.2743
 9359TIP3   OH249491   2.201   0.749  13.188 -0.1810 -0.0662 -0.0526
 9359TIP3    H149492   2.189   0.664  13.231  1.8195 -0.9205 -1.0528
 9359TIP3    H249493   2.180   0.814  13.255 -1.1118 -1.3341  0.9288
 9360TIP3   OH249494   5.920   3.451  17.280  0.1222  0.3896 -0.3175
 9360TIP3    H149495   5.911   3.508  17.356  1.8590  1.4913 -0.8755
 9360TIP3    H249496   6.009   3.467  17.248 -0.8504  0.6752 -3.1546
 9361TIP3   OH249497   5.410   4.983   5.869 -0.3444  0.1343  0.0167
 9361TIP3    H149498   5.427   4.911   5.930  0.9589  0.2373 -0.1979
 9361TIP3    H249499   5.441   4.950   5.784  1.8041  1.4854  0.2022
 9362TIP3   OH249500   5.580   2.243   4.852 -0.1564  0.0072 -0.1459
 9362TIP3    H149501   5.602   2.336   4.846  1.5801 -0.3316  0.5219
 9362TIP3    H249502   5.525   2.227   4.776 -0.0562  1.4685 -0.5574
 9363TIP3   OH249503   0.079   4.264   2.456 -0.3276  0.0188  0.5575
 9363TIP3    H149504   0.010   4.291   2.395  0.7405 -1.7174 -1.5758
 9363TIP3    H249505   0.135   4.341   2.464  1.0520 -0.4155 -3.0379
 9364TIP3   OH249506   5.109   4.970  16.445 -0.6221 -0.6109  0.3666
 9364TIP3    H149507   5.038   4.951  16.506  0.2557 -1.5930  1.1261
 9364TIP3    H249508   5.187   4.977  16.500 -0.3980  2.5544 -0.2008
 9365TIP3   OH249509   0.069   3.704   1.339  0.8302  0.4705  0.5478
 9365TIP3    H149510   0.127   3.720   1.413  2.5368 -2.2801 -0.0216
 9365TIP3    H249511   0.101   3.763   1.270  1.6646  0.4174  0.8766
 9366TIP3   OH249512   1.009   3.815   1.124  0.0359 -0.4112 -1.0070
 9366TIP3    H149513   1.070   3.880   1.158 -0.4315 -0.0131 -0.9294
 9366TIP3    H249514   0.996   3.840   1.032 -0.3956 -0.2028 -0.8902
 9367TIP3   OH249515   4.297   3.486   0.712 -0.0577 -0.3435  0.1754
 9367TIP3    H149516   4.350   3.407   0.704 -1.0712 -1.3607  2.5353
 9367TIP3    H249517   4.301   3.527   0.626  1.7416 -2.1602 -0.6703
 9368TIP3   OH249518   6.714   2.071  12.494  0.4868 -0.1282  0.3193
 9368TIP3    H149519   6.677   1.992  12.455  1.2685 -0.1635 -0.3721
 9368TIP3    H249520   6.751   2.042  12.577  2.3460 -0.8899 -0.7121
 9369TIP3   OH249521   4.662   4.200  15.778 -0.1156  0.1622  0.2395
 9369TIP3    H149522   4.754   4.174  15.785 -0.6796 -2.3283 -0.5266
 9369TIP3    H249523   4.634   4.167  15.693 -1.5427  1.5995  0.1103
 9370TIP3   OH249524   2.593   6.134  16.774  0.4213  0.3046  0.0442
 9370TIP3    H149525   2.559   6.133  16.864  0.3275 -2.2824  0.0525
 9370TIP3    H249526   2.546   6.206  16.732 -0.2702  0.9429  1.7927
 9371TIP3   OH249527   2.795   5.382   3.948  0.5962  0.8047 -0.0896
 9371TIP3    H149528   2.831   5.344   4.028  1.5774  1.1233 -0.3711
 9371TIP3    H249529   2.853   5.351   3.878  0.3188  1.3072 -0.5517
 9372TIP3   OH249530   5.431   0.431   1.534  0.0527 -0.0639  0.5783
 9372TIP3    H149531   5.336   0.423   1.528 -0.1937  2.7875 -1.7605
 9372TIP3    H249532   5.465   0.368   1.470 -0.3697 -0.1044  0.3934
 9373TIP3   OH249533   6.245   0.377   3.853 -0.4441 -0.6991  0.1258
 9373TIP3    H149534   6.314   0.412   3.797 -0.2133 -1.8644 -0.3652
 9373TIP3    H249535   6.292   0.342   3.929 -0.3974 -2.0286 -0.4835
 9374TIP3   OH249536   3.893   3.662  14.814 -0.0400  0.1665  0.0711
 9374TIP3    H149537   3.842   3.583  14.796 -1.0460  0.8098  0.0613
 9374TIP3    H249538   3.947   3.673  14.735 -2.3542  1.3567 -1.4706
 9375TIP3   OH249539   1.807   5.244   3.775  1.0722 -0.2623 -0.3500
 9375TIP3    H149540   1.847   5.280   3.696 -1.0648  1.6638 -0.6425
 9375TIP3    H249541   1.828   5.307   3.844 -0.9027  0.5239 -0.4061
 9376TIP3   OH249542   1.124   6.434   4.191 -0.1055 -0.5708 -0.2466
 9376TIP3    H149543   1.140   6.527   4.182 -2.9694  0.0950  0.4446
 9376TIP3    H249544   1.085   6.408   4.107  0.9963 -1.2717 -0.5677
 9377TIP3   OH249545   5.537   2.247  13.962  0.2485  1.1052  0.2682
 9377TIP3    H149546   5.519   2.154  13.951  1.3570  0.7988  0.8545
 9377TIP3    H249547   5.452   2.286  13.983 -0.0762  0.0779  0.9302
 9378TIP3   OH249548   1.025   1.912   1.054 -0.0915  0.2922  0.6526
 9378TIP3    H149549   0.932   1.928   1.040  0.1239 -0.3724 -2.3052
 9378TIP3    H249550   1.065   1.999   1.051 -0.3520  0.3874 -1.1966
 9379TIP3   OH249551   3.677   1.493  13.202 -0.2326  0.5761  0.5207
 9379TIP3    H149552   3.667   1.435  13.278  1.8017 -0.8658 -0.2102
 9379TIP3    H249553   3.745   1.451  13.149  0.2656  2.8888 -0.8128
 9380TIP3   OH249554   5.009   0.638   1.572  0.3177  0.0489  0.1526
 9380TIP3    H149555   5.020   0.639   1.667 -0.2506  1.4585  0.2309
 9380TIP3    H249556   5.084   0.588   1.540  1.7608  1.4352  1.2071
 9381TIP3   OH249557   2.151   4.194   3.389 -0.3297 -0.8014 -0.3007
 9381TIP3    H149558   2.150   4.290   3.394 -1.3896 -0.8584  0.9057
 9381TIP3    H249559   2.068   4.167   3.427  0.7671 -2.2888  1.1560
 9382TIP3   OH249560   5.988   3.939  15.125 -0.2427 -0.0142  0.1706
 9382TIP3    H149561   5.944   3.877  15.066  0.0076 -0.2661  0.2457
 9382TIP3    H249562   6.015   3.885  15.199 -0.5891  0.3100  0.5336
 9383TIP3   OH249563   1.817   0.138  16.325 -0.6409  0.4830  0.3266
 9383TIP3    H149564   1.795   0.186  16.245 -0.3154 -0.4289 -0.3215
 9383TIP3    H249565   1.784   0.194  16.396 -1.0336  1.2498 -0.4394
 9384TIP3   OH249566   4.593   1.098   5.503 -0.3136 -0.4215 -0.0004
 9384TIP3    H149567   4.642   1.102   5.421 -1.0992  0.6148 -0.4403
 9384TIP3    H249568   4.521   1.037   5.485 -0.6013 -0.0423 -0.1631
 9385TIP3   OH249569   2.720   0.753   4.887  0.2123 -0.3667  0.1089
 9385TIP3    H149570   2.709   0.689   4.956 -2.9692 -1.1761 -1.0047
 9385TIP3    H249571   2.812   0.779   4.893  0.6915 -2.2985  2.9075
 9386TIP3   OH249572   1.844   4.018  10.580 -0.0095 -0.3538 -0.4332
 9386TIP3    H149573   1.787   4.095  10.586 -1.6881 -1.2825 -2.6877
 9386TIP3    H249574   1.783   3.946  10.563  1.7789 -1.3920 -3.0663
 9387TIP3   OH249575   0.030   3.920  13.267 -0.0881 -0.0246  0.2683
 9387TIP3    H149576  -0.038   3.981  13.295  0.7335  0.6531  0.8686
 9387TIP3    H249577   0.104   3.977  13.242 -0.1664 -0.6916 -1.5725
 9388TIP3   OH249578   0.363   6.291  15.855  0.0216  0.2422 -0.1715
 9388TIP3    H149579   0.373   6.226  15.786 -1.5170  1.0287 -1.1860
 9388TIP3    H249580   0.449   6.332  15.861  0.3549 -0.2719 -1.1770
 9389TIP3   OH249581   6.135   3.480   3.446 -0.2550 -0.3971 -0.2453
 9389TIP3    H149582   6.180   3.418   3.389  0.6618  1.9459 -2.2345
 9389TIP3    H249583   6.050   3.492   3.405 -0.4349 -0.3242  0.1445
 9390TIP3   OH249584   1.078   2.447   5.627  0.5048 -0.4490  0.1526
 9390TIP3    H149585   1.098   2.540   5.634 -0.7800  0.0224 -1.7474
 9390TIP3    H249586   1.153   2.409   5.581  0.0986  0.0680 -0.9690
 9391TIP3   OH249587   0.471   0.743   6.344  0.5407 -0.0981  0.3407
 9391TIP3    H149588   0.484   0.807   6.414 -1.0263  1.2623 -0.5446
 9391TIP3    H249589   0.413   0.677   6.382  0.1974  0.3011  0.5109
 9392TIP3   OH249590   3.352   2.032  16.018  0.3727 -0.3610  0.1843
 9392TIP3    H149591   3.419   2.089  16.056  0.1841 -0.8880  1.3547
 9392TIP3    H249592   3.285   2.092  15.987  1.3388  0.1751 -0.9600
 9393TIP3   OH249593   3.824   2.543  12.020  0.0367  0.2636  0.3681
 9393TIP3    H149594   3.729   2.531  12.015  0.3077 -2.1207 -0.0201
 9393TIP3    H249595   3.849   2.498  12.101  1.2018 -2.4046 -1.3571
 9394TIP3   OH249596   4.899   4.232   4.690  0.2543 -0.7173  0.1717
 9394TIP3    H149597   4.903   4.160   4.752  0.9605 -0.3574  0.5581
 9394TIP3    H249598   4.980   4.227   4.641  0.4199 -0.0546  0.3597
 9395TIP3   OH249599   5.416   1.915  14.503 -0.3092 -0.0207  0.1903
 9395TIP3    H149600   5.338   1.859  14.495  0.9598 -1.9533  0.6572
 9395TIP3    H249601   5.485   1.856  14.534  1.0060  1.9421  1.2100
 9396TIP3   OH249602   5.065   0.447  11.933 -0.0598 -0.2029  0.4017
 9396TIP3    H149603   5.091   0.498  11.856 -2.3405  0.2057 -0.1803
 9396TIP3    H249604   5.047   0.359  11.898 -0.5437 -0.1687  0.5565
 9397TIP3   OH249605   0.266   4.862  13.743  0.3850  0.2532  0.6909
 9397TIP3    H149606   0.330   4.839  13.677 -0.4818 -0.2204  0.0013
 9397TIP3    H249607   0.271   4.792  13.808 -1.0071 -1.0312 -0.5140
 9398TIP3   OH249608   1.107   0.426   4.284  0.0555  0.4188  0.1479
 9398TIP3    H149609   1.185   0.462   4.242 -0.0313  0.5070  0.0625
 9398TIP3    H249610   1.041   0.495   4.275  0.4139  1.0036  1.6134
 9399TIP3   OH249611   1.789   5.944  14.750  0.1203  0.2152  0.0868
 9399TIP3    H149612   1.785   6.019  14.691 -0.8254  0.7391  0.7824
 9399TIP3    H249613   1.880   5.913  14.744  0.6734  1.7420  0.1668
 9400TIP3   OH249614   6.529   4.461   3.209 -0.6084  0.2629 -0.3941
 9400TIP3    H149615   6.536   4.551   3.240 -1.6029  0.0220  0.5705
 9400TIP3    H249616   6.479   4.416   3.277  2.1966 -1.7083  0.5313
 9401TIP3   OH249617   6.763   2.406   0.394 -0.6874  1.0476 -0.0877
 9401TIP3    H149618   6.717   2.488   0.411  1.6498  2.1169  1.7758
 9401TIP3    H249619   6.762   2.360   0.478  0.9771  0.8028 -0.1649
 9402TIP3   OH249620   3.663   6.685   4.321  0.4411 -0.0353 -0.2163
 9402TIP3    H149621   3.735   6.730   4.365  0.9772 -0.0166 -1.0778
 9402TIP3    H249622   3.584   6.732   4.348  0.7686  0.0443  0.6114
 9403TIP3   OH249623   5.304   0.135   1.483 -0.8096  0.6192  0.1652
 9403TIP3    H149624   5.218   0.104   1.513 -0.8430 -1.2147 -1.6150
 9403TIP3    H249625   5.353   0.055   1.463  0.2459  1.6510 -1.7105
 9404TIP3   OH249626   2.423   4.587  14.757 -0.3141  0.5309 -0.0334
 9404TIP3    H149627   2.481   4.624  14.690 -1.1553  0.5116 -0.7978
 9404TIP3    H249628   2.425   4.493  14.739 -1.0291  0.5886 -0.4441
 9405TIP3   OH249629   0.434   2.171  14.323 -0.3100  0.6453  0.2338
 9405TIP3    H149630   0.515   2.174  14.374 -0.1989  2.4738  0.0148
 9405TIP3    H249631   0.367   2.147  14.387  0.1457  0.8258  0.7887
 9406TIP3   OH249632   0.952   5.897   6.021  0.1001  0.1922  0.2436
 9406TIP3    H149633   1.029   5.939   6.060  0.1282  1.7913 -1.4002
 9406TIP3    H249634   0.928   5.954   5.949 -0.0470 -2.4994 -2.0039
 9407TIP3   OH249635   5.731   3.291  14.934  0.2317  0.7045 -0.3666
 9407TIP3    H149636   5.792   3.337  14.877 -0.4124  1.4245 -0.4837
 9407TIP3    H249637   5.659   3.352  14.946 -1.3734 -0.8107 -1.7489
 9408TIP3   OH249638   1.347   5.010   4.890 -0.6350 -0.0889 -0.6996
 9408TIP3    H149639   1.321   4.958   4.814 -0.8975  1.4397 -1.7055
 9408TIP3    H249640   1.288   5.085   4.889 -0.2176  0.2812  0.6539
 9409TIP3   OH249641   5.424   3.379   2.350 -0.2852 -0.2281 -0.1683
 9409TIP3    H149642   5.437   3.430   2.430 -2.5121  0.5777 -0.2616
 9409TIP3    H249643   5.348   3.420   2.308  0.5974 -0.8631 -2.5184
 9410TIP3   OH249644   6.750   1.167  12.266 -0.9043 -0.1888  0.3159
 9410TIP3    H149645   6.763   1.073  12.278  0.5399 -0.1123 -0.3849
 9410TIP3    H249646   6.759   1.181  12.172 -3.1442  0.4104  0.1349
 9411TIP3   OH249647   0.466   4.313  14.105  0.2045  0.3829 -0.1469
 9411TIP3    H149648   0.381   4.315  14.061  0.0035  0.2930  0.2367
 9411TIP3    H249649   0.460   4.381  14.172  0.9676  1.4177 -1.0918
 9412TIP3   OH249650   5.536   5.798   5.365 -0.2316 -0.3249  0.5498
 9412TIP3    H149651   5.539   5.893   5.353  0.5034 -0.4826 -0.6278
 9412TIP3    H249652   5.528   5.763   5.277 -0.0040 -1.3819  0.9355
 9413TIP3   OH249653   2.024   6.207   1.393  0.2193 -0.2333 -0.1188
 9413TIP3    H149654   2.062   6.245   1.473 -1.2660  0.1782  0.4180
 9413TIP3    H249655   1.992   6.121   1.420  1.7423 -1.0708 -0.8497
 9414TIP3   OH249656   4.317   0.664  15.894  0.0310  0.2341  0.2303
 9414TIP3    H149657   4.245   0.689  15.952 -0.8837 -0.7437 -0.4459
 9414TIP3    H249658   4.378   0.616  15.950  0.5896  1.7596  0.9879
 9415TIP3   OH249659   2.588   4.650  14.539 -0.2593 -0.3081 -0.3647
 9415TIP3    H149660   2.556   4.728  14.585 -0.8199 -0.0590 -1.1671
 9415TIP3    H249661   2.668   4.679  14.495  0.5489 -0.6694  0.8078
 9416TIP3   OH249662   6.636   2.133  14.454 -0.8089  0.6483 -0.5443
 9416TIP3    H149663   6.624   2.095  14.541  0.5971  1.3684 -0.0072
 9416TIP3    H249664   6.628   2.059  14.395  1.9061 -0.6002  0.4785
 9417TIP3   OH249665   4.368   0.401   1.944 -0.0570  0.0493  0.2061
 9417TIP3    H149666   4.308   0.400   1.869 -1.1645  1.6660  1.0143
 9417TIP3    H249667   4.419   0.320   1.935 -1.1496 -0.5073 -1.4778
 9418TIP3   OH249668   2.866   6.485  14.656 -1.0415 -0.3762 -0.5420
 9418TIP3    H149669   2.948   6.494  14.608 -2.0098 -0.3427 -2.2960
 9418TIP3    H249670   2.862   6.563  14.711  0.1357 -0.4294 -0.3481
 9419TIP3   OH249671   0.813   4.187   1.203  0.5027  0.1148  0.3661
 9419TIP3    H149672   0.769   4.139   1.133 -0.5423  0.7521  0.5729
 9419TIP3    H249673   0.752   4.186   1.276  0.7599  1.1420  0.6148
 9420TIP3   OH249674   4.206   6.754   3.577 -0.1055 -0.3961  0.2999
 9420TIP3    H149675   4.241   6.691   3.514  2.1458 -0.3303  1.3679
 9420TIP3    H249676   4.271   6.755   3.648 -2.3912 -0.2906  2.5249
 9421TIP3   OH249677   0.064   1.794  13.619 -0.7367 -0.4584 -0.5325
 9421TIP3    H149678   0.071   1.868  13.680  2.6397 -1.3689  0.4335
 9421TIP3    H249679  -0.029   1.771  13.619 -1.2093  0.8809  2.7525
 9422TIP3   OH249680   5.046   1.743   2.136  0.2857 -0.0486  0.0204
 9422TIP3    H149681   5.011   1.739   2.225  0.4241 -0.7201  0.0492
 9422TIP3    H249682   4.970   1.757   2.081  0.3018  1.3567  0.3155
 9423TIP3   OH249683   5.129   0.193   1.175 -0.2866  0.0356 -0.2620
 9423TIP3    H149684   5.097   0.135   1.244  1.1120  0.1363  0.5110
 9423TIP3    H249685   5.065   0.264   1.172  0.0694  0.4984  1.5925
 9424TIP3   OH249686   3.168   2.263   1.338  0.8355 -0.2275 -0.0647
 9424TIP3    H149687   3.136   2.188   1.287  0.4769 -0.1620  0.0569
 9424TIP3    H249688   3.147   2.241   1.429 -0.5135  0.6097 -0.1475
 9425TIP3   OH249689   3.630   3.904  16.639  0.0170  0.2867  0.0470
 9425TIP3    H149690   3.689   3.839  16.678 -0.6897 -0.8173 -0.6796
 9425TIP3    H249691   3.619   3.875  16.549  1.0830  2.4236 -0.8408
 9426TIP3   OH249692   5.204   1.265   0.081  0.0343 -0.0604 -0.5109
 9426TIP3    H149693   5.168   1.180   0.052 -1.4392  0.1372  0.6080
 9426TIP3    H249694   5.128   1.311   0.118  1.3620  0.6020  1.5188
 9427TIP3   OH249695   4.679   1.432  14.610 -0.2205  0.5236  0.4028
 9427TIP3    H149696   4.604   1.456  14.664  0.4696  3.5476  0.1863
 9427TIP3    H249697   4.656   1.462  14.522  1.0160  1.0102  0.2284
 9428TIP3   OH249698   1.194   4.781   1.198 -0.3257 -0.0515 -0.4643
 9428TIP3    H149699   1.208   4.867   1.237  0.2520 -0.2882 -0.1351
 9428TIP3    H249700   1.173   4.724   1.272  0.4150 -0.4270 -0.5332
 9429TIP3   OH249701   2.462   0.784  12.732 -0.8036 -0.0436 -0.7091
 9429TIP3    H149702   2.484   0.724  12.803 -1.2702  1.3363  0.6425
 9429TIP3    H249703   2.547   0.819  12.704 -0.8017  1.7050  1.2867
 9430TIP3   OH249704   4.893   5.935  14.786 -0.1854  0.9475 -0.3247
 9430TIP3    H149705   4.863   6.015  14.830  0.1926  1.0506 -0.2576
 9430TIP3    H249706   4.812   5.894  14.754 -0.6877 -0.0659  2.0275
 9431TIP3   OH249707   3.214   4.015  16.337 -0.1870 -0.7758  0.6469
 9431TIP3    H149708   3.227   3.920  16.342 -1.0831 -1.0104 -0.9702
 9431TIP3    H249709   3.125   4.029  16.368 -0.6354 -0.6652 -0.6499
 9432TIP3   OH249710   3.172   4.772  15.520  0.0506  0.6563  0.0966
 9432TIP3    H149711   3.221   4.726  15.451  0.0563  0.4623  0.2297
 9432TIP3    H249712   3.236   4.786  15.589  0.3299  1.8289 -0.3842
 9433TIP3   OH249713   6.061   5.610   5.763 -0.0493 -0.1072 -0.0301
 9433TIP3    H149714   5.971   5.580   5.760  0.0645 -0.7100  1.5702
 9433TIP3    H249715   6.110   5.536   5.799  0.7868  0.8150  0.8228
 9434TIP3   OH249716   1.474   1.126   3.941  0.7158  0.3798 -0.6904
 9434TIP3    H149717   1.541   1.188   3.968  2.1026 -0.6697 -1.5697
 9434TIP3    H249718   1.489   1.113   3.847 -0.6091 -0.0214 -0.8737
 9435TIP3   OH249719   2.839   6.132   4.301 -0.0274  0.2632  0.2071
 9435TIP3    H149720   2.844   6.053   4.356 -0.0150  1.2151  1.6251
 9435TIP3    H249721   2.899   6.114   4.228 -0.6947 -1.3860  0.0125
 9436TIP3   OH249722   4.878   3.409   2.790  0.4439  0.3059 -0.1126
 9436TIP3    H149723   4.902   3.359   2.712 -0.0993  1.0262 -0.7542
 9436TIP3    H249724   4.880   3.344   2.861  1.1800 -0.3052 -0.6718
 9437TIP3   OH249725   2.138   3.262  11.340  0.6134  0.7488  0.3030
 9437TIP3    H149726   2.156   3.223  11.254 -1.7930  1.0537 -0.4187
 9437TIP3    H249727   2.224   3.275  11.379  1.7559  0.0863 -1.8322
 9438TIP3   OH249728   0.408   0.624   2.585 -0.4991  0.2385  0.3842
 9438TIP3    H149729   0.322   0.667   2.578 -0.6014  0.4705  2.4003
 9438TIP3    H249730   0.434   0.639   2.676  0.9902 -1.1508  0.2166
 9439TIP3   OH249731   4.900   2.569  13.095  0.0285  0.3511 -0.5347
 9439TIP3    H149732   4.968   2.575  13.027  1.4756 -2.2682  0.5405
 9439TIP3    H249733   4.946   2.591  13.176  0.3523 -3.4632  0.5310
 9440TIP3   OH249734   3.501   5.923   0.303 -0.1101 -0.4729  0.2378
 9440TIP3    H149735   3.440   5.978   0.253  0.8834 -1.1962 -1.8874
 9440TIP3    H249736   3.579   5.977   0.313  0.7894 -1.3058 -1.6707
 9441TIP3   OH249737   3.625   6.191   0.628 -0.0305 -0.5130 -0.1896
 9441TIP3    H149738   3.671   6.141   0.561  0.4097 -0.5753  0.1491
 9441TIP3    H249739   3.532   6.172   0.614  0.1450 -1.7331  0.1746
 9442TIP3   OH249740   2.781   0.791  16.570  0.1536  0.0201  0.3596
 9442TIP3    H149741   2.856   0.824  16.619  1.2263 -2.7790  0.7844
 9442TIP3    H249742   2.811   0.786  16.479 -0.5345  1.5564  0.0149
 9443TIP3   OH249743   6.398   5.884  14.904  0.1137  0.5105  0.4624
 9443TIP3    H149744   6.464   5.931  14.955 -0.0579 -0.6422  1.8391
 9443TIP3    H249745   6.345   5.839  14.970 -0.8513 -0.1386 -0.7068
 9444TIP3   OH249746   6.589   6.492  14.608 -0.2043  0.3592  0.5234
 9444TIP3    H149747   6.610   6.584  14.621 -0.0430  0.5546 -0.9622
 9444TIP3    H249748   6.509   6.493  14.556 -0.6642 -0.3510  1.2007
 9445TIP3   OH249749   3.883   6.335   6.412  0.6033  0.6374 -0.1709
 9445TIP3    H149750   3.826   6.410   6.424 -1.0494 -0.9056  3.1569
 9445TIP3    H249751   3.827   6.259   6.429  1.7002 -1.6740 -5.0802
 9446TIP3   OH249752   5.963   0.731   5.502 -0.1170  0.1633  0.0399
 9446TIP3    H149753   6.003   0.682   5.431  1.0287  0.5419  0.3989
 9446TIP3    H249754   6.031   0.792   5.530 -1.0957  1.1329  0.3919
 9447TIP3   OH249755   2.801   6.153  16.286  0.4650 -0.2495 -0.1621
 9447TIP3    H149756   2.712   6.131  16.314  0.7539 -3.3314 -1.2248
 9447TIP3    H249757   2.853   6.150  16.366 -0.4405  2.4761  0.6188
 9448TIP3   OH249758   4.328   5.620  15.654  0.2085 -0.4685 -0.1645
 9448TIP3    H149759   4.398   5.671  15.614 -1.8879  1.8383 -1.1980
 9448TIP3    H249760   4.322   5.653  15.743 -0.2405  0.1126 -0.4055
 9449TIP3   OH249761   4.488   2.700   4.252  0.6606 -0.2037  0.1193
 9449TIP3    H149762   4.573   2.722   4.290 -0.1084 -1.8508  3.1092
 9449TIP3    H249763   4.459   2.622   4.300 -3.5085  1.5037  0.8156
 9450TIP3   OH249764   3.768   0.799  15.461  0.2689 -0.0493  0.6842
 9450TIP3    H149765   3.836   0.811  15.527  0.9896  0.3032 -0.1051
 9450TIP3    H249766   3.812   0.818  15.377 -0.0878 -2.3250 -0.0976
 9451TIP3   OH249767   1.835   6.111  16.745 -0.0121  0.3046  0.4813
 9451TIP3    H149768   1.765   6.175  16.727  0.5408  0.9057  0.4088
 9451TIP3    H249769   1.916   6.161  16.733  0.4735 -0.7886 -1.0337
 9452TIP3   OH249770   2.758   5.540   4.732  0.0985 -0.2763 -0.4524
 9452TIP3    H149771   2.816   5.514   4.804  0.6022  1.9387  0.0147
 9452TIP3    H249772   2.813   5.534   4.654  0.6540  0.7550 -0.1544
 9453TIP3   OH249773   0.751   5.750   1.684 -0.6971 -0.3123  0.2876
 9453TIP3    H149774   0.726   5.690   1.614 -0.7547  1.1466 -1.0007
 9453TIP3    H249775   0.823   5.706   1.729 -1.4252 -1.7884  0.0475
 9454TIP3   OH249776   2.378   2.188   2.347  0.8736  0.3507 -0.5465
 9454TIP3    H149777   2.383   2.093   2.334  0.8945  0.3724 -0.7009
 9454TIP3    H249778   2.304   2.201   2.407  2.1683  0.0671  1.2062
 9455TIP3   OH249779   2.226   0.704  12.358 -0.3650  0.7272  0.4219
 9455TIP3    H149780   2.233   0.769  12.428 -3.1122  0.2294  1.3138
 9455TIP3    H249781   2.270   0.744  12.283 -0.9942  3.1527  1.2536
 9456TIP3   OH249782   2.306   2.978  11.927 -0.5235 -0.8901  0.1360
 9456TIP3    H149783   2.240   2.909  11.921 -1.9944  0.3983  0.8447
 9456TIP3    H249784   2.266   3.053  11.883  0.6784 -0.2274  0.1386
 9457TIP3   OH249785   5.736   2.140   5.391  0.6287 -0.4184  0.4653
 9457TIP3    H149786   5.830   2.135   5.411  0.7412  0.5792  0.2689
 9457TIP3    H249787   5.696   2.074   5.447  1.5952 -1.8090 -0.4317
 9458TIP3   OH249788   1.876   3.012  15.764  0.2244 -0.0522 -0.4518
 9458TIP3    H149789   1.819   3.017  15.840  0.3885 -1.6383 -0.1859
 9458TIP3    H249790   1.818   3.024  15.689 -0.3311 -0.8153 -0.1553
 9459TIP3   OH249791   2.068   1.063  12.316  0.0345 -0.3065  0.2474
 9459TIP3    H149792   2.016   1.132  12.357 -3.3933 -1.6721 -1.4011
 9459TIP3    H249793   2.024   0.982  12.343  0.4274 -1.4651 -2.3345
 9460TIP3   OH249794   6.357   6.178  16.186 -0.1210 -0.4508 -0.5857
 9460TIP3    H149795   6.299   6.254  16.185 -1.8070 -1.6560 -0.2799
 9460TIP3    H249796   6.407   6.187  16.267  0.2976  0.7276 -0.9584
 9461TIP3   OH249797   3.522   2.464   4.818 -0.4773 -0.1548  0.2430
 9461TIP3    H149798   3.441   2.469   4.868 -1.5681 -0.0305 -1.4741
 9461TIP3    H249799   3.517   2.381   4.771 -0.4704  0.6734 -1.2684
 9462TIP3   OH249800   0.433   6.502   4.203 -0.3369  0.0144  0.1408
 9462TIP3    H149801   0.426   6.508   4.298 -1.8365  2.9068 -0.0392
 9462TIP3    H249802   0.524   6.520   4.184 -0.0365 -0.5240  0.9909
 9463TIP3   OH249803   1.437   1.271   5.248 -0.2458  0.1323  0.7334
 9463TIP3    H149804   1.502   1.339   5.232 -0.5377 -0.0492 -1.5822
 9463TIP3    H249805   1.489   1.193   5.267  0.1995  0.2464  0.0184
 9464TIP3   OH249806   4.656   0.684   2.062 -0.3409  0.6310 -0.2653
 9464TIP3    H149807   4.648   0.779   2.052 -1.2794  0.3908 -2.3937
 9464TIP3    H249808   4.606   0.648   1.988 -1.3998 -1.5544  1.4026
 9465TIP3   OH249809   6.639   4.591  16.506 -0.3388  0.1753  0.0365
 9465TIP3    H149810   6.705   4.659  16.496  1.2669 -1.2292  0.5905
 9465TIP3    H249811   6.616   4.566  16.417 -1.2620  1.6741 -0.1862
 9466TIP3   OH249812   3.391   2.796   3.032  0.5652  0.3930  0.2060
 9466TIP3    H149813   3.453   2.824   3.100 -0.3657 -1.1569  1.7844
 9466TIP3    H249814   3.397   2.701   3.033 -0.5866  0.2951 -0.8292
 9467TIP3   OH249815   3.166   0.206  13.996 -0.2021 -0.0648 -0.7898
 9467TIP3    H149816   3.171   0.177  14.087 -1.0730 -0.8503 -0.9708
 9467TIP3    H249817   3.170   0.125  13.945 -0.1278  0.3345 -1.4314
 9468TIP3   OH249818   6.605   6.032   1.098  0.8924 -0.0779  0.1532
 9468TIP3    H149819   6.538   6.001   1.160  1.0513 -0.0262  0.3503
 9468TIP3    H249820   6.671   6.074   1.153  0.6393  0.6880 -0.1163
 9469TIP3   OH249821   2.966   4.417   0.348 -0.0520  0.1089  0.3420
 9469TIP3    H149822   2.985   4.461   0.265 -2.7437 -0.4855 -0.7117
 9469TIP3    H249823   2.939   4.488   0.406  1.0263  0.4341  0.4672
 9470TIP3   OH249824   2.240   4.328   1.614 -0.4668 -0.2292  0.7378
 9470TIP3    H149825   2.294   4.397   1.652 -0.4282  0.8528 -1.1802
 9470TIP3    H249826   2.153   4.343   1.652 -1.2787  2.9418 -1.8935
 9471TIP3   OH249827   2.279   4.887   1.335  0.5130 -0.2399 -0.4143
 9471TIP3    H149828   2.184   4.902   1.329  0.8081  1.5831 -1.2526
 9471TIP3    H249829   2.308   4.950   1.401  1.1407 -0.8967 -0.0539
 9472TIP3   OH249830   6.524   2.222  16.396 -0.4184 -0.5557  0.5783
 9472TIP3    H149831   6.595   2.279  16.424  0.1550 -1.0198  0.1090
 9472TIP3    H249832   6.452   2.241  16.456  0.4610 -0.8649  1.7712
 9473TIP3   OH249833   2.584   5.970   5.647 -0.6546 -0.6308 -0.2031
 9473TIP3    H149834   2.586   5.977   5.552  0.2570 -2.3772 -0.3540
 9473TIP3    H249835   2.670   5.935   5.670 -1.6653 -2.4267  1.0381
 9474TIP3   OH249836   1.242   1.100  16.181 -0.0762  0.0283 -0.2049
 9474TIP3    H149837   1.331   1.125  16.209 -0.2500 -0.6972  1.0699
 9474TIP3    H249838   1.220   1.025  16.237 -2.0057  1.0251  0.4450
 9475TIP3   OH249839   3.581   6.595  12.013 -0.0829  0.6029 -0.3066
 9475TIP3    H149840   3.615   6.631  12.095 -3.0607 -1.4402  2.0570
 9475TIP3    H249841   3.515   6.658  11.985 -1.2534 -0.1358  0.6751
 9476TIP3   OH249842   3.010   0.633  14.487  0.4204 -0.5733 -1.2171
 9476TIP3    H149843   2.973   0.644  14.575  2.5278 -1.3802 -0.1416
 9476TIP3    H249844   2.959   0.692  14.432 -0.9326  0.0232  0.5529
 9477TIP3   OH249845   0.571   6.185   2.281 -0.1176  0.6078 -0.2068
 9477TIP3    H149846   0.662   6.158   2.296 -0.4818 -1.1759 -1.0640
 9477TIP3    H249847   0.575   6.281   2.283  1.8150  0.5758 -0.4201
 9478TIP3   OH249848   2.111   1.436  15.072  0.3754  0.4295  0.1184
 9478TIP3    H149849   2.092   1.347  15.099  0.0200  0.5105  0.1342
 9478TIP3    H249850   2.081   1.441  14.981  0.2812  0.5677  0.1560
 9479TIP3   OH249851   6.382   5.593  11.878  0.2728  0.2838  0.7290
 9479TIP3    H149852   6.325   5.653  11.829  1.4063  1.0578  0.3044
 9479TIP3    H249853   6.436   5.651  11.931  2.0129 -0.2760 -0.3587
 9480TIP3   OH249854   1.605   3.078   4.300  0.0772 -0.0530 -0.4729
 9480TIP3    H149855   1.537   3.075   4.368 -0.4333 -2.0607 -1.0259
 9480TIP3    H249856   1.676   3.024   4.335 -0.0542 -0.8290 -1.3671
 9481TIP3   OH249857   4.388   6.184  15.282  0.4848 -0.2253  0.3534
 9481TIP3    H149858   4.382   6.260  15.340  0.6591  0.2816 -0.2686
 9481TIP3    H249859   4.341   6.115  15.327 -0.9417  0.6661  0.3095
 9482TIP3   OH249860   5.201   1.617   3.059 -0.5297 -0.3215 -0.1099
 9482TIP3    H149861   5.158   1.611   3.144 -0.0429 -3.7835  0.0627
 9482TIP3    H249862   5.294   1.600   3.077 -0.2229  0.0569 -1.2137
 9483TIP3   OH249863   3.905   4.762  13.083  0.6299 -0.3952  0.6574
 9483TIP3    H149864   3.855   4.756  13.164  1.8979 -1.3124  1.4038
 9483TIP3    H249865   3.887   4.680  13.037  1.0598 -0.5082  0.6923
 9484TIP3   OH249866   5.301   2.712   3.715  0.3539  0.1121  0.0730
 9484TIP3    H149867   5.207   2.693   3.706  0.2243  1.0492 -0.6634
 9484TIP3    H249868   5.306   2.768   3.793  0.1676  0.8696 -0.4452
 9485TIP3   OH249869   1.029   3.338   3.504  0.2576 -0.1240 -0.4606
 9485TIP3    H149870   1.050   3.422   3.462 -0.0521  0.4763  0.5508
 9485TIP3    H249871   1.038   3.274   3.434  1.1599  0.6640 -1.0991
 9486TIP3   OH249872   0.568   2.801  14.108  0.1854 -0.4109 -0.2508
 9486TIP3    H149873   0.562   2.895  14.093  0.8487  0.0471  2.0761
 9486TIP3    H249874   0.656   2.787  14.143 -0.7355 -1.4741  1.8322
 9487TIP3   OH249875   0.228   2.910   0.534  0.4224  0.1181  0.6107
 9487TIP3    H149876   0.323   2.898   0.530  0.3230 -0.9196  0.9613
 9487TIP3    H249877   0.199   2.898   0.443  0.6125  0.3685  0.5146
 9488TIP3   OH249878   6.098   6.274  16.755  0.1640  0.0756 -0.2525
 9488TIP3    H149879   6.002   6.275  16.749  0.1957  0.0994 -0.8029
 9488TIP3    H249880   6.127   6.250  16.668  0.6473 -0.8783  0.1626
 9489TIP3   OH249881   0.004   6.441  15.799  0.2460  0.4298 -0.0119
 9489TIP3    H149882   0.022   6.535  15.807 -1.2648  0.6444  1.3975
 9489TIP3    H249883  -0.079   6.436  15.752  0.0626 -0.1767  0.3622
 9490TIP3   OH249884   6.094   5.132  13.259 -0.4958  0.4967  0.5654
 9490TIP3    H149885   6.007   5.094  13.272 -0.0518 -0.6700  0.1472
 9490TIP3    H249886   6.077   5.227  13.256 -1.5934  0.3799  1.7183
 9491TIP3   OH249887   0.480   1.248  15.988 -0.1096 -0.2637  0.5800
 9491TIP3    H149888   0.559   1.285  16.028 -0.0312 -0.8633  0.9944
 9491TIP3    H249889   0.415   1.318  15.995  0.9751  1.1040 -1.8274
 9492TIP3   OH249890   3.026   4.523   5.961 -0.3891  0.1422  0.0986
 9492TIP3    H149891   3.030   4.595   6.024  2.4641 -0.9040  1.2799
 9492TIP3    H249892   3.056   4.562   5.879 -1.2531  0.8334  0.0961
 9493TIP3   OH249893   0.179   4.061  12.046 -0.0292 -0.0558 -0.5361
 9493TIP3    H149894   0.251   4.112  12.009  0.1983  0.2916  0.3720
 9493TIP3    H249895   0.146   4.009  11.972  1.5677 -0.7201 -0.8154
 9494TIP3   OH249896   0.543   0.228  16.128 -0.5713  0.1330  0.3735
 9494TIP3    H149897   0.541   0.279  16.046 -0.0092  1.1408  0.9657
 9494TIP3    H249898   0.617   0.264  16.177  0.3505 -1.8029  0.5004
 9495TIP3   OH249899   3.493   2.442  11.652  0.5072  0.1007 -0.0835
 9495TIP3    H149900   3.486   2.532  11.686  0.0297 -0.1645  0.5350
 9495TIP3    H249901   3.487   2.453  11.557  2.6229  0.9235 -0.1672
 9496TIP3   OH249902   4.691   2.295  15.705 -0.3716 -0.0351  0.5018
 9496TIP3    H149903   4.650   2.314  15.621 -3.6698 -0.2251  1.9445
 9496TIP3    H249904   4.716   2.202  15.699 -1.0417 -0.1831 -0.1069
 9497TIP3   OH249905   4.676   1.136   3.814  0.4262 -0.1602  0.0861
 9497TIP3    H149906   4.699   1.173   3.899 -0.7515  0.8959 -0.0249
 9497TIP3    H249907   4.639   1.050   3.834  1.4883 -0.5449  0.4967
 9498TIP3   OH249908   1.349   3.660   2.041  0.7613 -0.2226  0.3777
 9498TIP3    H149909   1.421   3.708   2.082  0.1132 -0.2909  1.6437
 9498TIP3    H249910   1.277   3.665   2.104  0.2544 -1.7602 -0.0263
 9499TIP3   OH249911   0.908   3.421  16.789  0.2419  0.1032  0.1773
 9499TIP3    H149912   0.884   3.511  16.811  3.3247  1.5887 -1.8607
 9499TIP3    H249913   0.891   3.414  16.695  0.9891 -1.0662  0.1094
 9500TIP3   OH249914   1.955   3.865  12.890 -0.1398  0.1328  0.1604
 9500TIP3    H149915   1.918   3.899  12.971  0.4544  1.1389  0.0326
 9500TIP3    H249916   1.885   3.872  12.826  0.0301  1.3281  0.0926
 9501TIP3   OH249917   6.743   5.376  15.261  0.2601  0.4760 -0.4656
 9501TIP3    H149918   6.732   5.303  15.322  3.1179 -0.5253 -1.0104
 9501TIP3    H249919   6.675   5.362  15.194  1.8284 -2.8990 -1.5912
 9502TIP3   OH249920   3.934   0.959   4.577 -0.1536 -0.3323 -0.0913
 9502TIP3    H149921   3.849   0.919   4.561  0.3166 -1.6684  0.5994
 9502TIP3    H249922   3.988   0.888   4.614  0.1786  1.3280  2.9699
 9503TIP3   OH249923   2.963   2.224  14.928 -0.4020 -0.0103  0.0702
 9503TIP3    H149924   2.884   2.259  14.971 -1.1616  0.7499 -1.8080
 9503TIP3    H249925   3.023   2.299  14.925 -0.0558 -0.2678  0.4508
 9504TIP3   OH249926   0.259   4.301  16.523  0.1991 -0.6366  0.7368
 9504TIP3    H149927   0.234   4.390  16.495 -1.0773 -1.2206 -0.0800
 9504TIP3    H249928   0.343   4.313  16.568  0.2349  0.9340  0.3253
 9505TIP3   OH249929   5.714   1.980  13.785  0.0779 -0.2342 -0.1261
 9505TIP3    H149930   5.683   1.899  13.825 -0.1395  0.5126  1.2925
 9505TIP3    H249931   5.704   2.046  13.854 -0.1125  1.0787 -1.3643
 9506TIP3   OH249932   5.088   1.745   0.490 -0.3580  0.5439 -0.2754
 9506TIP3    H149933   5.128   1.698   0.563 -0.4164  1.0103  0.0583
 9506TIP3    H249934   5.054   1.676   0.433 -1.2232  0.1822  0.6424
 9507TIP3   OH249935   1.792   5.384  17.052  0.2914 -0.3706 -0.1128
 9507TIP3    H149936   1.883   5.357  17.068  0.6024 -0.3248 -1.6651
 9507TIP3    H249937   1.746   5.302  17.034 -0.1057 -0.4474  1.1789
 9508TIP3   OH249938   1.591   3.618  15.794  0.0856 -0.0743  0.3191
 9508TIP3    H149939   1.681   3.592  15.816  0.6298 -0.1388 -1.7810
 9508TIP3    H249940   1.601   3.688  15.730 -1.3976  1.5461  1.7691
 9509TIP3   OH249941   5.275   0.760   0.833 -0.5034  0.2736 -0.2043
 9509TIP3    H149942   5.188   0.730   0.860 -0.2206 -0.2394  0.1187
 9509TIP3    H249943   5.334   0.688   0.854 -0.1401  0.2120 -1.3433
 9510TIP3   OH249944   5.940   0.496  11.299  0.1457 -0.0629  1.0073
 9510TIP3    H149945   5.933   0.482  11.205  0.5852 -1.3785  1.1533
 9510TIP3    H249946   5.853   0.527  11.325 -0.0114  0.1989  0.1963
 9511TIP3   OH249947   2.044   0.173   3.351  0.1293  0.1129 -0.0866
 9511TIP3    H149948   2.008   0.112   3.415  1.0541 -0.4912 -0.1351
 9511TIP3    H249949   2.093   0.237   3.402  0.6955 -0.2510 -0.1667
 9512TIP3   OH249950   1.834   0.233   5.667 -0.0249 -1.1851  0.3263
 9512TIP3    H149951   1.839   0.224   5.572  0.5815 -0.9014  0.3276
 9512TIP3    H249952   1.749   0.275   5.683  0.3992 -0.0970 -0.1778
 9513TIP3   OH249953   4.823   2.585  11.883 -0.1427  0.1119  0.1725
 9513TIP3    H149954   4.741   2.594  11.835  0.3587 -0.6472 -0.8748
 9513TIP3    H249955   4.823   2.657  11.945 -2.5551 -1.0539  1.6598
 9514TIP3   OH249956   1.996   3.627   3.712  0.0859  0.2797 -0.1454
 9514TIP3    H149957   1.986   3.557   3.776  1.0097 -0.5481 -0.8791
 9514TIP3    H249958   2.053   3.691   3.755  0.2922 -0.0306  0.0458
 9515TIP3   OH249959   4.020   3.421  13.383  0.0597  0.0583  0.9048
 9515TIP3    H149960   3.956   3.486  13.353 -0.9533 -0.9867  0.7290
 9515TIP3    H249961   4.089   3.473  13.424 -0.5651  1.2633  0.4860
 9516TIP3   OH249962   1.855   1.009   2.873 -0.2667  0.1883 -0.3916
 9516TIP3    H149963   1.942   0.982   2.901 -0.9000 -2.2323 -0.4981
 9516TIP3    H249964   1.868   1.049   2.787  0.9947  2.3503  0.7242
 9517TIP3   OH249965   5.627   6.216   4.162  0.3267 -0.8104  0.1434
 9517TIP3    H149966   5.569   6.157   4.211 -1.8704  0.7445 -0.4656
 9517TIP3    H249967   5.614   6.192   4.070  0.1170  0.0159 -0.0461
 9518TIP3   OH249968   2.985   2.234   3.916 -0.4087 -0.5386 -0.7276
 9518TIP3    H149969   3.026   2.304   3.865  0.0385 -0.0995  0.2179
 9518TIP3    H249970   2.918   2.198   3.857  0.1741 -0.1332 -1.6663
 9519TIP3   OH249971   4.260   3.584   6.357  0.3777 -0.3857  0.9933
 9519TIP3    H149972   4.312   3.644   6.303 -2.7199  0.6399 -1.0954
 9519TIP3    H249973   4.190   3.637   6.392 -0.8194 -2.2079  1.5176
 9520TIP3   OH249974   2.373   6.333  12.811 -0.6390 -0.3508 -0.5883
 9520TIP3    H149975   2.322   6.405  12.849  0.2090  0.3515 -0.7398
 9520TIP3    H249976   2.332   6.254  12.845 -0.6470  0.2273  0.8541
 9521TIP3   OH249977   1.780   3.436  17.176 -0.3082  0.0094  0.1635
 9521TIP3    H149978   1.741   3.520  17.151  0.1697  0.7215  1.6984
 9521TIP3    H249979   1.841   3.458  17.246 -1.2106 -1.8010  1.5932
 9522TIP3   OH249980   0.181   0.059  14.212  0.4060  0.0931 -0.1069
 9522TIP3    H149981   0.212   0.069  14.122 -0.4777  0.5675 -0.3661
 9522TIP3    H249982   0.226   0.127  14.261  0.1603  0.4569 -0.3851
 9523TIP3   OH249983   1.001   5.878  16.566  0.0192  0.0239 -0.3083
 9523TIP3    H149984   0.981   5.917  16.651 -0.1307  0.9710 -0.7580
 9523TIP3    H249985   1.058   5.804  16.586  0.3942  0.5356  0.5810
 9524TIP3   OH249986   1.527   4.260   2.546 -0.4081  0.0853 -0.0135
 9524TIP3    H149987   1.462   4.328   2.560  0.0296  0.4249  0.4124
 9524TIP3    H249988   1.610   4.300   2.572  0.1350  0.0013 -1.5107
 9525TIP3   OH249989   4.691   5.670   5.840 -0.5786 -0.4077 -0.1746
 9525TIP3    H149990   4.772   5.710   5.808  0.1770 -1.9630 -0.3144
 9525TIP3    H249991   4.717   5.581   5.867 -2.2639 -1.0016 -0.3632
 9526TIP3   OH249992   2.873   0.665   1.962  0.0989 -0.0577  0.1241
 9526TIP3    H149993   2.798   0.607   1.943  0.8100 -1.2002  0.6959
 9526TIP3    H249994   2.844   0.751   1.933 -1.2850 -0.5551 -0.0640
 9527TIP3   OH249995   4.067   3.363   0.040 -0.1732 -0.2373  0.0033
 9527TIP3    H149996   4.150   3.333   0.004 -0.7864  0.4656 -2.1479
 9527TIP3    H249997   4.001   3.307  -0.001 -0.9814  1.2339 -0.7966
 9528TIP3   OH249998   4.861   0.870  13.210 -0.2333 -0.2624 -0.0636
 9528TIP3    H149999   4.938   0.889  13.264  0.6101  0.9618 -1.6311
 9528TIP3    H250000   4.896   0.846  13.125 -1.5614  2.3716 -1.4729
 9529TIP3   OH250001   2.198   5.495  16.984 -0.5682 -0.1644 -0.2138
 9529TIP3    H150002   2.294   5.486  16.980 -0.3988  0.6406  1.2211
 9529TIP3    H250003   2.168   5.407  17.010 -0.0812 -0.0781  0.6975
 9530TIP3   OH250004   2.758   2.968   5.790 -0.0307 -0.0218 -0.2782
 9530TIP3    H150005   2.768   2.926   5.876  0.5420  0.3594 -0.1572
 9530TIP3    H250006   2.745   3.060   5.809  1.1984  0.2363 -0.6369
 9531TIP3   OH250007   3.571   1.617  13.909 -0.0157 -0.0586  0.3500
 9531TIP3    H150008   3.657   1.597  13.944  1.2067  0.4923 -2.1381
 9531TIP3    H250009   3.586   1.641  13.817 -2.8216 -0.0366 -0.2188
 9532TIP3   OH250010   3.463   4.332  11.980 -0.0799  0.0017 -0.2844
 9532TIP3    H150011   3.454   4.416  12.025  0.1600 -1.3308  2.5293
 9532TIP3    H250012   3.550   4.335  11.941  0.4628  0.6112  0.9130
 9533TIP3   OH250013   5.911   2.819  13.085  0.2193 -0.9242  0.5481
 9533TIP3    H150014   5.865   2.875  13.023  0.8928 -0.5024  0.4228
 9533TIP3    H250015   5.846   2.800  13.152 -0.5860 -1.5797 -0.4000
 9534TIP3   OH250016   4.644   4.131   4.529 -0.4999  0.6775 -0.5687
 9534TIP3    H150017   4.704   4.141   4.603 -0.8374 -1.3243  0.0370
 9534TIP3    H250018   4.647   4.038   4.508 -0.8830  1.0898 -2.7080
 9535TIP3   OH250019   1.407   2.707   4.790  0.3143 -0.2491  0.5285
 9535TIP3    H150020   1.467   2.643   4.750  1.0471 -0.1816  1.4709
 9535TIP3    H250021   1.455   2.739   4.867 -1.5322 -1.3173  2.2183
 9536TIP3   OH250022   1.437   0.695  14.532 -0.6288  0.1836 -0.6147
 9536TIP3    H150023   1.431   0.788  14.513  2.1537  0.7026  0.5412
 9536TIP3    H250024   1.408   0.686  14.623  0.2570  0.1609 -0.3206
 9537TIP3   OH250025   5.197   4.330   2.983  0.0746 -0.0954  0.1890
 9537TIP3    H150026   5.132   4.341   2.914 -0.2484  0.3451  0.5543
 9537TIP3    H250027   5.235   4.243   2.968 -1.3162 -0.7929  0.5854
 9538TIP3   OH250028   3.593   6.050  16.510 -0.2845  0.2896  0.5181
 9538TIP3    H150029   3.541   6.110  16.563  0.2228 -0.6856  2.1741
 9538TIP3    H250030   3.681   6.056  16.547  0.4837  0.7120 -1.2176
 9539TIP3   OH250031   0.616   0.206   5.461 -0.4143  0.2520  0.0269
 9539TIP3    H150032   0.532   0.166   5.480 -2.4288  2.9396 -2.2230
 9539TIP3    H250033   0.616   0.289   5.510  0.3956  0.7994 -0.8441
 9540TIP3   OH250034   5.436   5.455  15.114  0.0308 -0.0813  0.0913
 9540TIP3    H150035   5.377   5.399  15.064 -1.2819  0.5526  0.8651
 9540TIP3    H250036   5.453   5.407  15.195  0.7472 -0.3418 -0.2035
 9541TIP3   OH250037   4.792   4.979  12.661 -0.6776 -0.2338  0.0459
 9541TIP3    H150038   4.865   4.930  12.699 -0.1215 -0.3510 -1.1529
 9541TIP3    H250039   4.820   5.000  12.573 -1.4811  1.0673  0.0822
 9542TIP3   OH250040   0.132   4.136   0.828 -0.6334  0.3054 -0.0102
 9542TIP3    H150041   0.127   4.052   0.783 -0.5131 -0.0446  0.6180
 9542TIP3    H250042   0.041   4.165   0.834 -0.8041 -0.3715  0.8584
 9543TIP3   OH250043   3.271   5.722  16.700 -0.4353 -0.0062 -0.1513
 9543TIP3    H150044   3.365   5.732  16.719 -0.0032  0.0580 -2.1770
 9543TIP3    H250045   3.253   5.785  16.631 -2.0332  0.1035  0.3331
 9544TIP3   OH250046   4.436   6.606  10.505  0.6178 -0.1654 -0.6317
 9544TIP3    H150047   4.451   6.519  10.469  1.2237 -0.4771  0.3263
 9544TIP3    H250048   4.522   6.634  10.535  0.1262  0.0180  0.6639
 9545TIP3   OH250049   6.422   4.272   3.777 -0.1498  0.0829  0.2153
 9545TIP3    H150050   6.486   4.296   3.844 -1.3183  0.2821  1.3131
 9545TIP3    H250051   6.344   4.322   3.801 -1.3986 -1.8012  0.2287
 9546TIP3   OH250052   3.238   4.717   2.726 -0.3680  0.0574  0.2625
 9546TIP3    H150053   3.233   4.693   2.818 -1.4751  0.7807  0.4076
 9546TIP3    H250054   3.302   4.789   2.723 -0.8966  0.5515  0.5930
 9547TIP3   OH250055   6.762   5.146  11.818 -0.5558 -0.0732  0.8481
 9547TIP3    H150056   6.809   5.173  11.897  0.1502  1.4861 -0.0475
 9547TIP3    H250057   6.710   5.223  11.793  0.2953 -0.0037 -0.9333
 9548TIP3   OH250058   2.913   4.018   4.914  0.1125  0.0136 -0.0073
 9548TIP3    H150059   2.982   3.989   4.973  0.5765  0.9232 -0.0806
 9548TIP3    H250060   2.873   3.937   4.882  0.7716 -0.5127  0.4686
 9549TIP3   OH250061   6.675   2.921  11.581 -0.2158 -0.0269 -0.3026
 9549TIP3    H150062   6.749   2.900  11.525 -0.3931 -0.0223 -0.5390
 9549TIP3    H250063   6.601   2.932  11.521 -0.3230  0.3678 -0.1061
 9550TIP3   OH250064   0.200   1.165   2.410  0.1406  0.1627  0.0742
 9550TIP3    H150065   0.173   1.075   2.391 -0.5863  0.4704 -0.4299
 9550TIP3    H250066   0.139   1.193   2.478  2.0081 -0.5570  2.1622
 9551TIP3   OH250067   2.906   4.755   4.606  0.0994  0.1420 -0.3462
 9551TIP3    H150068   2.987   4.801   4.629 -0.1853 -0.4879  2.0985
 9551TIP3    H250069   2.903   4.761   4.510  2.7485  0.6370 -0.4962
 9552TIP3   OH250070   6.010   5.142  11.874  0.0586  0.2476 -0.0200
 9552TIP3    H150071   6.082   5.205  11.866  1.6901 -1.3300  1.3480
 9552TIP3    H250072   5.987   5.119  11.784  1.3809  0.6758 -0.4826
 9553TIP3   OH250073   5.897   1.068   0.625 -0.1571  0.0042 -0.0175
 9553TIP3    H150074   5.827   1.048   0.562 -1.7541 -0.6939  1.8751
 9553TIP3    H250075   5.977   1.065   0.573 -1.3397 -1.0547 -1.9184
 9554TIP3   OH250076   3.869   6.577  14.699  0.3751 -0.1458 -0.0422
 9554TIP3    H150077   3.946   6.566  14.643 -0.3988  1.5033 -1.5350
 9554TIP3    H250078   3.805   6.516  14.664 -0.3784  1.4390 -1.5491
 9555TIP3   OH250079   1.214   0.847  17.083 -0.0305 -0.1612 -0.1569
 9555TIP3    H150080   1.172   0.930  17.106 -0.1375  0.0633 -1.1422
 9555TIP3    H250081   1.186   0.787  17.152 -1.8163  0.0373 -0.6674
 9556TIP3   OH250082   4.289   4.673  11.163  0.1881 -0.1412 -0.1611
 9556TIP3    H150083   4.297   4.758  11.121  1.9411 -0.4205 -0.4696
 9556TIP3    H250084   4.333   4.684  11.248 -0.7640 -0.3901  0.3875
 9557TIP3   OH250085   1.505   1.693  14.586 -0.0646 -0.0271 -0.2600
 9557TIP3    H150086   1.515   1.704  14.491  1.0766 -1.9073 -0.4062
 9557TIP3    H250087   1.582   1.643  14.612 -0.5166  0.2009  1.6357
 9558TIP3   OH250088   3.221   1.848   2.798 -0.5456  0.5734 -1.0406
 9558TIP3    H150089   3.164   1.880   2.868 -0.8791  0.7741 -1.4032
 9558TIP3    H250090   3.299   1.816   2.844 -1.4764 -0.9404 -0.4055
 9559TIP3   OH250091   4.587   3.109  16.234 -0.9873 -0.7291 -0.2623
 9559TIP3    H150092   4.558   3.065  16.314  0.2820 -0.6343  0.2665
 9559TIP3    H250093   4.519   3.174  16.217 -0.9788 -0.3372  1.0763
 9560TIP3   OH250094   3.161   1.816  14.295  0.4512  0.6861 -0.2265
 9560TIP3    H150095   3.110   1.885  14.339  0.4242 -0.4075  1.5616
 9560TIP3    H250096   3.252   1.833  14.320  0.2935 -0.7979  1.6330
 9561TIP3   OH250097   4.806   0.012  12.678 -0.1893 -0.4319  0.3467
 9561TIP3    H150098   4.884   0.055  12.714 -1.3943  1.1163  1.2149
 9561TIP3    H250099   4.835  -0.020  12.593  1.2566  0.6211  0.3861
 9562TIP3   OH250100   0.329   1.609   4.190 -0.7310  0.2221  0.2003
 9562TIP3    H150101   0.416   1.616   4.230 -0.8255 -0.7788  0.5937
 9562TIP3    H250102   0.345   1.566   4.106 -0.6017  1.8650 -0.6733
 9563TIP3   OH250103   6.223   5.047  12.529 -0.0670  0.6904  0.2051
 9563TIP3    H150104   6.300   5.032  12.583 -1.1443 -1.2174  1.3337
 9563TIP3    H250105   6.160   5.089  12.588 -1.4573 -1.9254  0.7003
 9564TIP3   OH250106   5.881   6.596  11.640 -0.1301 -0.1340  0.5684
 9564TIP3    H150107   5.855   6.623  11.552 -1.1199  1.6237  1.3552
 9564TIP3    H250108   5.901   6.677  11.685 -0.8649 -0.9052  2.3632
 9565TIP3   OH250109   2.210   4.019   5.330  0.7610  0.4548 -0.7136
 9565TIP3    H150110   2.137   4.079   5.346  0.1907  0.0967 -1.9285
 9565TIP3    H250111   2.180   3.935   5.364  1.3829  0.7103  0.5583
 9566TIP3   OH250112   0.257   0.607  16.421 -0.2071  0.6331  0.2391
 9566TIP3    H150113   0.197   0.679  16.438 -1.1162  0.0771 -0.5291
 9566TIP3    H250114   0.329   0.648  16.373 -0.8273  0.9962 -0.3994
 9567TIP3   OH250115   4.775   2.074   6.460  0.1655 -0.0293  0.9391
 9567TIP3    H150116   4.774   2.104   6.369 -0.6750 -1.6332  0.3699
 9567TIP3    H250117   4.683   2.077   6.487  0.3585  0.0559  1.6096
 9568TIP3   OH250118   1.239   0.334  11.714  0.6322 -0.6754 -0.5810
 9568TIP3    H150119   1.221   0.328  11.807  2.6179 -1.1331 -0.1681
 9568TIP3    H250120   1.324   0.378  11.709 -0.6520  1.8893 -2.3436
 9569TIP3   OH250121   4.237   6.166   3.504  0.4580  0.3987  0.0777
 9569TIP3    H150122   4.276   6.150   3.590  1.9908  1.9278 -0.2675
 9569TIP3    H250123   4.280   6.102   3.447 -0.7262 -0.7685  0.4619
 9570TIP3   OH250124   2.491   6.571   0.638  0.2971  0.2118  0.0112
 9570TIP3    H150125   2.445   6.503   0.588 -1.7014  0.9243  0.7752
 9570TIP3    H250126   2.581   6.539   0.643  0.2899 -0.5529 -2.8032
 9571TIP3   OH250127   5.445   3.633   3.704  0.0894  0.5056  0.0265
 9571TIP3    H150128   5.462   3.656   3.795 -0.3189  1.5152 -0.1481
 9571TIP3    H250129   5.383   3.560   3.710 -1.8116  2.0784  0.5566
 9572TIP3   OH250130   1.848   4.062  15.710 -0.4709 -0.0216  0.3772
 9572TIP3    H150131   1.757   4.041  15.731 -0.6959  0.9457  0.4232
 9572TIP3    H250132   1.898   3.988  15.743 -0.9195  0.8170  3.2207
 9573TIP3   OH250133   4.523   4.228   2.296  0.1176  0.4949  0.1411
 9573TIP3    H150134   4.572   4.301   2.333 -0.1234  0.7310 -0.0008
 9573TIP3    H250135   4.550   4.152   2.347  0.2586  0.7084  0.3836
 9574TIP3   OH250136   5.200   1.983   3.886  0.3776  0.3539  0.2619
 9574TIP3    H150137   5.169   1.907   3.936  0.9934 -0.2643 -0.2633
 9574TIP3    H250138   5.183   1.960   3.795 -1.5217  1.8395  0.2004
 9575TIP3   OH250139   3.916   0.123   3.819  0.0049 -0.2032  0.8808
 9575TIP3    H150140   3.989   0.091   3.872  1.6575  0.2642 -0.9733
 9575TIP3    H250141   3.949   0.204   3.780 -2.2717  1.1089  1.5316
 9576TIP3   OH250142   6.484   2.448  13.246 -0.1540  0.1923 -0.2025
 9576TIP3    H150143   6.492   2.364  13.292  1.7296  0.0895 -0.6647
 9576TIP3    H250144   6.572   2.466  13.213 -0.4218  2.5512  0.2158
 9577TIP3   OH250145   3.370   6.477  13.054  0.2807 -0.3386  0.5728
 9577TIP3    H150146   3.288   6.428  13.058  1.4186 -2.2835  1.8000
 9577TIP3    H250147   3.372   6.527  13.136 -0.4491  1.1175 -0.2593
 9578TIP3   OH250148   5.278   1.034  13.941  0.6861  0.2117 -0.1324
 9578TIP3    H150149   5.314   1.120  13.919  0.5162  0.4345  0.4481
 9578TIP3    H250150   5.184   1.050  13.955  0.8568  0.1719  1.1938
 9579TIP3   OH250151   1.273   2.953   3.264  0.0258 -0.0398 -0.7522
 9579TIP3    H150152   1.333   3.025   3.283 -0.9786  0.8846 -1.0351
 9579TIP3    H250153   1.301   2.883   3.323 -0.1658  1.2207  0.9165
 9580TIP3   OH250154   2.633   2.225   3.048 -0.7064 -0.4135 -0.5472
 9580TIP3    H150155   2.674   2.266   2.971 -0.4294  0.7550  0.1880
 9580TIP3    H250156   2.666   2.136   3.048  0.4516 -0.0080 -0.9814
 9581TIP3   OH250157   5.826   6.423  15.726  0.2473  0.2162 -0.2497
 9581TIP3    H150158   5.732   6.405  15.721  0.0766  1.4031 -3.0099
 9581TIP3    H250159   5.832   6.511  15.764  0.3341 -0.2461  0.8427
 9582TIP3   OH250160   0.583   5.734   3.131 -0.0310 -0.1873 -0.5160
 9582TIP3    H150161   0.591   5.819   3.173  0.3987  0.4218 -1.7674
 9582TIP3    H250162   0.543   5.753   3.046 -2.7386 -1.6124  0.3449
 9583TIP3   OH250163   6.755   1.710   1.929  0.4449 -0.7192  0.0171
 9583TIP3    H150164   6.832   1.677   1.976 -0.6965 -2.0221  1.0544
 9583TIP3    H250165   6.691   1.730   1.997 -0.3795 -0.2821 -0.8550
 9584TIP3   OH250166   2.212   2.452  11.062 -0.6314 -0.0951  0.0625
 9584TIP3    H150167   2.228   2.363  11.031  1.3148  0.4837 -0.7993
 9584TIP3    H250168   2.295   2.478  11.103 -0.6834  1.7570 -0.8767
 9585TIP3   OH250169   2.379   6.114   0.008 -0.4402  0.0162  0.3944
 9585TIP3    H150170   2.441   6.128   0.080  0.9102  0.1273 -0.7512
 9585TIP3    H250171   2.418   6.045  -0.045 -0.3411  1.3488 -1.3635
 9586TIP3   OH250172   2.288   2.990  14.978  0.4701 -0.6530  0.0049
 9586TIP3    H150173   2.216   3.052  14.990  0.9544 -0.0481 -0.1588
 9586TIP3    H250174   2.366   3.038  15.005  0.9823 -0.8314 -1.0974
 9587TIP3   OH250175   2.608   4.567   6.796  0.3808 -0.5382  0.3595
 9587TIP3    H150176   2.514   4.552   6.790 -0.1902  1.5722  2.5407
 9587TIP3    H250177   2.623   4.646   6.744  0.4738  0.4682  1.8365
 9588TIP3   OH250178   2.701   6.489   2.201 -0.0900  0.1903 -0.2171
 9588TIP3    H150179   2.735   6.574   2.173  0.4578  0.3325  0.8110
 9588TIP3    H250180   2.609   6.490   2.176  0.2353  0.5292 -1.4509
 9589TIP3   OH250181   6.265   6.755  15.002 -0.2235  0.3481  0.6002
 9589TIP3    H150182   6.335   6.709  14.956 -0.6376 -0.0806  0.3774
 9589TIP3    H250183   6.299   6.768  15.091 -0.3232 -0.9910  0.8712
 9590TIP3   OH250184   4.951   2.219  13.763 -0.1931 -0.2525 -0.0625
 9590TIP3    H150185   4.878   2.245  13.820  0.1607  2.3011 -0.6601
 9590TIP3    H250186   4.924   2.247  13.676  1.2861  0.2874 -0.3699
 9591TIP3   OH250187   2.444   6.754   0.847 -0.3362  0.6536  0.1078
 9591TIP3    H150188   2.480   6.703   0.919 -2.7882 -0.0883  0.8808
 9591TIP3    H250189   2.438   6.692   0.774  1.1402  1.1352 -0.4694
 9592TIP3   OH250190   5.480   1.980  16.450 -0.1547 -0.1562  0.4727
 9592TIP3    H150191   5.466   2.065  16.492  2.1733 -0.2693  1.6346
 9592TIP3    H250192   5.396   1.960  16.408 -0.6617  2.8925 -0.2200
 9593TIP3   OH250193   0.408   1.679   0.612  0.0441 -0.1952  0.1134
 9593TIP3    H150194   0.427   1.671   0.518  0.3415 -1.8161  0.2689
 9593TIP3    H250195   0.365   1.764   0.621 -0.9485 -0.4503 -1.6533
 9594TIP3   OH250196   0.635   0.547   2.235 -0.1393 -0.1434  0.1010
 9594TIP3    H150197   0.719   0.588   2.254 -0.2382  0.5422 -0.8980
 9594TIP3    H250198   0.652   0.487   2.163 -0.2797 -0.8834  0.6652
 9595TIP3   OH250199   5.997   0.887   3.434  0.5200  0.0301  0.2135
 9595TIP3    H150200   5.927   0.821   3.437  1.6662 -1.2347  0.1348
 9595TIP3    H250201   6.021   0.892   3.341  0.0673  0.9966  0.1340
 9596TIP3   OH250202   2.581   4.264   6.349 -0.4233  0.5031  0.0660
 9596TIP3    H150203   2.540   4.260   6.262 -0.8279 -0.6010  0.2969
 9596TIP3    H250204   2.508   4.279   6.409 -0.2607  0.2931  0.3158
 9597TIP3   OH250205   1.977   6.629   3.908  0.0294  0.2416  0.1299
 9597TIP3    H150206   1.923   6.666   3.838  2.6656  2.4878 -0.9071
 9597TIP3    H250207   1.932   6.549   3.933 -2.0124  0.2823 -2.8887
 9598TIP3   OH250208   4.385   4.038  15.156 -0.3322  0.0651 -0.3355
 9598TIP3    H150209   4.379   3.999  15.243  1.3322  0.2680 -0.1089
 9598TIP3    H250210   4.445   3.981  15.107  0.8821  1.4258 -0.4902
 9599TIP3   OH250211   0.520   1.072   4.395  0.0904 -0.0045 -0.2450
 9599TIP3    H150212   0.585   1.095   4.462  0.5378 -1.0141 -0.3040
 9599TIP3    H250213   0.521   1.146   4.334  1.9807 -0.4247 -0.8195
 9600TIP3   OH250214   5.546   5.605  11.875 -0.0906  0.4801  0.3352
 9600TIP3    H150215   5.555   5.675  11.810  1.1847 -0.7752 -0.9229
 9600TIP3    H250216   5.610   5.626  11.942  1.1981 -0.0715 -0.6647
 9601TIP3   OH250217   3.567   2.348   2.027 -0.1018 -0.1294  0.7973
 9601TIP3    H150218   3.545   2.255   2.032  0.5824 -0.2529  3.5219
 9601TIP3    H250219   3.643   2.352   1.969 -1.3481 -0.9595 -0.9463
 9602TIP3   OH250220   2.943   5.647  16.475  0.0327  1.2444 -0.1199
 9602TIP3    H150221   2.851   5.656  16.448  0.1952 -1.6604 -2.0562
 9602TIP3    H250222   2.943   5.573  16.536  1.2150  0.3626 -1.1422
 9603TIP3   OH250223   3.517   4.882  12.354 -0.1571 -0.4576 -0.4871
 9603TIP3    H150224   3.455   4.878  12.426  1.2161  0.3123  0.7836
 9603TIP3    H250225   3.591   4.830  12.383 -0.2332 -1.4809 -2.0409
 9604TIP3   OH250226   6.439   3.105   0.833 -0.3446  0.0092  0.1443
 9604TIP3    H150227   6.474   3.082   0.747  0.1823  0.1061  0.3259
 9604TIP3    H250228   6.385   3.030   0.858  0.0404 -0.3129  0.0198
 9605TIP3   OH250229   5.534   3.678  15.137  0.6037  0.4070 -0.0647
 9605TIP3    H150230   5.584   3.635  15.068 -1.0384  0.7130 -1.5384
 9605TIP3    H250231   5.521   3.611  15.203  0.5184 -0.5229 -1.0020
 9606TIP3   OH250232   1.393   3.850  15.768 -0.2060  0.1854 -0.0199
 9606TIP3    H150233   1.396   3.772  15.712 -0.4098 -0.4803  0.8740
 9606TIP3    H250234   1.311   3.893  15.746 -0.2188  0.0020 -0.3289
 9607TIP3   OH250235   1.576   4.289   1.444  0.3727  0.2032  0.0999
 9607TIP3    H150236   1.507   4.353   1.430  1.0383  1.0887  0.7512
 9607TIP3    H250237   1.650   4.340   1.476  0.4224 -1.0694  2.2260
 9608TIP3   OH250238   5.402   3.001   5.387  0.5092 -0.1041 -0.1631
 9608TIP3    H150239   5.403   3.003   5.291  0.8216  0.0357 -0.1578
 9608TIP3    H250240   5.330   3.059   5.411  0.8306  0.3545 -0.3007
 9609TIP3   OH250241   5.041   4.572   1.485  0.4591 -0.5285 -0.4393
 9609TIP3    H150242   4.969   4.593   1.427 -0.3197 -2.3021 -0.1767
 9609TIP3    H250243   5.013   4.604   1.571  0.2183 -0.7509 -0.4359
 9610TIP3   OH250244   5.416   4.291  12.054  0.2875  0.3768 -1.1697
 9610TIP3    H150245   5.322   4.277  12.037  0.3913 -1.7561 -0.2985
 9610TIP3    H250246   5.418   4.362  12.118 -1.0677 -1.8120  1.5652
 9611TIP3   OH250247   6.546   0.461  17.158 -0.5491 -0.2017 -0.0242
 9611TIP3    H150248   6.604   0.497  17.226  1.6889 -0.1901 -1.7999
 9611TIP3    H250249   6.589   0.379  17.132 -0.1291  0.8303 -2.8439
 9612TIP3   OH250250   3.643   2.123   6.464 -0.0412 -0.0723  0.0429
 9612TIP3    H150251   3.724   2.168   6.441 -0.9235  1.5778  0.0293
 9612TIP3    H250252   3.671   2.035   6.489  1.8101  0.5988  0.5063
 9613TIP3   OH250253   1.232   2.743  15.324  0.0974 -0.2827 -0.3395
 9613TIP3    H150254   1.314   2.716  15.283 -0.2807 -0.6522 -0.8532
 9613TIP3    H250255   1.210   2.825  15.280  0.2407 -0.1251 -0.1238
 9614TIP3   OH250256   2.899   4.147  12.405  0.5468  0.6397 -0.1103
 9614TIP3    H150257   2.984   4.192  12.403  2.1676 -2.1552 -2.2394
 9614TIP3    H250258   2.901   4.095  12.486  0.2239  1.6426  0.5516
 9615TIP3   OH250259   3.284   2.567   0.616 -0.0952 -0.5975 -0.3298
 9615TIP3    H150260   3.300   2.629   0.545 -0.2570  1.2093  1.1460
 9615TIP3    H250261   3.343   2.494   0.597 -0.0375 -0.1051 -2.2305
 9616TIP3   OH250262   1.946   3.777  14.412 -0.1614 -0.2208  0.2154
 9616TIP3    H150263   1.911   3.700  14.366  0.0139  0.4802 -1.1376
 9616TIP3    H250264   1.928   3.850  14.353  1.9574  0.4200  0.2943
 9617TIP3   OH250265   1.451   6.254  15.479 -0.1478 -0.0258 -0.7114
 9617TIP3    H150266   1.471   6.348  15.476 -0.6817  0.0714 -1.7525
 9617TIP3    H250267   1.511   6.219  15.544 -0.5877  1.1906  0.3879
 9618TIP3   OH250268   5.854   4.055  14.017 -0.8414 -0.0397 -0.1810
 9618TIP3    H150269   5.812   4.132  13.980  2.7570  1.6137 -1.2494
 9618TIP3    H250270   5.893   4.010  13.942 -0.8228 -1.5598  0.6947
 9619TIP3   OH250271   1.702   4.160   1.215  0.0414 -0.2569  0.0350
 9619TIP3    H150272   1.677   4.069   1.202  2.0041 -1.0070  1.1647
 9619TIP3    H250273   1.651   4.189   1.290 -0.9856 -0.2342 -0.6559
 9620TIP3   OH250274   0.750   2.593   3.926 -0.0476  0.4472  0.8192
 9620TIP3    H150275   0.838   2.602   3.891 -0.8057  0.5458 -1.1562
 9620TIP3    H250276   0.758   2.618   4.018  1.7394  1.6268  0.3832
 9621TIP3   OH250277   4.369   1.528  16.094 -0.3263  0.2801  0.2940
 9621TIP3    H150278   4.420   1.599  16.133  0.2282 -1.0181  2.0549
 9621TIP3    H250279   4.292   1.520  16.151 -2.0084  1.4395 -1.6621
 9622TIP3   OH250280   3.834   3.095   2.670  0.0022  0.4597  0.3707
 9622TIP3    H150281   3.842   3.050   2.754 -1.2304 -1.1811 -0.3445
 9622TIP3    H250282   3.833   3.025   2.605  0.0844  1.6485 -0.9550
 9623TIP3   OH250283   2.838   1.667   6.057  0.0161 -0.8044 -0.5372
 9623TIP3    H150284   2.858   1.585   6.101  2.1015  0.3789  0.8885
 9623TIP3    H250285   2.782   1.715   6.118  2.1457  0.4511  0.5408
 9624TIP3   OH250286   5.687   3.800  13.519  0.1394  0.6080 -0.2069
 9624TIP3    H150287   5.638   3.877  13.487 -0.3186 -0.1961 -1.5398
 9624TIP3    H250288   5.644   3.726  13.476  1.8104 -0.2289 -0.5017
 9625TIP3   OH250289   6.152   3.523   3.838  0.6533 -0.3945  0.2120
 9625TIP3    H150290   6.240   3.486   3.852 -0.1316 -2.3268  0.3581
 9625TIP3    H250291   6.138   3.581   3.913  1.3086 -1.0766  0.8739
 9626TIP3   OH250292   0.086   4.559   2.365  0.1090  0.0000 -0.3112
 9626TIP3    H150293   0.096   4.654   2.357 -0.2731  0.0458 -0.2708
 9626TIP3    H250294   0.027   4.548   2.440 -1.6748 -0.1808 -1.6854
 9627TIP3   OH250295   3.832   2.797  11.608 -0.3111 -0.2800 -0.3358
 9627TIP3    H150296   3.823   2.705  11.582 -0.5335 -0.4602  0.3547
 9627TIP3    H250297   3.754   2.815  11.660 -0.8544  0.6403 -1.4143
 9628TIP3   OH250298   2.223   5.289  15.890 -0.1988  0.0732  0.3028
 9628TIP3    H150299   2.294   5.353  15.886 -1.7684  1.8410 -1.3832
 9628TIP3    H250300   2.239   5.232  15.815 -0.0515 -0.1015  0.4665
 9629TIP3   OH250301   1.233   4.916   5.306 -0.5326 -0.5071  0.1428
 9629TIP3    H150302   1.159   4.890   5.361 -0.1051 -0.2027  0.8794
 9629TIP3    H250303   1.216   4.875   5.221 -0.1383 -2.7358  1.0936
 9630TIP3   OH250304   3.397   4.755   2.094 -0.3905  0.3606 -0.7295
 9630TIP3    H150305   3.353   4.827   2.048 -0.9317  0.1692 -0.5136
 9630TIP3    H250306   3.454   4.799   2.157 -0.9010  0.6039 -0.4307
 9631TIP3   OH250307   4.452   4.759   1.516  0.0864 -0.3371 -0.0053
 9631TIP3    H150308   4.419   4.669   1.515 -0.9627  0.0382 -0.4908
 9631TIP3    H250309   4.471   4.777   1.608 -0.0394 -0.9297  0.1432
 9632TIP3   OH250310   4.807   6.640  14.399 -0.8091  0.4702 -0.2770
 9632TIP3    H150311   4.815   6.548  14.425 -1.5344  1.0911  2.5164
 9632TIP3    H250312   4.894   6.676  14.417 -1.0342  0.6842  0.4411
 9633TIP3   OH250313   0.241   2.109   6.355  0.1324  0.1317 -0.0041
 9633TIP3    H150314   0.231   2.176   6.423 -1.0553  0.1097 -0.1446
 9633TIP3    H250315   0.328   2.125   6.318 -0.6756  2.5346 -1.0322
 9634TIP3   OH250316   5.577   1.358  15.407  0.0309 -0.4849  0.0409
 9634TIP3    H150317   5.636   1.418  15.360  0.7147 -0.6178  0.7082
 9634TIP3    H250318   5.602   1.367  15.498  0.6293 -2.3023  0.0966
 9635TIP3   OH250319   4.258   5.146  13.211 -0.3140  0.4074 -0.3285
 9635TIP3    H150320   4.200   5.179  13.280  0.6376  1.6253 -0.0746
 9635TIP3    H250321   4.215   5.067  13.179 -1.7750  0.9150  0.3041
 9636TIP3   OH250322   2.845   3.400   2.309 -0.8858 -0.3080  0.8555
 9636TIP3    H150323   2.776   3.334   2.321 -0.2043 -0.7575  2.4873
 9636TIP3    H250324   2.907   3.384   2.380  1.3092 -0.3853 -0.9524
 9637TIP3   OH250325   3.322   6.599   1.974 -0.9122 -0.2106  0.0590
 9637TIP3    H150326   3.294   6.566   1.888 -1.5885 -0.1887  0.2647
 9637TIP3    H250327   3.405   6.643   1.957 -1.7645  1.1235 -0.8719
 9638TIP3   OH250328   5.870   0.901   4.495  0.2041  0.0893  0.6394
 9638TIP3    H150329   5.784   0.884   4.457  0.3884 -0.3907  0.4245
 9638TIP3    H250330   5.884   0.995   4.484  0.8759 -0.2268 -1.7943
 9639TIP3   OH250331   2.682   0.087  16.566 -0.0224  0.9898 -0.1948
 9639TIP3    H150332   2.765   0.134  16.571 -0.0780  1.0417  0.4104
 9639TIP3    H250333   2.616   0.155  16.552  0.1673  0.8134 -2.1051
 9640TIP3   OH250334   6.047   3.440   1.239 -0.4441  0.8590 -0.3267
 9640TIP3    H150335   6.092   3.485   1.167 -0.9879 -0.1594 -1.3312
 9640TIP3    H250336   5.956   3.467   1.231 -0.3966  1.3034  0.4537
 9641TIP3   OH250337   3.986   2.630   2.039 -0.5816  0.2831 -0.3899
 9641TIP3    H150338   3.903   2.607   2.080 -0.3668 -0.7924 -0.5195
 9641TIP3    H250339   3.962   2.680   1.961 -1.0330  1.3553  0.4136
 9642TIP3   OH250340   3.720   0.455  11.575 -0.2306  0.1465  0.0590
 9642TIP3    H150341   3.795   0.433  11.629 -0.1932 -0.1379 -0.1065
 9642TIP3    H250342   3.749   0.439  11.485 -0.7023 -0.6291  0.0338
 9643TIP3   OH250343   0.066   0.700  16.047 -0.0385 -0.2973  0.5424
 9643TIP3    H150344   0.056   0.626  15.987 -0.0071 -0.0535  0.2306
 9643TIP3    H250345   0.043   0.776  15.994 -2.5535 -0.2784  1.5289
 9644TIP3   OH250346   0.794   2.443  14.682 -0.4029  0.4188  0.2548
 9644TIP3    H150347   0.752   2.487  14.608 -1.0398  0.8382  0.8579
 9644TIP3    H250348   0.814   2.355  14.649  0.3805  0.9649 -0.7860
 9645TIP3   OH250349   1.940   3.191  11.540  0.5317 -0.1922  0.7179
 9645TIP3    H150350   1.942   3.184  11.444  1.7155 -2.4670  0.8516
 9645TIP3    H250351   1.853   3.160  11.564  0.1461  0.5991  0.4029
 9646TIP3   OH250352   0.118   4.096  11.544  0.0509 -0.7937 -0.6312
 9646TIP3    H150353   0.184   4.163  11.564  1.5069 -1.4841 -2.7604
 9646TIP3    H250354   0.047   4.114  11.606  1.0450  1.7272 -0.0694
 9647TIP3   OH250355   3.760   1.740  11.845 -0.4105  0.1615  0.0014
 9647TIP3    H150356   3.847   1.760  11.880 -0.3337  0.7931 -0.5497
 9647TIP3    H250357   3.755   1.644  11.847  0.0446  0.1433  0.6337
 9648TIP3   OH250358   2.098   6.160  16.713  0.2941 -0.0503  0.5149
 9648TIP3    H150359   2.124   6.247  16.743 -1.3268  0.4530  0.5502
 9648TIP3    H250360   2.101   6.165  16.618 -0.7546  0.3859  0.4888
 9649TIP3   OH250361   3.831   1.757  14.923 -0.0576 -0.2628  0.0688
 9649TIP3    H150362   3.808   1.693  14.991 -1.7340 -0.5523 -0.7125
 9649TIP3    H250363   3.775   1.833  14.941  2.8281  1.6264  1.7624
 9650TIP3   OH250364   3.648   1.950  14.342  0.2274  0.3523 -0.0491
 9650TIP3    H150365   3.720   2.010  14.321  1.8138 -1.8084 -1.2540
 9650TIP3    H250366   3.648   1.887  14.269 -0.8435 -1.5150  1.4747
 9651TIP3   OH250367   0.881   1.791  13.595  0.1732  0.6404 -0.0821
 9651TIP3    H150368   0.893   1.877  13.556  1.1878 -0.0873 -1.4740
 9651TIP3    H250369   0.822   1.745  13.535  1.8218 -0.5312 -0.8882
 9652TIP3   OH250370   2.248   2.388   0.317 -0.2998 -0.0583 -0.9291
 9652TIP3    H150371   2.177   2.448   0.294  0.3041  0.5009 -1.3744
 9652TIP3    H250372   2.302   2.437   0.379  0.2006 -0.1339 -1.2964
 9653TIP3   OH250373   2.532   0.773   1.128  0.2298  0.4378 -0.1093
 9653TIP3    H150374   2.562   0.860   1.101  0.6292  0.2842 -0.1638
 9653TIP3    H250375   2.510   0.730   1.045  0.1599  0.4415 -0.0923
 9654TIP3   OH250376   0.312   0.300  14.342 -0.0907 -0.3230 -0.4513
 9654TIP3    H150377   0.360   0.309  14.260 -2.4447 -0.2002 -1.9109
 9654TIP3    H250378   0.361   0.234  14.391  1.0024 -0.9144 -2.2406
 9655TIP3   OH250379   5.674   4.336  16.066  0.0783 -0.0923 -0.0159
 9655TIP3    H150380   5.716   4.258  16.102 -3.0157 -2.3924 -0.9411
 9655TIP3    H250381   5.696   4.333  15.973  1.4251  1.2558  0.2213
 9656TIP3   OH250382   4.972   6.612  15.364  0.6000 -0.0876 -0.4806
 9656TIP3    H150383   4.921   6.608  15.283  0.4168  0.3344 -0.3928
 9656TIP3    H250384   5.063   6.611  15.335  0.5391  0.7061 -0.7431
 9657TIP3   OH250385   5.568   1.025   6.686 -0.0003  0.1016  0.1368
 9657TIP3    H150386   5.541   0.940   6.721 -1.9825 -0.3986 -2.3292
 9657TIP3    H250387   5.494   1.083   6.705  0.6342  0.8565  0.3409
 9658TIP3   OH250388   0.848   6.098  15.797  1.1458 -0.5742  0.1362
 9658TIP3    H150389   0.898   6.132  15.723 -1.7824  0.4860 -1.5297
 9658TIP3    H250390   0.791   6.032  15.759 -0.4725  0.0284  1.3830
 9659TIP3   OH250391   5.135   4.969  16.164 -0.1121  0.0369 -0.1462
 9659TIP3    H150392   5.227   4.954  16.142 -0.2168 -2.1506  0.6184
 9659TIP3    H250393   5.137   5.016  16.247  0.2727  2.1090 -1.2743
 9660TIP3   OH250394   5.030   3.527  14.446  0.3976 -0.3159 -0.0348
 9660TIP3    H150395   4.951   3.480  14.416 -1.2265  2.3900 -0.3475
 9660TIP3    H250396   5.073   3.555  14.365  0.8965 -0.5168  0.1563
 9661TIP3   OH250397   1.505   5.757  11.771 -0.1166  0.4161  0.2018
 9661TIP3    H150398   1.513   5.670  11.733  1.0364 -0.5647  2.4904
 9661TIP3    H250399   1.411   5.772  11.780 -0.3361 -0.2938 -0.7940
 9662TIP3   OH250400   1.476   4.619   3.478  0.4529  0.0712  0.5522
 9662TIP3    H150401   1.473   4.554   3.408 -2.0428  0.9432 -0.2900
 9662TIP3    H250402   1.387   4.620   3.513 -0.6746  5.0155 -1.4927
 9663TIP3   OH250403   0.173   0.493   1.898  0.0331  0.0542  0.2560
 9663TIP3    H150404   0.217   0.408   1.903 -1.0694 -0.6823 -1.3787
 9663TIP3    H250405   0.099   0.477   1.838 -0.1905  2.1704 -0.0906
 9664TIP3   OH250406   0.122   4.892  16.172 -0.2962 -0.3278 -0.0937
 9664TIP3    H150407   0.070   4.967  16.201 -0.8338 -0.5620 -0.4190
 9664TIP3    H250408   0.144   4.912  16.081 -1.0982 -0.8906 -0.4327
 9665TIP3   OH250409   5.348   0.054   4.333  0.9404  0.5350 -0.2720
 9665TIP3    H150410   5.323  -0.031   4.297  1.8906 -0.0322  0.3467
 9665TIP3    H250411   5.269   0.107   4.329  0.6548  0.0236 -1.8088
 9666TIP3   OH250412   2.390   2.876  12.779  0.4409  0.1458  0.2619
 9666TIP3    H150413   2.389   2.855  12.686  1.2569 -0.2381  0.3375
 9666TIP3    H250414   2.333   2.810  12.819 -0.3933  0.6670 -0.0189
 9667TIP3   OH250415   4.816   6.231   2.598 -0.2296  0.2366 -0.2245
 9667TIP3    H150416   4.837   6.155   2.543  0.8358  1.0024 -0.9306
 9667TIP3    H250417   4.787   6.194   2.681  0.4092 -0.9423 -0.5064
 9668TIP3   OH250418   5.125   1.483   1.931 -0.1699  0.4920  0.6019
 9668TIP3    H150419   5.061   1.471   1.861  1.5047  1.0550 -1.0856
 9668TIP3    H250420   5.117   1.575   1.956 -0.7765  0.2881  1.2158
 9669TIP3   OH250421   1.050   4.567   0.517  0.1124 -0.5895 -0.2945
 9669TIP3    H150422   1.123   4.556   0.456 -0.2261  2.7366 -1.4983
 9669TIP3    H250423   0.972   4.573   0.462 -0.1293  3.2282  0.1581
 9670TIP3   OH250424   3.782   3.217   3.841  0.3060  0.5750 -0.7773
 9670TIP3    H150425   3.724   3.281   3.800  0.5918 -1.3044 -4.4804
 9670TIP3    H250426   3.759   3.221   3.934 -1.5561  4.0504 -1.2241
 9671TIP3   OH250427   1.058   5.951   5.640 -0.3534  0.6909 -0.3758
 9671TIP3    H150428   1.025   5.961   5.550  2.1219  1.3332 -1.2836
 9671TIP3    H250429   1.072   5.857   5.649  0.2087  0.7117 -0.9794
 9672TIP3   OH250430   4.259   5.556   5.440 -0.2554  0.0906  0.0109
 9672TIP3    H150431   4.241   5.557   5.534  0.1512 -0.0411  0.0948
 9672TIP3    H250432   4.321   5.628   5.427 -2.2446  1.7800 -0.5788
 9673TIP3   OH250433   5.690   1.863   0.927  0.3472  0.3486 -0.4781
 9673TIP3    H150434   5.738   1.909   0.996 -0.6151  0.7690 -0.0728
 9673TIP3    H250435   5.756   1.808   0.885  0.7048 -1.1274  1.7971
 9674TIP3   OH250436   3.799   3.029   3.243  0.2991  0.1129 -0.0152
 9674TIP3    H150437   3.751   3.066   3.317  0.1344  0.2901 -0.2111
 9674TIP3    H250438   3.846   2.954   3.280  1.2724  0.9844  0.5707
 9675TIP3   OH250439   0.218   5.741   5.723  0.1867  0.4440 -0.4994
 9675TIP3    H150440   0.130   5.713   5.744  0.4811 -0.5953 -0.6128
 9675TIP3    H250441   0.269   5.723   5.802  0.4379  0.4207 -0.6655
 9676TIP3   OH250442   6.375   6.752  14.280 -0.3232 -0.0296 -0.2001
 9676TIP3    H150443   6.363   6.667  14.237 -2.5670  0.0707  0.0946
 9676TIP3    H250444   6.409   6.809  14.210  1.1806 -1.1204 -0.4042
 9677TIP3   OH250445   0.695   6.150   1.812 -0.1240 -0.5811 -0.0848
 9677TIP3    H150446   0.624   6.214   1.806  0.3214  0.0254  0.9123
 9677TIP3    H250447   0.658   6.077   1.861  0.2108  0.1691  1.3457
 9678TIP3   OH250448   4.015   4.778  15.335 -0.0473 -0.1474 -0.1067
 9678TIP3    H150449   4.060   4.745  15.413 -1.5523 -1.4545  0.2493
 9678TIP3    H250450   3.922   4.778  15.359 -0.3400  1.8278 -1.0540
 9679TIP3   OH250451   3.859   4.636  11.647  0.2597  0.3886 -0.1795
 9679TIP3    H150452   3.850   4.546  11.679  0.8302  0.4149  0.0643
 9679TIP3    H250453   3.827   4.690  11.719 -1.0122  0.3579 -0.6938
 9680TIP3   OH250454   1.426   3.685  14.440  0.3690 -0.3771 -0.2332
 9680TIP3    H150455   1.512   3.657  14.472  0.0908 -0.7728  0.1851
 9680TIP3    H250456   1.375   3.699  14.520 -0.0332 -0.4037 -0.4852
 9681TIP3   OH250457   4.197   6.774   5.448 -0.3057  0.1638 -0.1555
 9681TIP3    H150458   4.266   6.800   5.509 -1.8132  1.6294  1.0059
 9681TIP3    H250459   4.136   6.724   5.501 -0.5903 -0.3807 -0.9763
 9682TIP3   OH250460   4.179   2.760  12.702 -0.7494  0.2983  0.5552
 9682TIP3    H150461   4.216   2.678  12.733  0.2503  0.7469  0.6075
 9682TIP3    H250462   4.087   2.740  12.684 -0.3409 -1.0356 -0.2011
 9683TIP3   OH250463   6.674   5.400   3.509  0.0619  0.4066 -0.0960
 9683TIP3    H150464   6.578   5.395   3.516  0.1631  0.2552  1.4552
 9683TIP3    H250465   6.702   5.308   3.504  0.1980  0.4038  0.6800
 9684TIP3   OH250466   4.953   2.072  14.091 -0.1141  1.0380  0.0493
 9684TIP3    H150467   4.908   2.153  14.068 -2.0043  0.1387  0.4098
 9684TIP3    H250468   4.892   2.002  14.066  0.8120 -0.2245  1.1354
 9685TIP3   OH250469   2.372   1.751  13.879  0.2114  0.3502 -0.3128
 9685TIP3    H150470   2.429   1.676  13.858 -0.8422 -0.6626  0.3152
 9685TIP3    H250471   2.303   1.714  13.934 -0.7470  1.6631 -0.5833
 9686TIP3   OH250472   0.308   3.595   4.028 -0.0534  0.2603 -0.1638
 9686TIP3    H150473   0.360   3.664   3.987 -2.9273  2.0913 -0.9780
 9686TIP3    H250474   0.303   3.526   3.962  1.4139 -0.0502  0.0062
 9687TIP3   OH250475   1.502   0.587  12.738 -0.0926  0.8363  0.3563
 9687TIP3    H150476   1.461   0.506  12.770  0.8104  0.5633  0.8529
 9687TIP3    H250477   1.460   0.603  12.653  0.4843 -0.7707 -0.2758
 9688TIP3   OH250478   1.034   2.894   2.670  0.1464 -0.3091  0.0482
 9688TIP3    H150479   1.021   2.988   2.662 -2.2690 -0.4785  1.3227
 9688TIP3    H250480   0.958   2.855   2.629  0.1401 -1.6493  1.2453
 9689TIP3   OH250481   1.928   3.240   5.243  0.1524  0.0083  0.2255
 9689TIP3    H150482   1.968   3.318   5.204 -0.1111  0.9814  1.8046
 9689TIP3    H250483   1.944   3.249   5.336 -1.8272 -0.6890  0.6920
 9690TIP3   OH250484   3.241   3.002   0.003  0.0546 -0.1725  0.3113
 9690TIP3    H150485   3.265   3.090   0.029  0.4560 -0.3275  0.4747
 9690TIP3    H250486   3.255   3.000  -0.092 -0.2862  0.0391  0.2543
 9691TIP3   OH250487   0.925   5.580  15.674 -0.1083  0.3549 -0.1439
 9691TIP3    H150488   0.891   5.518  15.609 -0.7766  0.8046 -0.2333
 9691TIP3    H250489   0.945   5.659  15.623  0.4272  0.3312  0.0225
 9692TIP3   OH250490   5.983   4.099   4.381 -0.1367 -0.5547  0.3680
 9692TIP3    H150491   6.058   4.158   4.379  0.0631 -0.7561  1.2005
 9692TIP3    H250492   5.953   4.102   4.472  1.5564 -3.7737  1.2000
 9693TIP3   OH250493   0.420   2.790   3.727 -0.6902  0.7154 -0.6469
 9693TIP3    H150494   0.363   2.713   3.721 -1.9744  1.5959 -0.2797
 9693TIP3    H250495   0.414   2.817   3.819  2.6505 -0.8290  0.1446
 9694TIP3   OH250496   0.402   6.189   1.026 -0.0053 -0.0347  0.2192
 9694TIP3    H150497   0.413   6.226   0.938  2.5413  2.1148  1.3007
 9694TIP3    H250498   0.430   6.098   1.018 -1.7332 -0.4685 -1.5532
 9695TIP3   OH250499   0.397   1.507  14.875  0.2145 -0.0484  0.3928
 9695TIP3    H150500   0.319   1.451  14.875 -0.5026  0.9105 -0.1352
 9695TIP3    H250501   0.467   1.451  14.842 -0.5754 -0.5377 -0.5060
 9696TIP3   OH250502   1.295   2.661  12.421  0.1389 -0.1833  0.0269
 9696TIP3    H150503   1.314   2.572  12.392  0.0953  0.2396 -1.4005
 9696TIP3    H250504   1.304   2.714  12.342 -2.6763  0.6782  0.1662
 9697TIP3   OH250505   0.626   5.519  15.598  0.1737  0.4623 -0.0126
 9697TIP3    H150506   0.696   5.492  15.539 -0.1390 -0.3299 -0.0334
 9697TIP3    H250507   0.562   5.447  15.594 -1.0683  1.5634 -0.6813
 9698TIP3   OH250508   3.908   5.455   5.069  0.2505  0.0140  0.6606
 9698TIP3    H150509   3.965   5.482   4.997  0.0859  1.3611  1.0133
 9698TIP3    H250510   3.822   5.492   5.047 -1.0607 -3.4687 -0.7749
 9699TIP3   OH250511   4.532   4.579   0.260 -0.1586  0.6737 -0.1829
 9699TIP3    H150512   4.449   4.601   0.303 -0.9802 -0.2310 -1.2169
 9699TIP3    H250513   4.525   4.485   0.242  0.4659  0.8617 -1.5562
 9700TIP3   OH250514   1.397   0.210   4.527 -0.0097 -0.0537 -0.2340
 9700TIP3    H150515   1.452   0.277   4.567  0.6365  0.5340 -2.0213
 9700TIP3    H250516   1.448   0.178   4.453 -0.5906 -2.0832  0.1817
 9701TIP3   OH250517   5.047   3.919   2.037 -0.0292 -0.4309  0.2051
 9701TIP3    H150518   5.086   3.854   1.980 -0.3773 -0.4704  0.0072
 9701TIP3    H250519   5.097   3.999   2.022 -0.4261 -0.3122 -0.5210
 9702TIP3   OH250520   5.096   3.554   0.762 -0.3992 -0.3047 -0.2103
 9702TIP3    H150521   5.108   3.460   0.773 -0.4725 -0.5862 -2.1063
 9702TIP3    H250522   5.061   3.584   0.846  0.3364 -1.8197  0.6850
 9703TIP3   OH250523   1.021   0.750   2.500 -0.2478  0.2066 -0.3095
 9703TIP3    H150524   0.944   0.746   2.443  0.5256  2.0742 -1.5764
 9703TIP3    H250525   1.092   0.780   2.443  0.8618  0.9165  1.3755
 9704TIP3   OH250526   5.818   5.347  13.971  0.7098 -0.0341 -0.4925
 9704TIP3    H150527   5.863   5.264  13.982  1.7521  0.7561  1.8105
 9704TIP3    H250528   5.873   5.396  13.910  1.4563 -0.1107  0.1155
 9705TIP3   OH250529   4.527   5.539   3.464 -1.0679  0.3544 -0.1097
 9705TIP3    H150530   4.509   5.446   3.476  1.4228 -0.2811 -0.7036
 9705TIP3    H250531   4.500   5.580   3.546  1.0172 -1.4561  1.5870
 9706TIP3   OH250532   2.768   2.431  13.350  0.0173 -0.2705 -0.0224
 9706TIP3    H150533   2.712   2.454  13.424  0.2380 -0.0164  0.0688
 9706TIP3    H250534   2.760   2.336  13.343 -2.6988 -0.0149 -1.8427
 9707TIP3   OH250535   2.581   6.756  11.924  0.1581  0.4095 -0.2228
 9707TIP3    H150536   2.610   6.679  11.875  1.0806  1.1012 -0.7911
 9707TIP3    H250537   2.657   6.783  11.974 -0.4799  0.3300  0.8087
 9708TIP3   OH250538   4.033   2.410  13.812 -0.1633  0.3128 -0.1428
 9708TIP3    H150539   4.080   2.396  13.729 -0.2739 -0.8757 -0.0198
 9708TIP3    H250540   3.989   2.494  13.800 -0.4615 -0.0048 -1.4375
 9709TIP3   OH250541   1.443   3.718  12.533 -0.1825 -0.4441  0.1568
 9709TIP3    H150542   1.456   3.669  12.452  1.8000 -1.6589  1.1279
 9709TIP3    H250543   1.461   3.655  12.602 -0.0288  1.0145  1.5114
 9710TIP3   OH250544   4.014   3.192   2.355 -0.0225 -0.4116  0.0757
 9710TIP3    H150545   4.037   3.226   2.441 -1.7028  0.3584  0.2620
 9710TIP3    H250546   3.940   3.133   2.371 -0.8697  0.3365 -0.8949
 9711TIP3   OH250547   3.058   3.880  13.485  0.0279  0.4161 -0.1285
 9711TIP3    H150548   2.987   3.913  13.430 -1.8828 -0.1686  1.8305
 9711TIP3    H250549   3.018   3.809  13.535  2.0643 -0.0592  0.9098
 9712TIP3   OH250550   5.360   1.016   0.421  0.2555  0.4553 -0.0846
 9712TIP3    H150551   5.377   1.083   0.355  3.3255  0.1623  0.2384
 9712TIP3    H250552   5.391   0.935   0.380  1.1769  0.0920  1.2538
 9713TIP3   OH250553   6.255   0.324  17.146  0.2029  0.3566 -0.0462
 9713TIP3    H150554   6.205   0.256  17.190 -0.1214 -0.1246 -1.1195
 9713TIP3    H250555   6.314   0.277  17.087  3.9106  0.7333  2.9920
 9714TIP3   OH250556   1.831   0.397   3.649 -0.0231 -0.1308  0.2877
 9714TIP3    H150557   1.831   0.301   3.647 -0.3835 -0.2258  2.5742
 9714TIP3    H250558   1.759   0.420   3.708  0.8982  1.5216  0.8376
 9715TIP3   OH250559   6.682   2.658  15.175  0.0627  0.1970 -0.0396
 9715TIP3    H150560   6.617   2.637  15.107  0.8552  2.9277 -1.7970
 9715TIP3    H250561   6.761   2.681  15.126  1.8047 -1.0785  1.9869
 9716TIP3   OH250562   3.705   0.371   2.548  0.0255  0.3920 -0.0649
 9716TIP3    H150563   3.640   0.441   2.548  0.7155  1.1147 -2.3940
 9716TIP3    H250564   3.784   0.411   2.583  0.2357  0.6168 -0.7766
 9717TIP3   OH250565   1.766   1.198   3.913 -0.3028 -0.2869  0.6894
 9717TIP3    H150566   1.855   1.167   3.898 -0.8438 -2.0910  1.0205
 9717TIP3    H250567   1.755   1.269   3.850  1.6411  0.5633  1.2253
 9718TIP3   OH250568   2.446   2.962   0.304 -0.5713 -0.2908  0.3840
 9718TIP3    H150569   2.459   2.871   0.276 -2.7955  0.0638 -2.3061
 9718TIP3    H250570   2.367   2.959   0.358 -0.2644 -0.0197  0.8542
 9719TIP3   OH250571   1.990   1.780  15.964 -0.0194 -0.2098  0.0936
 9719TIP3    H150572   1.939   1.717  15.914 -0.5391 -0.8337  1.3641
 9719TIP3    H250573   2.026   1.840  15.899 -2.2292  0.1555 -0.8739
 9720TIP3   OH250574   1.941   1.085   4.843  0.3936  0.7497 -0.2991
 9720TIP3    H150575   1.970   1.010   4.791 -1.7256  1.5151 -2.8347
 9720TIP3    H250576   1.973   1.162   4.796 -1.8052  1.4874 -0.7131
 9721TIP3   OH250577   5.195   1.214  16.434 -0.5822  0.6650 -0.2150
 9721TIP3    H150578   5.162   1.218  16.344 -0.2769  1.0600 -0.3158
 9721TIP3    H250579   5.288   1.236  16.426 -0.6006  0.9181  0.2200
 9722TIP3   OH250580   1.060   1.171  11.361 -0.6592  0.3544 -0.1320
 9722TIP3    H150581   1.095   1.094  11.316 -1.0815  0.6071 -0.9011
 9722TIP3    H250582   1.130   1.236  11.355 -0.2469  0.0022  0.6389
 9723TIP3   OH250583   4.483   3.927   5.345  0.5783 -0.1704 -0.4049
 9723TIP3    H150584   4.474   3.927   5.441  1.6264 -1.1171 -0.2840
 9723TIP3    H250585   4.394   3.912   5.313 -0.1192  2.0154  0.3433
 9724TIP3   OH250586   5.148   3.898   4.340 -0.6564 -0.5693 -0.3799
 9724TIP3    H150587   5.091   3.899   4.263 -0.7864 -0.8260 -0.2878
 9724TIP3    H250588   5.215   3.832   4.320 -2.2041 -2.6406  0.8026
 9725TIP3   OH250589   6.445   0.158  13.675  0.4505  0.4154  0.3393
 9725TIP3    H150590   6.378   0.180  13.740  1.9675  0.1879  2.0399
 9725TIP3    H250591   6.448   0.062  13.676 -1.3091  0.2211 -2.0422
 9726TIP3   OH250592   1.948   2.604   0.818  0.2194 -0.7813 -0.1723
 9726TIP3    H150593   2.028   2.638   0.778 -0.6546  1.1953 -0.3942
 9726TIP3    H250594   1.925   2.670   0.884 -1.2428 -1.2977 -0.1367
 9727TIP3   OH250595   0.436   5.407  15.976  0.3484 -0.3254  1.0104
 9727TIP3    H150596   0.522   5.432  15.943 -0.9702  1.1685 -1.5267
 9727TIP3    H250597   0.424   5.462  16.054  0.9705  0.7461  0.3717
 9728TIP3   OH250598   1.814   2.124   5.930  0.1802 -0.2494 -0.3356
 9728TIP3    H150599   1.831   2.081   6.014 -0.2334  0.3105  0.0430
 9728TIP3    H250600   1.899   2.129   5.887  0.3900 -0.5638  0.0408
 9729TIP3   OH250601   1.013   2.924  13.174 -0.4507  0.3264  0.0457
 9729TIP3    H150602   1.029   2.970  13.091 -1.1828 -1.4232 -1.1228
 9729TIP3    H250603   1.079   2.959  13.234 -0.1188  1.8820 -1.1661
 9730TIP3   OH250604   0.725   3.371   2.738  0.1290 -0.8948  0.2538
 9730TIP3    H150605   0.762   3.295   2.785 -0.0421 -0.6196  0.8459
 9730TIP3    H250606   0.670   3.332   2.670 -1.6072 -1.3601  1.8289
 9731TIP3   OH250607   3.310   5.194   0.429  0.2281  0.4253  1.3466
 9731TIP3    H150608   3.376   5.264   0.435  0.8165  0.3032 -1.8325
 9731TIP3    H250609   3.351   5.127   0.374 -2.1602 -0.1125  0.0741
 9732TIP3   OH250610   5.273   6.085  15.297 -0.4866 -0.1495 -0.1650
 9732TIP3    H150611   5.236   6.108  15.211 -0.2692  0.6759 -0.0488
 9732TIP3    H250612   5.204   6.033  15.339 -1.4309  1.1199 -0.0691
 9733TIP3   OH250613   4.539   3.871  14.616  0.1138  0.0754 -0.4888
 9733TIP3    H150614   4.530   3.923  14.537 -0.3366  0.1948 -0.3633
 9733TIP3    H250615   4.579   3.930  14.680  2.6203 -0.6716 -1.2641
 9734TIP3   OH250616   3.404   0.769   3.850  0.0792  0.1235 -0.1317
 9734TIP3    H150617   3.359   0.810   3.924  0.8299  0.9330 -0.1090
 9734TIP3    H250618   3.479   0.725   3.890 -1.6337 -2.8570  0.0974
 9735TIP3   OH250619   3.102   5.037  16.577  0.2244 -0.1467 -0.7716
 9735TIP3    H150620   3.088   4.962  16.520  4.1675 -1.2786 -0.5037
 9735TIP3    H250621   3.113   5.111  16.518 -0.0630 -0.4563 -1.2178
 9736TIP3   OH250622   5.255   4.003  15.659 -0.0786 -0.0188  0.2738
 9736TIP3    H150623   5.278   3.944  15.731 -2.2705 -1.6867 -0.2673
 9736TIP3    H250624   5.206   4.074  15.700 -1.0059 -0.7784  0.5404
 9737TIP3   OH250625   4.401   1.726  11.762  0.0166 -0.1709  0.1972
 9737TIP3    H150626   4.424   1.700  11.673  1.5532  2.0666 -0.1464
 9737TIP3    H250627   4.365   1.814  11.753 -0.1308 -0.0399  1.7644
 9738TIP3   OH250628   6.197   1.219  13.635  0.0290  0.3395  0.3157
 9738TIP3    H150629   6.136   1.292  13.642  0.9027  1.1390 -0.1240
 9738TIP3    H250630   6.155   1.147  13.682 -1.3663  0.7752 -0.2325
 9739TIP3   OH250631   1.062   4.226  13.774  0.2558 -0.3366  0.2441
 9739TIP3    H150632   0.973   4.260  13.766  0.1695 -0.3319  1.0907
 9739TIP3    H250633   1.105   4.284  13.837  0.5287 -0.9635  0.6511
 9740TIP3   OH250634   6.141   2.798  12.947  0.0786 -0.0408  0.2062
 9740TIP3    H150635   6.165   2.890  12.933 -0.6399  0.1842  0.4309
 9740TIP3    H250636   6.075   2.801  13.016 -0.4953 -0.6647 -0.3022
 9741TIP3   OH250637   0.845   3.180   2.892 -0.1976 -0.3481 -0.3152
 9741TIP3    H150638   0.761   3.149   2.926 -0.0617 -0.5454 -0.1559
 9741TIP3    H250639   0.899   3.192   2.970 -0.5919  1.3618 -0.2626
 9742TIP3   OH250640   0.174   1.821   2.113  1.0139 -0.0408 -0.3943
 9742TIP3    H150641   0.245   1.885   2.114  0.1998  0.8811 -0.2497
 9742TIP3    H250642   0.216   1.739   2.088  2.1157  0.4975 -0.3643
 9743TIP3   OH250643   3.654   5.154  16.251  0.0017  0.0480 -0.0768
 9743TIP3    H150644   3.740   5.153  16.294  0.1836  1.0512 -0.3847
 9743TIP3    H250645   3.667   5.104  16.171 -0.2695 -1.6132  0.8651
 9744TIP3   OH250646   0.762   2.821   2.150  0.0530  0.4918  0.0873
 9744TIP3    H150647   0.669   2.840   2.159 -0.1795 -0.6225  0.2055
 9744TIP3    H250648   0.767   2.764   2.073  0.3852 -1.0221  1.1957
 9745TIP3   OH250649   2.660   0.288   2.060 -0.6049 -0.6492 -0.3799
 9745TIP3    H150650   2.696   0.371   2.091  3.2470 -1.3305 -2.3510
 9745TIP3    H250651   2.583   0.313   2.009 -2.0171  1.1943  2.4151
 9746TIP3   OH250652   4.276   6.352  15.674  0.2114  0.2309  0.5490
 9746TIP3    H150653   4.328   6.271  15.669 -0.1638 -0.0055  0.4841
 9746TIP3    H250654   4.185   6.322  15.674  0.0790  0.5816  1.7442
 9747TIP3   OH250655   1.412   3.236   2.806 -0.1094  0.2001 -0.1296
 9747TIP3    H150656   1.360   3.168   2.763 -0.8269 -0.1963  1.3119
 9747TIP3    H250657   1.363   3.258   2.885  0.1025  2.4255 -0.5445
 9748TIP3   OH250658   2.080   1.931  13.863  0.1214 -0.5199 -0.4393
 9748TIP3    H150659   2.006   1.992  13.861  0.2586 -0.3453 -0.1629
 9748TIP3    H250660   2.058   1.868  13.931  0.1819 -0.5244 -0.4239
 9749TIP3   OH250661   0.544   2.843   0.552  0.1211  0.1509  0.0858
 9749TIP3    H150662   0.543   2.750   0.577  1.0022  0.5755  1.8265
 9749TIP3    H250663   0.587   2.843   0.466  2.6979 -0.8511  1.2692
 9750TIP3   OH250664   2.121   2.296  13.945  0.4517  0.3576  0.2765
 9750TIP3    H150665   2.179   2.314  14.019  1.3251 -0.3369 -0.2127
 9750TIP3    H250666   2.034   2.290  13.983  0.6271  1.7560  0.9918
 9751TIP3   OH250667   2.604   1.438  13.115 -0.2277  0.1896  0.1964
 9751TIP3    H150668   2.647   1.462  13.197  1.1223  0.2278 -0.4934
 9751TIP3    H250669   2.545   1.366  13.139  0.8044 -0.4055  1.0562
 9752TIP3   OH250670   6.061   3.950   0.507 -0.3217 -0.0031 -0.4160
 9752TIP3    H150671   6.088   4.007   0.435 -2.0481  0.8192 -0.4576
 9752TIP3    H250672   5.976   3.984   0.534 -1.1267 -2.1853 -0.0151
 9753TIP3   OH250673   5.257   0.450  13.510  0.2602 -0.7088  0.2775
 9753TIP3    H150674   5.273   0.360  13.537  0.7264 -0.7230 -0.0301
 9753TIP3    H250675   5.162   0.460  13.515  0.1186 -1.5002 -0.5605
 9754TIP3   OH250676   5.186   0.901   2.039  0.5961  0.2836 -0.2221
 9754TIP3    H150677   5.249   0.865   2.101 -0.1648  0.9053  0.9299
 9754TIP3    H250678   5.208   0.994   2.034  2.0808 -0.0914 -2.6288
 9755TIP3   OH250679   4.229   3.714   3.130 -0.6167  0.5423 -0.1866
 9755TIP3    H150680   4.243   3.762   3.049 -0.3274 -0.9188 -1.0288
 9755TIP3    H250681   4.307   3.732   3.182 -0.3196  0.6548 -0.6640
 9756TIP3   OH250682   4.897   6.316  15.001 -0.1526  0.3614 -0.6982
 9756TIP3    H150683   4.875   6.357  14.918 -1.1806  2.5915  0.5759
 9756TIP3    H250684   4.855   6.230  14.998 -1.6607  1.1032 -1.8061
 9757TIP3   OH250685   0.695   2.474   3.113 -0.1889  0.1040  0.4125
 9757TIP3    H150686   0.620   2.450   3.059 -1.3220  0.7091  1.6656
 9757TIP3    H250687   0.766   2.417   3.083 -1.0164 -0.1906 -1.0797
 9758TIP3   OH250688   3.124   3.726  17.300  0.1304  0.6866  0.2720
 9758TIP3    H150689   3.082   3.812  17.293  1.2375  1.2133 -0.0786
 9758TIP3    H250690   3.201   3.732  17.243 -0.1457 -0.7740 -0.2910
 9759TIP3   OH250691   4.792   6.617   2.395  0.0361 -0.0627 -0.2801
 9759TIP3    H150692   4.750   6.694   2.432  1.9983  0.5863  0.7368
 9759TIP3    H250693   4.853   6.588   2.463  0.5373 -1.5350 -1.3012
 9760TIP3   OH250694   1.829   2.444   1.785  0.3282  0.1600 -0.6444
 9760TIP3    H150695   1.774   2.374   1.820 -0.0160  1.4530  1.6229
 9760TIP3    H250696   1.918   2.412   1.796  0.1644 -0.1272 -0.1164
 9761TIP3   OH250697   3.279   0.170  11.817 -0.2036  0.0559 -0.2600
 9761TIP3    H150698   3.333   0.228  11.762  1.1239  0.5724  1.5093
 9761TIP3    H250699   3.200   0.221  11.835 -1.1412 -0.4952 -2.4102
 9762TIP3   OH250700   6.398   4.768   0.281 -0.1057 -0.2355 -0.0632
 9762TIP3    H150701   6.398   4.806   0.369  0.9652 -0.8369  0.2064
 9762TIP3    H250702   6.478   4.801   0.241 -0.3630 -0.3280 -0.6614
 9763TIP3   OH250703   6.344   5.209  12.340 -0.3101  0.4578  0.3155
 9763TIP3    H150704   6.303   5.214  12.254  0.4982  0.5698 -0.0730
 9763TIP3    H250705   6.280   5.164  12.395 -0.5156 -0.3191 -0.5390
 9764TIP3   OH250706   3.068   2.511  15.934  0.2636  0.1777  0.4660
 9764TIP3    H150707   3.117   2.450  15.879 -0.5554 -0.4511  0.4135
 9764TIP3    H250708   3.122   2.522  16.012 -0.2471 -1.8060  1.1525
 9765TIP3   OH250709   6.648   1.029  11.824  0.3495 -0.9975 -0.4419
 9765TIP3    H150710   6.614   0.943  11.849 -1.0784 -1.1339 -2.5657
 9765TIP3    H250711   6.722   1.010  11.767 -0.3736 -0.8949 -1.4567
 9766TIP3   OH250712   3.997   1.080   0.624  0.0361 -0.1328  0.4019
 9766TIP3    H150713   3.976   1.164   0.665  2.8236  1.0753 -0.4233
 9766TIP3    H250714   3.997   1.018   0.697  0.7894  1.1780  1.5842
 9767TIP3   OH250715   4.591   6.608   4.572 -0.2709  0.2706  0.3395
 9767TIP3    H150716   4.650   6.536   4.593 -0.4658 -0.0388 -0.1397
 9767TIP3    H250717   4.544   6.626   4.653 -0.1384 -0.0703  0.4929
 9768TIP3   OH250718   5.750   1.286  15.120 -0.2907  0.6919 -0.4063
 9768TIP3    H150719   5.692   1.317  15.051  1.0725  0.7575 -1.5625
 9768TIP3    H250720   5.752   1.191  15.110  0.3420  0.7469 -0.8188
 9769TIP3   OH250721   3.678   4.355   3.635  0.2522 -0.1259  0.5354
 9769TIP3    H150722   3.696   4.262   3.651  0.0950  0.0669  1.9912
 9769TIP3    H250723   3.714   4.371   3.548  1.4949 -1.2450  0.7975
 9770TIP3   OH250724   5.568   4.813  15.734 -0.6956 -0.1158  0.9514
 9770TIP3    H150725   5.578   4.902  15.701  0.0149 -0.1745  0.9944
 9770TIP3    H250726   5.498   4.775  15.681 -0.0593  0.0230 -0.0231
 9771TIP3   OH250727   2.299   4.074   3.006  0.2436 -0.1179  0.7122
 9771TIP3    H150728   2.250   4.014   2.949  0.9959 -0.0951  0.0107
 9771TIP3    H250729   2.318   4.023   3.085 -0.5114 -0.2701  0.7989
 9772TIP3   OH250730   6.546   1.780  12.154 -0.0419  0.3098 -0.4440
 9772TIP3    H150731   6.589   1.847  12.207  1.5833 -0.4768 -0.7121
 9772TIP3    H250732   6.549   1.701  12.207  1.6057 -0.4922 -1.6287
 9773TIP3   OH250733   2.727   4.944   5.398  0.8573  0.1063  0.2058
 9773TIP3    H150734   2.761   5.027   5.366  1.7469 -0.9718 -1.8287
 9773TIP3    H250735   2.667   4.914   5.329 -1.8018  0.3648  2.2111
 9774TIP3   OH250736   1.126   6.766  17.071  0.7935 -0.0837 -0.5152
 9774TIP3    H150737   1.218   6.785  17.090  0.6644 -0.9580  1.1327
 9774TIP3    H250738   1.116   6.673  17.089 -0.5320  0.1007 -0.1549
 9775TIP3   OH250739   3.817   3.090  15.674  0.1295 -0.0502 -0.4046
 9775TIP3    H150740   3.772   3.011  15.642  0.5558 -1.5197  2.3061
 9775TIP3    H250741   3.758   3.162  15.650 -1.5077 -1.4497 -0.8330
 9776TIP3   OH250742   4.747   4.892  15.117  0.7623  0.9437  0.0775
 9776TIP3    H150743   4.800   4.918  15.193 -0.3488  1.9078  0.5588
 9776TIP3    H250744   4.657   4.890  15.150  0.4430 -0.3428 -0.7972
 9777TIP3   OH250745   3.351   2.706  15.277 -0.0112  0.0498  0.2837
 9777TIP3    H150746   3.359   2.668  15.365 -1.3540  0.4088  0.5820
 9777TIP3    H250747   3.293   2.781  15.288  0.4904  0.6140 -0.7729
 9778TIP3   OH250748   1.563   4.372  12.157  0.5303 -0.0350 -0.1045
 9778TIP3    H150749   1.612   4.397  12.079 -1.0727  1.6126 -0.6515
 9778TIP3    H250750   1.519   4.453  12.185 -1.3235 -1.2619  0.7262
 9779TIP3   OH250751   3.153   1.287   2.784  0.1251 -0.0552  0.0418
 9779TIP3    H150752   3.160   1.374   2.824  1.1218 -0.5580  1.0257
 9779TIP3    H250753   3.158   1.304   2.690  1.1920  0.9034  0.2448
 9780TIP3   OH250754   3.414   0.373  14.019  0.2514 -0.3974 -0.0395
 9780TIP3    H150755   3.377   0.364  13.931  2.1276  0.0803 -0.9558
 9780TIP3    H250756   3.367   0.310  14.072 -2.5309  0.8692 -0.8019
 9781TIP3   OH250757   2.251   5.117  14.589 -0.1969  0.2521  0.3606
 9781TIP3    H150758   2.235   5.170  14.510  1.4361 -0.2189 -0.3271
 9781TIP3    H250759   2.270   5.182  14.657 -0.5639  0.6330  0.1078
 9782TIP3   OH250760   6.354   0.562  15.142  0.0883 -0.3164 -0.2719
 9782TIP3    H150761   6.301   0.642  15.134  1.1490  0.3456 -0.9276
 9782TIP3    H250762   6.437   0.584  15.099 -0.2260 -2.3598 -2.0882
 9783TIP3   OH250763   3.837   4.731  12.124  0.2367  0.3941  0.1814
 9783TIP3    H150764   3.783   4.809  12.141  0.2414  0.1076  1.5727
 9783TIP3    H250765   3.805   4.666  12.186  0.3657 -0.6758 -0.8385
 9784TIP3   OH250766   6.714   5.500   3.266 -0.6333  0.5992 -0.6136
 9784TIP3    H150767   6.630   5.546   3.269 -2.0466 -1.8229 -0.3604
 9784TIP3    H250768   6.721   5.457   3.351 -1.0826 -2.3127 -1.9133
 9785TIP3   OH250769   4.921   6.619  11.403  0.0372 -0.1963  0.0673
 9785TIP3    H150770   4.867   6.540  11.407  0.6702 -0.5919  1.2544
 9785TIP3    H250771   5.002   6.591  11.361 -0.7074  0.4475 -1.9143
 9786TIP3   OH250772   1.392   5.324  15.099 -0.2005 -0.0520 -0.3641
 9786TIP3    H150773   1.415   5.377  15.176 -0.9393  0.3453 -0.4061
 9786TIP3    H250774   1.347   5.385  15.041  1.6030  0.0251 -1.7747
 9787TIP3   OH250775   1.318   0.562  16.000  0.6007  0.0505 -0.5715
 9787TIP3    H150776   1.332   0.569  15.906 -0.1966  0.8738 -0.6344
 9787TIP3    H250777   1.341   0.648  16.035  0.8252 -0.2287 -0.0195
 9788TIP3   OH250778   2.704   0.986   2.310  0.3493  0.2913  0.2977
 9788TIP3    H150779   2.777   0.935   2.344  1.7116  1.1286 -1.2177
 9788TIP3    H250780   2.727   1.077   2.329 -1.0400  0.5073  1.1061
 9789TIP3   OH250781   3.322   5.977   6.165  0.0991  0.5167 -0.2291
 9789TIP3    H150782   3.396   5.954   6.221  0.1571 -0.4908 -0.7038
 9789TIP3    H250783   3.245   5.973   6.223  0.0143 -1.5589 -0.4172
 9790TIP3   OH250784   4.602   0.324  14.592 -0.6127  0.0363  0.4331
 9790TIP3    H150785   4.635   0.245  14.548  0.1726 -0.8006  2.4038
 9790TIP3    H250786   4.665   0.392  14.570  0.4730 -0.6778  1.2594
 9791TIP3   OH250787   2.723   1.875  13.918 -0.8213 -0.3418  0.6751
 9791TIP3    H150788   2.800   1.890  13.864  0.7327 -1.2429  2.5148
 9791TIP3    H250789   2.758   1.865  14.007 -2.6675 -4.1094  1.1450
 9792TIP3   OH250790   2.877   0.808  12.694  0.3165 -0.0455  0.0696
 9792TIP3    H150791   2.904   0.837  12.781 -2.1141 -0.0049  0.8935
 9792TIP3    H250792   2.898   0.715  12.692  1.1920  0.1304  0.3308
 9793TIP3   OH250793   5.996   3.136  11.206 -0.7962 -0.1501 -0.1733
 9793TIP3    H150794   6.011   3.105  11.117 -2.3777 -0.6218 -0.3033
 9793TIP3    H250795   5.926   3.081  11.240 -0.3461  0.1404  1.3125
 9794TIP3   OH250796   5.909   6.384  11.322 -0.1316  0.1956  0.4277
 9794TIP3    H150797   5.949   6.425  11.245  0.0257 -1.9701 -0.7207
 9794TIP3    H250798   5.980   6.382  11.387  1.8647 -3.4296 -1.5157
 9795TIP3   OH250799   6.744   4.035   5.364 -0.4528 -0.3162 -0.5239
 9795TIP3    H150800   6.674   3.993   5.313  0.5831 -1.2935 -1.1856
 9795TIP3    H250801   6.815   4.046   5.302 -0.3518  1.6104 -0.1145
 9796TIP3   OH250802   4.846   0.852   1.594 -0.1847 -0.1301  0.3922
 9796TIP3    H150803   4.913   0.790   1.566 -1.6566 -1.6349  0.0283
 9796TIP3    H250804   4.849   0.851   1.689  0.4297 -0.0499  0.3732
 9797TIP3   OH250805   6.457   5.763  13.088 -0.5096  0.2598 -0.0098
 9797TIP3    H150806   6.507   5.687  13.118 -2.2734 -0.2151  1.9479
 9797TIP3    H250807   6.385   5.725  13.038 -0.7800  0.7180  0.0282
 9798TIP3   OH250808   3.860   1.055   1.054  0.2038 -0.1472 -0.2562
 9798TIP3    H150809   3.810   1.033   0.976  1.1943  1.1915 -1.3212
 9798TIP3    H250810   3.797   1.098   1.112 -0.5473 -1.1783 -0.2837
 9799TIP3   OH250811   2.674   5.220  11.690  0.5086  0.2274 -0.1674
 9799TIP3    H150812   2.673   5.306  11.732 -0.8719  0.5353 -0.7687
 9799TIP3    H250813   2.706   5.237  11.602  0.9010 -0.0040 -0.0744
 9800TIP3   OH250814   1.636   1.103  14.756 -0.0948  0.0450  0.0458
 9800TIP3    H150815   1.609   1.192  14.731  0.0449 -0.1740 -0.9149
 9800TIP3    H250816   1.713   1.085  14.703  0.2890 -0.3972  0.7420
 9801TIP3   OH250817   2.569   0.059   0.594 -0.3735  0.1086  0.7206
 9801TIP3    H150818   2.628   0.067   0.668 -0.9919  0.2265  1.2046
 9801TIP3    H250819   2.553  -0.035   0.586  0.2082  0.0381  0.3211
 9802TIP3   OH250820   3.077   2.363  13.459  0.1967  0.2119 -0.0799
 9802TIP3    H150821   3.060   2.289  13.400  1.0861 -0.0539 -0.0137
 9802TIP3    H250822   3.167   2.350  13.489 -0.4917 -0.1191  2.0072
 9803TIP3   OH250823   5.073   4.562   2.504  0.5812 -0.4557  0.6042
 9803TIP3    H150824   5.074   4.609   2.587  0.6533 -0.1770  0.4484
 9803TIP3    H250825   5.141   4.604   2.452 -0.1658  0.0764  0.0265
 9804TIP3   OH250826   4.760   1.055  13.646 -0.4104  0.0254 -0.3354
 9804TIP3    H150827   4.815   1.124  13.683 -0.5015  0.6487 -1.3217
 9804TIP3    H250828   4.683   1.101  13.614 -1.8405 -0.9097  1.5806
 9805TIP3   OH250829   3.465   0.101   2.557 -0.2994 -0.0982  0.4980
 9805TIP3    H150830   3.404   0.138   2.494  0.1285 -0.1060  0.0709
 9805TIP3    H250831   3.506   0.028   2.510 -0.6401 -0.6850  1.0985
 9806TIP3   OH250832   5.583   2.548   4.151  0.1032  0.3078 -0.2221
 9806TIP3    H150833   5.671   2.550   4.189 -0.3457 -0.4144  0.9184
 9806TIP3    H250834   5.596   2.508   4.065  0.9121  0.3551 -0.1342
 9807TIP3   OH250835   6.451   4.079   3.609 -0.3593  0.1232 -0.7579
 9807TIP3    H150836   6.434   4.161   3.657 -1.0003 -0.0280 -0.7276
 9807TIP3    H250837   6.375   4.025   3.626  0.1657 -0.5763 -0.5989
 9808TIP3   OH250838   4.853   4.205  12.298  0.7073 -0.4830  0.8132
 9808TIP3    H150839   4.925   4.147  12.275  2.9806  2.8886 -1.5102
 9808TIP3    H250840   4.817   4.233  12.213 -1.3889  0.2510  1.8678
 9809TIP3   OH250841   4.593   0.892  13.052 -0.5879  0.0577 -0.1594
 9809TIP3    H150842   4.679   0.919  13.085 -0.0126 -0.9558 -0.7767
 9809TIP3    H250843   4.545   0.974  13.042  0.5690  0.7195 -0.5225
 9810TIP3   OH250844   1.739   2.478   1.203  0.6659 -0.0690  0.0630
 9810TIP3    H150845   1.726   2.568   1.232  0.6339 -0.9347  3.0612
 9810TIP3    H250846   1.683   2.468   1.126  0.4793  2.3500 -0.1656
 9811TIP3   OH250847   3.505   1.245  16.592 -0.0516  0.1721 -0.7130
 9811TIP3    H150848   3.533   1.252  16.684 -1.2488 -1.1688 -0.2042
 9811TIP3    H250849   3.437   1.311  16.583  0.2173  0.4544 -0.7117
 9812TIP3   OH250850   6.073   1.066  14.740 -0.0516 -0.0097 -0.6816
 9812TIP3    H150851   6.004   1.006  14.710 -0.5545  0.8508 -1.2671
 9812TIP3    H250852   6.154   1.028  14.705 -0.1041 -1.4433  0.6490
 9813TIP3   OH250853   0.396   0.662   3.798  0.2371  0.0181 -0.0469
 9813TIP3    H150854   0.350   0.583   3.828  3.2156 -1.2585  1.6351
 9813TIP3    H250855   0.400   0.652   3.703 -2.1899 -0.1714 -0.1771
 9814TIP3   OH250856   4.383   0.653   5.448 -0.4026  0.4508 -0.6120
 9814TIP3    H150857   4.404   0.581   5.509  0.1721 -0.5669 -1.9672
 9814TIP3    H250858   4.313   0.618   5.393 -0.7277  1.2709 -0.7281
 9815TIP3   OH250859   6.238   3.339  15.914  0.2408 -0.0479 -0.0117
 9815TIP3    H150860   6.322   3.294  15.913  0.0872 -0.3273 -0.5473
 9815TIP3    H250861   6.259   3.430  15.893  0.6557  0.3389  1.8798
 9816TIP3   OH250862   4.215   1.950   4.581 -0.5313  0.0224 -0.3151
 9816TIP3    H150863   4.143   1.917   4.634  0.4528 -1.7722 -0.0111
 9816TIP3    H250864   4.293   1.907   4.616  0.1617 -1.3869 -3.2407
 9817TIP3   OH250865   0.370   4.764  15.235  0.3987 -0.0935  0.8509
 9817TIP3    H150866   0.449   4.800  15.195  0.7448 -1.4143  0.2964
 9817TIP3    H250867   0.301   4.782  15.171  0.3942  0.3530  0.9763
 9818TIP3   OH250868   3.061   4.127   1.855  0.0243 -0.6330 -0.3399
 9818TIP3    H150869   3.067   4.089   1.943 -1.5311 -0.0345  0.0611
 9818TIP3    H250870   3.146   4.169   1.841  0.1850 -0.4524  1.0100
 9819TIP3   OH250871   3.554   0.195  16.235 -0.1851  0.1611 -0.1078
 9819TIP3    H150872   3.597   0.166  16.155  1.6836 -1.2219  1.2913
 9819TIP3    H250873   3.497   0.122  16.259  2.2934 -1.3090  1.8455
 9820TIP3   OH250874   6.071   3.862  16.422 -0.8075  0.2449 -0.5290
 9820TIP3    H150875   6.091   3.843  16.330 -0.1343 -1.3205 -0.0893
 9820TIP3    H250876   5.983   3.898  16.420 -1.0089 -0.2572 -1.7543
 9821TIP3   OH250877   2.015   3.703   4.467  0.1244 -0.2277 -0.3979
 9821TIP3    H150878   2.039   3.620   4.425 -1.8134 -0.3510 -1.3807
 9821TIP3    H250879   2.058   3.770   4.415  0.3140 -0.5494 -0.6613
 9822TIP3   OH250880   3.353   0.113  15.572 -0.8074  0.1829  0.0980
 9822TIP3    H150881   3.350   0.152  15.660  1.1252 -1.6291  1.0428
 9822TIP3    H250882   3.340   0.187  15.513  1.2949  2.0840  1.8310
 9823TIP3   OH250883   6.261   3.243   3.792 -0.1748 -0.3382  1.3353
 9823TIP3    H150884   6.313   3.225   3.714  0.2264  0.9568  1.2732
 9823TIP3    H250885   6.170   3.243   3.762  0.0729  3.1991  0.1104
 9824TIP3   OH250886   3.428   1.599  11.635 -0.3608 -0.8364  0.3073
 9824TIP3    H150887   3.508   1.598  11.582 -0.8505  1.2072 -0.5612
 9824TIP3    H250888   3.459   1.595  11.725  0.6391 -1.4263 -0.0441
 9825TIP3   OH250889   6.138   0.229  12.308  0.6946  0.1656 -0.6846
 9825TIP3    H150890   6.141   0.216  12.403  2.1260 -0.8324 -0.8441
 9825TIP3    H250891   6.154   0.323  12.297  0.6075  0.2750  0.0560
 9826TIP3   OH250892   0.374   6.600  16.644  0.3447 -0.2785  0.3866
 9826TIP3    H150893   0.402   6.674  16.590  0.7945 -0.7242 -0.0017
 9826TIP3    H250894   0.323   6.640  16.714 -0.8528  0.2526 -0.7474
 9827TIP3   OH250895   1.282   5.328   2.941 -0.2915  0.0202  0.2426
 9827TIP3    H150896   1.258   5.406   2.992  1.7688  0.5844  0.4380
 9827TIP3    H250897   1.349   5.284   2.994  0.1733 -0.6741 -0.8789
 9828TIP3   OH250898   5.547   2.497   1.795  0.0968  0.5854 -0.1266
 9828TIP3    H150899   5.549   2.494   1.891  0.0806 -0.0729 -0.1423
 9828TIP3    H250900   5.483   2.565   1.774 -0.6459  0.0292  0.3267
 9829TIP3   OH250901   3.208   5.355   4.709  1.2978  0.3332  0.4076
 9829TIP3    H150902   3.282   5.409   4.736  0.8068  0.8698  0.7112
 9829TIP3    H250903   3.229   5.330   4.619  0.4871  2.9845 -0.6344
 9830TIP3   OH250904   5.291   0.368   1.047  0.0653  0.0213  0.7539
 9830TIP3    H150905   5.281   0.294   1.107  2.6418 -1.0384 -0.0143
 9830TIP3    H250906   5.229   0.350   0.977 -0.3259 -0.6634  1.2606
 9831TIP3   OH250907   0.945   6.466   3.002 -0.8775 -0.4278  0.3780
 9831TIP3    H150908   1.035   6.465   2.969 -1.0050 -0.1540  0.0223
 9831TIP3    H250909   0.891   6.451   2.925 -1.2591  1.7668  0.1750
 9832TIP3   OH250910   0.772   0.106  10.889  0.3690  0.2714  0.0849
 9832TIP3    H150911   0.724   0.063  10.818 -0.6327  0.5668  0.5643
 9832TIP3    H250912   0.863   0.082  10.874  0.3541  1.2977 -1.9980
 9833TIP3   OH250913   3.172   3.350   2.815 -0.4223  0.4004 -0.5819
 9833TIP3    H150914   3.089   3.311   2.844 -0.0113  0.2928  0.4995
 9833TIP3    H250915   3.149   3.441   2.795 -0.9636  0.1590 -1.0960
 9834TIP3   OH250916   2.229   0.718   6.302 -0.1990 -0.3290 -0.4349
 9834TIP3    H150917   2.168   0.769   6.249 -1.0231 -1.3011 -0.4547
 9834TIP3    H250918   2.283   0.783   6.346 -1.0502  0.5476 -0.6587
 9835TIP3   OH250919   5.355   6.424   1.490 -0.6078  0.4193 -0.1902
 9835TIP3    H150920   5.324   6.495   1.546 -1.9940 -1.0935  1.0786
 9835TIP3    H250921   5.333   6.345   1.539  0.0409 -0.9128 -1.9743
 9836TIP3   OH250922   1.797   4.150  15.404  0.0041 -0.1349 -0.1515
 9836TIP3    H150923   1.719   4.205  15.415  0.2624  0.2205 -0.0518
 9836TIP3    H250924   1.819   4.122  15.492 -0.4928 -0.9237 -0.2704
 9837TIP3   OH250925   5.990   6.324  14.733 -0.3007  0.1343 -0.6346
 9837TIP3    H150926   5.902   6.349  14.761 -0.6749 -0.9210 -0.8077
 9837TIP3    H250927   6.018   6.260  14.798 -0.4808 -1.0361 -1.6678
 9838TIP3   OH250928   4.237   6.356   0.346  0.3913  0.4641  0.6241
 9838TIP3    H150929   4.318   6.341   0.396 -1.1688  0.2456  3.2504
 9838TIP3    H250930   4.219   6.449   0.358 -0.8286  0.1005  1.9198
 9839TIP3   OH250931   2.163   4.918   2.285 -0.4452 -0.2753 -0.1635
 9839TIP3    H150932   2.142   4.931   2.378 -0.4391  2.2468 -0.4489
 9839TIP3    H250933   2.258   4.904   2.283 -0.6476 -1.9442  0.2962
 9840TIP3   OH250934   5.694   1.632  15.892  0.1923  0.7307  0.9870
 9840TIP3    H150935   5.718   1.585  15.972  3.5095  0.5673  0.0551
 9840TIP3    H250936   5.771   1.624  15.836 -2.4246 -0.2975 -2.8471
 9841TIP3   OH250937   6.723   2.968   0.312  0.0685  0.0746 -0.4859
 9841TIP3    H150938   6.692   2.888   0.270 -0.3981 -0.0156  0.0150
 9841TIP3    H250939   6.818   2.964   0.305  0.0882 -0.8966  0.1947
 9842TIP3   OH250940   4.133   3.433   3.621 -0.0742  0.4569 -0.1599
 9842TIP3    H150941   4.191   3.398   3.688 -1.5393 -0.3269  0.7286
 9842TIP3    H250942   4.114   3.522   3.650 -0.6350  0.1490  0.4358
 9843TIP3   OH250943   3.553   1.795  15.702  0.1951 -0.1316  0.4367
 9843TIP3    H150944   3.582   1.732  15.768  1.7155 -1.7385 -1.6245
 9843TIP3    H250945   3.620   1.790  15.634 -0.5312  2.5324 -0.5919
 9844TIP3   OH250946   3.458   2.325   2.957  0.2641 -0.1542 -0.1807
 9844TIP3    H150947   3.424   2.411   2.935 -1.4311 -0.4536  1.0748
 9844TIP3    H250948   3.401   2.263   2.911  0.5550 -0.6236  0.0751
 9845TIP3   OH250949   5.669   4.451  11.317 -0.2188 -0.0367  0.7578
 9845TIP3    H150950   5.607   4.431  11.387 -1.1434 -2.0680 -0.5709
 9845TIP3    H250951   5.755   4.429  11.354 -0.6110 -0.3121  1.5262
 9846TIP3   OH250952   1.379   2.370  16.847  0.1459 -0.6939 -0.0193
 9846TIP3    H150953   1.463   2.324  16.849  0.2612 -0.4805  0.1548
 9846TIP3    H250954   1.401   2.459  16.819  0.0078 -0.5846  0.2096
 9847TIP3   OH250955   5.299   5.802  15.609  0.4646  0.7181  0.4574
 9847TIP3    H150956   5.259   5.845  15.534 -1.0400  1.4238  1.5997
 9847TIP3    H250957   5.275   5.710  15.601  1.1023  0.6079 -0.3802
 9848TIP3   OH250958   0.365   2.528   3.706  0.5189  0.1819 -0.2505
 9848TIP3    H150959   0.403   2.496   3.625 -0.2145 -0.6816 -0.2683
 9848TIP3    H250960   0.279   2.487   3.711 -0.2548  1.7459  0.0046
 9849TIP3   OH250961   1.916   0.005  17.038  0.1658  0.1697  0.0445
 9849TIP3    H150962   1.927   0.008  16.943 -0.6151  1.0640 -0.0371
 9849TIP3    H250963   1.884  -0.083  17.055 -0.1374  0.1476 -0.5873
 9850TIP3   OH250964   1.115   2.159  10.452  0.4178 -0.4466  0.0523
 9850TIP3    H150965   1.179   2.106  10.405 -0.1498 -0.9253 -0.1986
 9850TIP3    H250966   1.149   2.249  10.446  0.4326 -0.5170 -1.1628
 9851TIP3   OH250967   0.300   0.411   3.288  0.5001 -0.3236 -0.6841
 9851TIP3    H150968   0.246   0.484   3.257  0.7925  0.0293 -0.3662
 9851TIP3    H250969   0.244   0.365   3.350  1.9088  2.5513  3.0897
 9852TIP3   OH250970   3.116   5.449   2.920 -0.2037 -0.4904  0.2498
 9852TIP3    H150971   3.045   5.463   2.983 -0.7196  1.0657 -0.6284
 9852TIP3    H250972   3.196   5.458   2.971 -0.6120  0.8008  0.6834
 9853TIP3   OH250973   3.064   0.024  14.206 -0.6709  0.0367  0.4729
 9853TIP3    H150974   3.007  -0.009  14.137 -0.9695 -1.9607  1.6150
 9853TIP3    H250975   3.028   0.111  14.227 -1.7034 -0.1068 -0.5864
 9854TIP3   OH250976   4.237   2.418   4.476 -0.4598 -0.0675  0.3460
 9854TIP3    H150977   4.301   2.348   4.461  0.8632  0.8573  1.3752
 9854TIP3    H250978   4.235   2.466   4.393  1.5158  0.9029  0.8127
 9855TIP3   OH250979   4.899   6.614   5.164  0.4477 -0.1375 -0.0029
 9855TIP3    H150980   4.832   6.671   5.201  0.6667  1.3200 -1.6944
 9855TIP3    H250981   4.877   6.526   5.195 -1.8630  0.4002 -0.0062
 9856TIP3   OH250982   2.051   6.278  12.633 -0.2471  0.0216  0.0552
 9856TIP3    H150983   2.088   6.364  12.653  1.1038 -0.5246  0.0377
 9856TIP3    H250984   2.099   6.250  12.555 -0.3042 -0.9601  0.3633
 9857TIP3   OH250985   4.020   3.346  14.547  0.6438 -0.5228  0.3726
 9857TIP3    H150986   4.018   3.382  14.458 -0.2144 -1.9338 -0.2123
 9857TIP3    H250987   4.026   3.423  14.604 -2.0071  0.6594 -0.7587
 9858TIP3   OH250988   3.772   2.754   4.710  0.1022 -0.7265 -0.0950
 9858TIP3    H150989   3.775   2.732   4.804  0.8638  0.1665  0.0930
 9858TIP3    H250990   3.681   2.736   4.685 -0.1734 -0.7324  0.8709
 9859TIP3   OH250991   1.498   3.746   6.292  0.0970 -0.0186  0.5353
 9859TIP3    H150992   1.584   3.729   6.251 -0.1531  0.4667 -0.2037
 9859TIP3    H250993   1.493   3.841   6.299 -0.5179 -0.0306  0.2787
 9860TIP3   OH250994   4.049   1.623  15.957 -0.2269  0.0825 -0.9129
 9860TIP3    H150995   4.074   1.588  16.042 -0.2759 -0.0272 -0.9444
 9860TIP3    H250996   3.974   1.570  15.930  0.6432 -0.8011 -1.6608
 9861TIP3   OH250997   6.728   4.834  16.420  0.0459  0.0062  0.0583
 9861TIP3    H150998   6.782   4.834  16.341 -3.1011  1.0485 -2.3113
 9861TIP3    H250999   6.733   4.923  16.453  0.7848 -0.2415  0.6350
 9862TIP3   OH251000   0.237   3.786  12.855  0.1454  0.4788  0.5566
 9862TIP3    H151001   0.268   3.759  12.941  0.0684 -0.7904  0.2024
 9862TIP3    H251002   0.194   3.871  12.870  1.0255  0.7551  1.5745
 9863TIP3   OH251003   6.320   3.191  15.211  0.6280  0.4907  0.2135
 9863TIP3    H151004   6.240   3.163  15.168  1.0324  0.6363 -0.6558
 9863TIP3    H251005   6.350   3.115  15.260 -0.6591  0.7859  1.5075
 9864TIP3   OH251006   1.752   0.512  12.307 -0.5192  0.4556 -0.0606
 9864TIP3    H151007   1.842   0.516  12.276 -0.7707 -0.6450 -0.9949
 9864TIP3    H251008   1.756   0.457  12.386 -0.0516  2.3509  1.3247
 9865TIP3   OH251009   1.801   1.307  16.206 -0.7067  0.4877  0.2304
 9865TIP3    H151010   1.866   1.368  16.171 -0.0699  0.7547  1.7720
 9865TIP3    H251011   1.728   1.312  16.145 -0.7215  2.9156  0.3254
 9866TIP3   OH251012   6.460   0.623   5.779 -0.4866 -0.4382  1.0781
 9866TIP3    H151013   6.400   0.624   5.705 -0.8060  1.3714  1.3171
 9866TIP3    H251014   6.536   0.574   5.748 -0.1728  1.1390 -0.8535
 9867TIP3   OH251015   1.127   6.573  12.111 -0.4939  0.2749  0.0172
 9867TIP3    H151016   1.147   6.539  12.024  1.0918  1.0740  0.0278
 9867TIP3    H251017   1.034   6.553  12.125 -0.8458  0.3834 -1.9708
 9868TIP3   OH251018   5.830   1.797   5.454  0.3507 -0.6480  0.4191
 9868TIP3    H151019   5.754   1.854   5.460  0.4402 -0.6632  1.9196
 9868TIP3    H251020   5.807   1.719   5.505  0.6558 -1.5016 -0.6893
 9869TIP3   OH251021   1.805   2.994   6.451 -0.0076  0.5615 -0.0698
 9869TIP3    H151022   1.839   3.001   6.540 -0.1345  0.6992 -0.0329
 9869TIP3    H251023   1.740   3.063   6.445 -1.1802 -0.4814  0.2636
 9870TIP3   OH251024   2.177   4.783   1.980  0.1031  0.3669  0.2404
 9870TIP3    H151025   2.085   4.777   1.954 -0.3238  0.6747  1.5735
 9870TIP3    H251026   2.190   4.876   1.998  1.1756  0.6125 -1.5584
 9871TIP3   OH251027   5.413   0.152  13.117 -0.2806  0.2465 -0.1707
 9871TIP3    H151028   5.463   0.229  13.143  0.5284 -0.1123 -0.6214
 9871TIP3    H251029   5.350   0.139  13.188  0.3002  0.6808  0.4393
 9872TIP3   OH251030   2.938   4.667  13.580 -0.4087  0.0322 -0.0150
 9872TIP3    H151031   2.856   4.707  13.609 -0.7534 -0.2602 -0.5746
 9872TIP3    H251032   2.977   4.632  13.661 -0.8847  0.0746  0.2369
 9873TIP3   OH251033   4.833   4.113  14.650  0.3316  0.4366 -0.3453
 9873TIP3    H151034   4.925   4.106  14.624  0.5745  1.9445  0.0503
 9873TIP3    H251035   4.835   4.116  14.746 -0.0504  1.3984 -0.3603
 9874TIP3   OH251036   2.376   4.284  11.908  0.2571 -0.0131  0.8308
 9874TIP3    H151037   2.309   4.342  11.943 -1.6694 -0.9784 -0.9946
 9874TIP3    H251038   2.357   4.199  11.947 -0.3429 -0.5386 -0.5443
 9875TIP3   OH251039   4.426   0.634  11.177  0.1830 -0.4533  0.2375
 9875TIP3    H151040   4.413   0.653  11.084 -0.9163  0.0510  0.4757
 9875TIP3    H251041   4.449   0.541  11.179  1.9284 -0.0877 -0.6519
 9876TIP3   OH251042   0.166   4.970   2.242 -0.7498  0.3076  0.3230
 9876TIP3    H151043   0.157   4.892   2.296 -0.3255  0.7346  1.0208
 9876TIP3    H251044   0.077   4.990   2.212 -1.3631  1.2969  2.6035
 9877TIP3   OH251045   0.656   5.977  13.898 -0.2821 -0.0345  0.7461
 9877TIP3    H151046   0.612   6.050  13.942  0.4843  2.2222 -1.9411
 9877TIP3    H251047   0.749   5.989  13.919 -0.2744 -1.1488  1.4382
 9878TIP3   OH251048   2.177   5.742  15.247  0.1643 -0.0830  0.2182
 9878TIP3    H151049   2.169   5.769  15.339  1.6564 -0.3176  0.4470
 9878TIP3    H251050   2.185   5.823  15.198  0.0330  0.0262  0.3775
 9879TIP3   OH251051   0.494   3.508  14.010  0.0143  0.1645 -0.4100
 9879TIP3    H151052   0.547   3.445  14.057 -2.0627  0.4444  2.5413
 9879TIP3    H251053   0.418   3.459  13.980  0.3616  0.4304 -1.8015
 9880TIP3   OH251054   4.585   3.502   4.530 -0.4215 -0.1199 -0.4187
 9880TIP3    H151055   4.643   3.545   4.467  1.0877  2.1962  2.2923
 9880TIP3    H251056   4.514   3.563   4.544  0.0440  0.1198  1.1347
 9881TIP3   OH251057   0.997   3.509   4.491  0.1825  0.3729 -0.2166
 9881TIP3    H151058   1.069   3.551   4.445 -1.6112  0.2000 -3.5090
 9881TIP3    H251059   0.924   3.570   4.482 -0.7055 -0.4584  0.9766
 9882TIP3   OH251060   6.361   6.411   2.924 -0.3183 -0.1036 -0.2606
 9882TIP3    H151061   6.413   6.489   2.941 -0.6551 -0.1123  0.8349
 9882TIP3    H251062   6.412   6.339   2.961 -1.2308 -0.0740  1.1307
 9883TIP3   OH251063   5.399   4.934   0.720 -0.1816 -0.0707  0.0488
 9883TIP3    H151064   5.465   4.999   0.693  0.7512 -0.6393  0.8917
 9883TIP3    H251065   5.397   4.941   0.816  0.6392 -1.9228  0.2466
 9884TIP3   OH251066   4.154   0.148   1.039 -0.8238  0.7084 -0.0518
 9884TIP3    H151067   4.212   0.136   1.114 -1.6453  0.5021  0.5571
 9884TIP3    H251068   4.145   0.243   1.030  0.3098  0.7790 -0.7140
 9885TIP3   OH251069   1.172   2.640  15.575  0.7402 -0.1825  0.0569
 9885TIP3    H151070   1.207   2.689  15.501  1.0035  0.4533  0.5946
 9885TIP3    H251071   1.216   2.677  15.651  0.2502 -0.6239  0.5626
 9886TIP3   OH251072   6.420   5.247   1.937 -0.0146 -0.2471 -0.1983
 9886TIP3    H151073   6.394   5.266   2.027  1.3354  0.4659  0.0692
 9886TIP3    H251074   6.506   5.288   1.928 -0.5714  0.6260 -2.1467
 9887TIP3   OH251075   5.373   4.244   5.328 -0.1071 -0.2473  0.1010
 9887TIP3    H151076   5.382   4.158   5.369  1.6077  0.6603  1.7444
 9887TIP3    H251077   5.304   4.288   5.378 -0.6820 -0.4669 -0.4695
 9888TIP3   OH251078   4.043   3.935   3.730  0.1925  0.2559 -0.0440
 9888TIP3    H151079   3.964   3.987   3.745  1.0580  1.3251  1.1109
 9888TIP3    H251080   4.103   3.995   3.686  0.4655 -0.4479 -0.6479
 9889TIP3   OH251081   0.810   1.876   3.407 -0.0965  0.3138  0.6343
 9889TIP3    H151082   0.868   1.949   3.387 -1.0459  0.4581 -1.8779
 9889TIP3    H251083   0.867   1.799   3.406  0.1972  0.5151 -1.2589
 9890TIP3   OH251084   5.026   6.459   1.205 -0.2508 -0.2401 -0.7397
 9890TIP3    H151085   4.945   6.496   1.242  0.0284 -1.5995  1.4176
 9890TIP3    H251086   5.004   6.368   1.186  1.0205 -0.9759  1.0293
 9891TIP3   OH251087   6.623   3.112   4.443  0.5732 -0.3577  0.9601
 9891TIP3    H151088   6.678   3.082   4.515  0.5216 -1.5639  0.5325
 9891TIP3    H251089   6.554   3.045   4.437 -0.0291  0.2939  0.4775
 9892TIP3   OH251090   2.744   1.461   0.625 -0.2804  0.2829  0.0511
 9892TIP3    H151091   2.763   1.541   0.675 -0.6194 -1.1781  2.7341
 9892TIP3    H251092   2.650   1.465   0.608 -0.2604  0.5539  0.0082
 9893TIP3   OH251093   2.985   4.306  12.769  0.3180  0.0560  0.3902
 9893TIP3    H151094   2.906   4.339  12.725  0.0408 -0.2025  0.6925
 9893TIP3    H251095   2.952   4.253  12.841  0.7724  0.0760  0.6158
 9894TIP3   OH251096   2.330   1.009   0.779  0.0442 -0.1987  0.5955
 9894TIP3    H151097   2.310   1.023   0.686  1.4172  1.5980  0.5202
 9894TIP3    H251098   2.244   1.010   0.822 -0.5717 -0.5212 -0.5725
 9895TIP3   OH251099   2.510   3.196   5.688 -0.4737  0.4046 -0.1360
 9895TIP3    H151100   2.457   3.179   5.766 -0.0368  1.2953  0.3727
 9895TIP3    H251101   2.586   3.139   5.698 -0.6308  0.1917 -0.1403
 9896TIP3   OH251102   5.145   3.896   3.573  0.0921 -0.2231  0.5018
 9896TIP3    H151103   5.104   3.889   3.659 -2.1611  0.4817 -0.4523
 9896TIP3    H251104   5.155   3.806   3.543  0.0700 -0.4370  1.1324
 9897TIP3   OH251105   3.548   3.532   2.356 -0.4886  0.1193  0.4862
 9897TIP3    H151106   3.631   3.495   2.385 -0.3047  1.4429  1.7706
 9897TIP3    H251107   3.518   3.473   2.287  1.4487 -0.4462  0.0762
 9898TIP3   OH251108   2.735   2.969   3.298 -0.0706 -0.2190  0.4279
 9898TIP3    H151109   2.672   3.036   3.273 -0.1962  0.1145  1.5835
 9898TIP3    H251110   2.816   2.995   3.254 -0.3119  0.2672  0.2613
 9899TIP3   OH251111   0.603   6.113  11.044 -0.2426  0.3585  0.4202
 9899TIP3    H151112   0.514   6.080  11.059 -0.0208 -0.1409  0.6541
 9899TIP3    H251113   0.602   6.142  10.953  0.0423 -1.9075 -0.3507
 9900TIP3   OH251114   5.301   0.336   4.064 -0.3105  0.0309  0.9139
 9900TIP3    H151115   5.311   0.330   4.159 -0.4174  0.8794  0.9907
 9900TIP3    H251116   5.207   0.328   4.049 -0.2659 -0.3953  0.8490
 9901TIP3   OH251117   4.155   2.164   5.621  0.0102  0.0205  0.3802
 9901TIP3    H151118   4.090   2.197   5.683 -0.7322 -1.7770  0.6286
 9901TIP3    H251119   4.203   2.242   5.592 -1.4044  1.2301  1.1650
 9902TIP3   OH251120   1.002   3.885  11.839  0.6252 -0.8834  0.1679
 9902TIP3    H151121   0.936   3.871  11.771 -0.4149 -1.8391  1.3181
 9902TIP3    H251122   1.046   3.800  11.847  1.3459 -0.5278  0.0925
 9903TIP3   OH251123   2.812   4.533  14.046 -0.8700  0.6129  0.3080
 9903TIP3    H151124   2.726   4.492  14.053 -1.0042  0.9149  0.4403
 9903TIP3    H251125   2.824   4.580  14.128  0.4520 -1.3509  1.3234
 9904TIP3   OH251126   4.613   6.040  11.605 -0.3358  0.2434  0.1922
 9904TIP3    H151127   4.688   5.986  11.628  0.1624 -0.0666 -2.0104
 9904TIP3    H251128   4.597   6.022  11.513 -1.4993  2.2642 -0.0559
 9905TIP3   OH251129   1.403   4.824   2.792 -0.2043 -0.5009 -0.2832
 9905TIP3    H151130   1.469   4.775   2.743 -0.3857  0.7450 -1.8519
 9905TIP3    H251131   1.409   4.913   2.757  1.1269  1.0773  3.4382
 9906TIP3   OH251132   4.310   0.034   5.927  0.2425 -0.3661 -0.3902
 9906TIP3    H151133   4.235   0.036   5.987  1.1935 -1.5723  0.9066
 9906TIP3    H251134   4.284  -0.027   5.858 -0.4336  0.1815 -0.6356
 9907TIP3   OH251135   1.247   6.448  11.569 -0.2977  0.3772 -0.5899
 9907TIP3    H151136   1.250   6.353  11.578  0.6181  0.4793  0.4079
 9907TIP3    H251137   1.338   6.473  11.553 -0.4836  1.1160 -0.5278
 9908TIP3   OH251138   4.451   5.793   0.438 -0.2438 -0.2140  0.1041
 9908TIP3    H151139   4.402   5.753   0.510 -0.8427 -1.5748 -1.0148
 9908TIP3    H251140   4.540   5.758   0.447 -0.8044 -2.0423 -0.9693
 9909TIP3   OH251141   3.875   3.151   0.542 -0.1312  0.0666 -0.1701
 9909TIP3    H151142   3.942   3.180   0.480  0.7136 -3.4083 -1.1015
 9909TIP3    H251143   3.876   3.055   0.535 -2.9555 -0.2670  2.1970
 9910TIP3   OH251144   4.756   3.283  14.097 -0.2446 -0.1540 -0.3736
 9910TIP3    H151145   4.765   3.188  14.086 -0.7130 -0.4177  1.3300
 9910TIP3    H251146   4.672   3.304  14.056 -0.2443 -0.5063 -0.5540
 9911TIP3   OH251147   3.223   0.652   2.071  0.0608 -0.3047  0.2945
 9911TIP3    H151148   3.215   0.708   2.148  0.1597  0.6404 -0.3613
 9911TIP3    H251149   3.317   0.653   2.051  0.3930 -2.3809  1.4628
 9912TIP3   OH251150   4.740   6.284   0.756  0.4902  0.1922  0.5663
 9912TIP3    H151151   4.822   6.301   0.709  0.8320 -1.0401  0.6918
 9912TIP3    H251152   4.686   6.235   0.693 -0.4008  1.4781  0.2772
 9913TIP3   OH251153   1.839   6.162  10.584 -0.5251 -0.7001 -0.0180
 9913TIP3    H151154   1.766   6.221  10.568  1.2591  1.5658 -0.4081
 9913TIP3    H251155   1.887   6.203  10.657  2.9136  0.6348 -2.7515
 9914TIP3   OH251156   2.709   1.788  12.204  0.7856  0.3288 -0.1100
 9914TIP3    H151157   2.690   1.816  12.114 -0.1657 -1.4909 -0.5114
 9914TIP3    H251158   2.625   1.758  12.238  1.5916 -1.2831  0.5422
 9915TIP3   OH251159   3.653   1.716   3.502 -0.2112 -0.2921  0.4097
 9915TIP3    H151160   3.722   1.652   3.520  1.0222  0.9071  0.1140
 9915TIP3    H251161   3.614   1.735   3.588 -0.5876 -1.4171  0.4950
 9916TIP3   OH251162   3.694   0.416   0.634  0.0782  0.7487 -0.0574
 9916TIP3    H151163   3.635   0.422   0.709 -0.8781 -0.0311 -0.7263
 9916TIP3    H251164   3.675   0.331   0.594  1.6770  0.4671 -0.2902
 9917TIP3   OH251165   4.153   6.637   5.021 -0.5441 -0.1765  0.0770
 9917TIP3    H151166   4.161   6.607   5.112 -2.1181  0.7643  0.5650
 9917TIP3    H251167   4.067   6.680   5.017  0.4371  1.8127 -1.2755
 9918TIP3   OH251168   5.579   2.238  16.065  0.1859  0.4652  0.4575
 9918TIP3    H151169   5.596   2.217  16.157  2.7881 -2.4412 -0.5290
 9918TIP3    H251170   5.492   2.277  16.065  0.3936  1.2601  4.2052
 9919TIP3   OH251171   0.879   4.600   5.485 -0.5448 -0.1619 -0.2425
 9919TIP3    H151172   0.815   4.643   5.428  0.0765  0.8176 -0.2268
 9919TIP3    H251173   0.945   4.565   5.425 -0.2099  0.3298 -0.1635
 9920TIP3   OH251174   4.829   0.253  13.348 -0.3690  0.2283  0.0602
 9920TIP3    H151175   4.922   0.271  13.332 -0.1639 -0.3028  0.5723
 9920TIP3    H251176   4.823   0.246  13.444 -0.8636 -0.0995  0.0100
 9921TIP3   OH251177   6.670   4.869   6.419 -0.9007 -0.0247 -0.1898
 9921TIP3    H151178   6.609   4.943   6.417 -0.0707  0.7451 -3.5839
 9921TIP3    H251179   6.724   4.885   6.497 -1.2692  2.5332 -0.3582
 9922TIP3   OH251180   6.138   0.160  14.793 -0.4640 -0.1200 -0.3375
 9922TIP3    H151181   6.211   0.100  14.808 -2.0091 -1.7779  0.9837
 9922TIP3    H251182   6.107   0.182  14.881 -1.0035  1.2903 -0.8566
 9923TIP3   OH251183   3.590   5.869   4.734 -0.1980 -0.0605 -0.2142
 9923TIP3    H151184   3.666   5.812   4.723 -0.9829 -1.1625 -0.0729
 9923TIP3    H251185   3.529   5.841   4.665 -0.7423  0.3699  0.0818
 9924TIP3   OH251186   3.810   2.866  13.343  0.0423  1.0238  0.2365
 9924TIP3    H151187   3.789   2.958  13.359 -1.3632  0.9563 -1.0218
 9924TIP3    H251188   3.777   2.849  13.255  0.3094 -0.6864  0.4428
 9925TIP3   OH251189   1.413   6.447   1.074  0.0829  0.0485 -0.4613
 9925TIP3    H151190   1.422   6.402   1.157 -0.5782 -0.5013 -0.6727
 9925TIP3    H251191   1.328   6.418   1.040 -0.4537  1.6009 -0.5226
 9926TIP3   OH251192   2.549   4.488  14.016  0.5919 -0.3142 -0.0826
 9926TIP3    H151193   2.528   4.581  14.026  0.4934 -0.3942  0.4478
 9926TIP3    H251194   2.550   4.474  13.921  2.7250  0.7319 -0.2896
 9927TIP3   OH251195   4.604   0.041   0.453 -0.3025  0.4164  0.0317
 9927TIP3    H151196   4.577   0.132   0.442 -0.8633  0.5636  2.2132
 9927TIP3    H251197   4.684   0.034   0.401  0.3752  2.4795  0.6818
 9928TIP3   OH251198   2.747   0.708   0.529 -0.2441  0.6543 -0.2098
 9928TIP3    H151199   2.763   0.768   0.601  0.7318 -1.2421  1.2351
 9928TIP3    H251200   2.824   0.719   0.472  0.6407 -0.1576  0.7727
 9929TIP3   OH251201   6.713   6.283  13.257 -0.2480 -0.3068  0.2718
 9929TIP3    H151202   6.772   6.245  13.191  0.0833  0.9887 -0.2101
 9929TIP3    H251203   6.723   6.377  13.246 -0.2134 -0.0563  2.1869
 9930TIP3   OH251204   6.130   0.699   6.059  0.0869  0.0227 -0.1524
 9930TIP3    H151205   6.171   0.734   5.980 -2.5666  1.2264 -1.1233
 9930TIP3    H251206   6.154   0.761   6.128  1.6919 -0.5460 -0.1732
 9931TIP3   OH251207   0.927   4.597  12.333  0.5359  0.7158 -0.0842
 9931TIP3    H151208   0.920   4.689  12.361 -1.5027  0.2904  1.0421
 9931TIP3    H251209   0.836   4.566  12.333  1.2035 -1.3549 -0.2918
 9932TIP3   OH251210   4.178   4.426   2.110  0.1313 -0.5207 -0.1150
 9932TIP3    H151211   4.225   4.380   2.040 -0.4141  0.5132 -1.2034
 9932TIP3    H251212   4.085   4.418   2.086  0.0484  1.6153 -0.6903
 9933TIP3   OH251213   1.322   0.250   0.920 -0.3970  0.0589  0.4570
 9933TIP3    H151214   1.329   0.268   0.826 -1.2630 -0.3293  0.3032
 9933TIP3    H251215   1.288   0.161   0.925 -0.7085  0.2090  1.1314
 9934TIP3   OH251216   4.832   5.287  16.107  0.6156  0.3689 -0.6731
 9934TIP3    H151217   4.862   5.263  16.019 -0.1022 -0.3159 -0.7351
 9934TIP3    H251218   4.780   5.367  16.093  0.7282  0.4144 -0.8321
 9935TIP3   OH251219   0.003   3.339   3.389 -0.0090 -0.2655  0.1430
 9935TIP3    H151220   0.025   3.266   3.447  0.0192  0.6093  1.2621
 9935TIP3    H251221   0.076   3.401   3.398 -0.6049  0.4529  0.1465
 9936TIP3   OH251222   3.340   0.939   2.560 -0.2660 -0.6706 -0.0060
 9936TIP3    H151223   3.292   0.974   2.636  2.2824  0.4788  1.1969
 9936TIP3    H251224   3.295   0.858   2.539 -2.5645  0.2149  1.1496
 9937TIP3   OH251225   4.756   1.948  12.804  0.1554 -0.2253 -0.1563
 9937TIP3    H151226   4.668   1.909  12.809 -0.4500  0.9221 -1.2579
 9937TIP3    H251227   4.807   1.899  12.868 -1.0246 -1.6043 -0.1956
 9938TIP3   OH251228   4.667   5.615  16.573 -0.6880 -0.3456 -0.0081
 9938TIP3    H151229   4.742   5.602  16.515 -0.2185  1.2768  0.1963
 9938TIP3    H251230   4.603   5.549  16.545 -0.6263  0.6088 -2.5941
 9939TIP3   OH251231   3.051   0.005   4.363 -0.1644  0.7409  1.0156
 9939TIP3    H151232   2.960   0.014   4.335 -0.1337  2.0037  1.3051
 9939TIP3    H251233   3.100   0.060   4.302  0.4238  0.0512  0.8513
 9940TIP3   OH251234   6.565   1.942   5.346 -0.1147 -0.7622  0.1832
 9940TIP3    H151235   6.525   2.023   5.315  1.5424  0.0375  0.0300
 9940TIP3    H251236   6.624   1.970   5.416 -0.2792 -1.9705  0.8305
 9941TIP3   OH251237   0.331   6.285  13.954  0.0898  0.3789  0.1853
 9941TIP3    H151238   0.249   6.324  13.923  0.8191  0.4307 -1.7720
 9941TIP3    H251239   0.375   6.357  13.999 -0.3631  0.6947  0.1386
 9942TIP3   OH251240   0.481   4.316   0.925  0.3024  0.1414  0.7546
 9942TIP3    H151241   0.420   4.366   0.871 -0.1766 -0.1393  1.0345
 9942TIP3    H251242   0.557   4.304   0.868 -0.2308 -0.2317  0.1039
 9943TIP3   OH251243   0.354   6.657   6.004  0.4668 -0.3062  0.3248
 9943TIP3    H151244   0.316   6.636   5.919  1.9033  0.6534 -0.6121
 9943TIP3    H251245   0.442   6.690   5.984  0.8088  0.0741  2.1753
 9944TIP3   OH251246   6.183   1.713  11.763  0.1381  0.0526  0.2618
 9944TIP3    H151247   6.151   1.633  11.723  0.5504 -0.2011  0.4380
 9944TIP3    H251248   6.212   1.687  11.850  1.0544  0.2298  0.0198
 9945TIP3   OH251249   3.743   4.944   2.424 -0.3121 -0.2518  0.3928
 9945TIP3    H151250   3.765   4.851   2.418 -1.2213 -0.4752  0.3924
 9945TIP3    H251251   3.809   4.980   2.484  0.7466 -0.6522 -0.4881
 9946TIP3   OH251252   3.854   5.263  17.206  0.1647  0.3167  0.0346
 9946TIP3    H151253   3.830   5.228  17.292  0.0656 -0.8768 -0.4490
 9946TIP3    H251254   3.944   5.234  17.193 -0.1877 -0.4914 -0.7228
 9947TIP3   OH251255   2.473   4.021  14.799 -0.8011 -0.9085 -0.0276
 9947TIP3    H151256   2.378   4.008  14.792 -0.9873  0.8709 -1.4924
 9947TIP3    H251257   2.482   4.102  14.849 -0.1962  0.3774 -2.1003
 9948TIP3   OH251258   3.226   2.394  11.703 -0.0978  0.4042  0.2267
 9948TIP3    H151259   3.317   2.421  11.690  0.0407  0.5754  1.4525
 9948TIP3    H251260   3.223   2.362  11.792 -1.2276  0.3064  0.1659
 9949TIP3   OH251261   0.351   0.066  16.028 -0.4099  0.1127  0.1952
 9949TIP3    H151262   0.430   0.107  16.064 -1.2103 -0.1353  2.3953
 9949TIP3    H251263   0.364  -0.028  16.043 -0.8470  0.0206 -0.0051
 9950TIP3   OH251264   6.390   1.070  11.539 -0.2635  0.0169  0.4361
 9950TIP3    H151265   6.420   1.004  11.602 -1.9928 -2.2788 -0.9846
 9950TIP3    H251266   6.459   1.072  11.473 -0.6349 -1.1210 -0.0055
 9951TIP3   OH251267   6.367   3.661   0.592  0.3114  0.4145  0.2249
 9951TIP3    H151268   6.332   3.622   0.512  1.6462 -0.8375  0.2291
 9951TIP3    H251269   6.291   3.666   0.651 -0.3217 -0.2431 -0.5102
 9952TIP3   OH251270   0.196   3.628  11.756  0.4575  0.0442  0.3623
 9952TIP3    H151271   0.254   3.563  11.796 -0.5613 -0.7823  0.5348
 9952TIP3    H251272   0.176   3.689  11.827 -0.0080 -0.4716  0.6801
 9953TIP3   OH251273   1.277   1.306   1.697 -0.2006 -0.0586  0.0310
 9953TIP3    H151274   1.291   1.231   1.640  2.3313 -0.3465  0.9154
 9953TIP3    H251275   1.295   1.274   1.785 -0.4228  1.2614  0.5863
 9954TIP3   OH251276   4.820   3.157   5.790 -0.3032 -0.7674 -0.3893
 9954TIP3    H151277   4.769   3.135   5.868 -0.2575 -1.2363 -0.4885
 9954TIP3    H251278   4.774   3.112   5.719 -0.1606 -0.6060 -0.5838
 9955TIP3   OH251279   6.258   0.783  13.496  0.4939 -0.4887  0.1563
 9955TIP3    H151280   6.252   0.841  13.420 -0.9243 -0.3303  0.3582
 9955TIP3    H251281   6.297   0.837  13.564 -1.6075  0.5737  0.6049
 9956TIP3   OH251282   0.519   5.046   0.980 -0.0181  0.3083 -0.7749
 9956TIP3    H151283   0.481   5.062   0.893 -0.7891 -2.1417 -0.9615
 9956TIP3    H251284   0.529   4.951   0.984  1.2015  0.4845  1.3494
 9957TIP3   OH251285   5.417   1.283  13.911  0.5578 -0.2681  0.6125
 9957TIP3    H151286   5.478   1.275  13.837  0.1576  1.7077  0.0092
 9957TIP3    H251287   5.473   1.303  13.986  0.6848  2.9246 -0.1924
 9958TIP3   OH251288   6.229   2.874  11.555  0.3535  0.5740 -0.2415
 9958TIP3    H151289   6.137   2.849  11.555  0.6053 -0.6923 -2.5747
 9958TIP3    H251290   6.230   2.963  11.520  0.0363  0.3474 -0.8405
 9959TIP3   OH251291   0.004   5.639   1.784  0.2679 -0.2357  0.0887
 9959TIP3    H151292   0.026   5.639   1.691 -0.5997 -0.2605 -0.1223
 9959TIP3    H251293  -0.010   5.731   1.805  2.7061  0.0646  0.7701
 9960TIP3   OH251294   2.474   5.336   0.079 -0.0790  0.2634 -0.3103
 9960TIP3    H151295   2.503   5.287   0.002  0.9874 -0.7835  0.6997
 9960TIP3    H251296   2.420   5.407   0.044 -0.4589 -0.7693 -1.9365
 9961TIP3   OH251297   5.635   2.926  13.653 -0.3985 -0.5816  0.1526
 9961TIP3    H151298   5.674   3.013  13.663 -0.0322 -0.7485  0.1810
 9961TIP3    H251299   5.644   2.886  13.740  2.0474 -1.7282 -0.5433
 9962TIP3   OH251300   6.326   4.631  13.308  0.2839 -0.2288  0.1871
 9962TIP3    H151301   6.270   4.699  13.270 -0.2674 -0.8465 -0.1131
 9962TIP3    H251302   6.343   4.661  13.397 -0.6475 -0.1107  0.3290
 9963TIP3   OH251303   4.719   5.973   4.308  0.0682 -0.7233  0.4381
 9963TIP3    H151304   4.624   5.974   4.320  0.0192 -0.3175  0.0359
 9963TIP3    H251305   4.739   5.885   4.277 -0.0782 -1.0578  1.2621
 9964TIP3   OH251306   3.225   3.605   0.952 -0.5110 -0.2621  0.3603
 9964TIP3    H151307   3.312   3.632   0.921  0.0377  0.0286  2.0897
 9964TIP3    H251308   3.173   3.599   0.872  0.6791  1.0841 -0.5747
 9965TIP3   OH251309   6.281   5.831  15.363  0.5956  0.2019  0.4047
 9965TIP3    H151310   6.353   5.875  15.408 -0.4475  0.1037  2.2868
 9965TIP3    H251311   6.242   5.776  15.431 -0.0704 -1.2147 -1.0812
 9966TIP3   OH251312   3.621   3.206  16.839 -0.4224  0.1748  0.1929
 9966TIP3    H151313   3.614   3.235  16.930 -0.4569 -2.3071  1.0423
 9966TIP3    H251314   3.668   3.123  16.844  0.8477  0.6734 -2.2240
 9967TIP3   OH251315   5.952   3.453  14.803 -0.0199 -0.7676  0.3520
 9967TIP3    H151316   5.984   3.516  14.738  2.1146  0.4148  2.3783
 9967TIP3    H251317   6.026   3.394  14.818 -0.8571 -1.7230  0.9057
 9968TIP3   OH251318   0.543   2.561  11.709  0.6857 -0.5493  0.0893
 9968TIP3    H151319   0.480   2.571  11.637  1.1740  2.3455 -0.0320
 9968TIP3    H251320   0.617   2.514  11.669  0.8298  0.7648 -1.2757
 9969TIP3   OH251321   5.387   6.305   2.345  0.0476 -0.2300  0.1161
 9969TIP3    H151322   5.408   6.299   2.251 -0.5244  0.1713 -0.0418
 9969TIP3    H251323   5.472   6.315   2.388  0.3877 -1.2481 -0.2884
 9970TIP3   OH251324   6.118   0.914   1.207  0.6828  0.4026  0.3789
 9970TIP3    H151325   6.038   0.918   1.154  0.5690  0.9568  0.5825
 9970TIP3    H251326   6.112   0.990   1.266  0.6586 -0.3548  1.3894
 9971TIP3   OH251327   1.659   4.389   6.031  0.1832 -1.1531 -0.0218
 9971TIP3    H151328   1.629   4.480   6.038  0.5239 -1.0649  0.3099
 9971TIP3    H251329   1.625   4.346   6.110  0.1721 -1.2707 -0.0897
 9972TIP3   OH251330   0.995   4.716   0.739 -0.2589  0.1116  0.1969
 9972TIP3    H151331   1.018   4.661   0.663  1.2618  1.6159 -0.5008
 9972TIP3    H251332   1.075   4.764   0.758 -1.3298  1.5555  1.2374
 9973TIP3   OH251333   6.554   6.528   2.233 -0.3011  0.4162 -0.5052
 9973TIP3    H151334   6.464   6.561   2.243 -0.1570  0.5217  0.4674
 9973TIP3    H251335   6.603   6.570   2.303  0.1679 -0.8811 -0.0373
 9974TIP3   OH251336   2.214   6.736  13.834 -0.1636 -0.2079 -0.3857
 9974TIP3    H151337   2.272   6.669  13.797 -1.2258 -0.4860 -1.6195
 9974TIP3    H251338   2.162   6.689  13.900 -0.4381 -0.4554 -0.7732
 9975TIP3   OH251339   1.517   1.859  11.195  0.4366 -0.1817 -0.2334
 9975TIP3    H151340   1.502   1.950  11.224  1.0548 -0.4172  0.8972
 9975TIP3    H251341   1.482   1.806  11.267  1.3252 -0.8136 -0.2620
 9976TIP3   OH251342   1.697   1.630   4.447  0.0188  0.5026  0.4234
 9976TIP3    H151343   1.768   1.634   4.510 -0.5911 -0.8838  1.2648
 9976TIP3    H251344   1.630   1.576   4.490 -0.2354 -0.8844 -1.5699
 9977TIP3   OH251345   2.571   4.205   1.190 -0.6413 -0.8004 -0.1833
 9977TIP3    H151346   2.514   4.239   1.259  0.3064  2.5770 -0.8765
 9977TIP3    H251347   2.649   4.174   1.236 -0.0980  1.2478  0.3761
 9978TIP3   OH251348   4.463   1.151  13.948  0.2555  0.1544 -0.5552
 9978TIP3    H151349   4.391   1.160  13.885 -0.9894  1.3438  0.9614
 9978TIP3    H251350   4.510   1.234  13.943 -0.3244  0.5771  0.5894
 9979TIP3   OH251351   6.527   0.987  13.385  1.1628  0.0900 -0.1063
 9979TIP3    H151352   6.543   0.911  13.329 -2.6052 -1.4814  0.6440
 9979TIP3    H251353   6.470   1.043  13.332  0.8748  0.5573  0.6937
 9980TIP3   OH251354   3.819   2.997  16.838 -0.0695  0.1943  0.0330
 9980TIP3    H151355   3.896   2.966  16.790  0.6700 -0.2217  1.4322
 9980TIP3    H251356   3.849   3.075  16.884 -1.0175  1.1165 -0.8632
 9981TIP3   OH251357   4.267   5.248   6.283  0.6670 -0.1711 -0.0611
 9981TIP3    H151358   4.210   5.175   6.309  1.4807 -0.8906 -0.2102
 9981TIP3    H251359   4.209   5.311   6.241  0.1300 -1.3302 -1.1303
 9982TIP3   OH251360   0.977   6.596   2.389 -0.1604  0.4227  0.4405
 9982TIP3    H151361   0.957   6.689   2.382  0.4027  0.5784  0.7930
 9982TIP3    H251362   0.915   6.562   2.454 -1.0619  0.3268 -0.4529
 9983TIP3   OH251363   1.146   1.641   2.690 -0.4274 -0.9543 -0.2465
 9983TIP3    H151364   1.208   1.571   2.668  0.6764 -0.7569  1.9858
 9983TIP3    H251365   1.065   1.595   2.714 -0.9990 -1.2368 -2.4267
 9984TIP3   OH251366   2.575   6.419  15.415  0.1344 -0.6287  0.5148
 9984TIP3    H151367   2.523   6.354  15.367 -0.6642 -0.0609  0.6030
 9984TIP3    H251368   2.632   6.457  15.348  0.1460 -0.9641  0.3315
 9985TIP3   OH251369   5.197   2.681  16.911  0.1518  0.3612  0.3289
 9985TIP3    H151370   5.189   2.770  16.877 -0.4167 -0.1492 -0.9115
 9985TIP3    H251371   5.120   2.635  16.877 -0.1177 -0.3458  1.8110
 9986TIP3   OH251372   1.860   5.559  16.557 -0.0327  0.6525 -0.6668
 9986TIP3    H151373   1.899   5.635  16.599 -0.3287  0.4733 -0.0487
 9986TIP3    H251374   1.859   5.580  16.464  0.8208  0.9729 -0.6095
 9987TIP3   OH251375   1.838   6.512  11.508  0.3207 -0.0424 -0.2846
 9987TIP3    H151376   1.778   6.500  11.434  0.6252 -2.1741 -0.2258
 9987TIP3    H251377   1.908   6.449  11.493  0.3608 -0.5846  1.8537
 9988TIP3   OH251378   5.446   1.205   1.275  0.5681  0.7270  0.7068
 9988TIP3    H151379   5.541   1.199   1.263  0.6748  2.4723  0.4171
 9988TIP3    H251380   5.414   1.248   1.195 -0.4726  0.1821  0.8046
 9989TIP3   OH251381   6.756   3.349   0.690 -0.4849  0.1262 -0.4950
 9989TIP3    H151382   6.774   3.255   0.685  0.1470  0.2416 -0.3801
 9989TIP3    H251383   6.662   3.354   0.708 -0.6049 -0.4768 -0.9118
 9990TIP3   OH251384   4.685   0.255   3.167  0.5175 -0.7500  0.0685
 9990TIP3    H151385   4.693   0.181   3.227  1.8748  0.3756  1.3757
 9990TIP3    H251386   4.764   0.251   3.113  0.9271  0.0570  0.5763
 9991TIP3   OH251387   5.441   1.181   0.205 -0.3230  0.2993 -0.0804
 9991TIP3    H151388   5.495   1.251   0.168 -1.9334  2.0352  0.6870
 9991TIP3    H251389   5.355   1.192   0.163 -1.1094 -0.0788  1.3734
 9992TIP3   OH251390   3.227   2.265   2.787 -0.1131  0.4178 -0.2662
 9992TIP3    H151391   3.247   2.323   2.713  0.1503  0.4120 -0.2002
 9992TIP3    H251392   3.180   2.191   2.747  2.2729 -0.8723 -0.8600
 9993TIP3   OH251393   6.338   0.191   5.064 -0.5745 -0.0349 -0.3741
 9993TIP3    H151394   6.333   0.117   5.004 -0.4465 -0.5484  0.2438
 9993TIP3    H251395   6.374   0.155   5.144  0.9366  1.0107 -0.5446
 9994TIP3   OH251396   5.717   0.127  10.809 -0.1238  0.5691  0.4047
 9994TIP3    H151397   5.708   0.209  10.858 -1.6388  0.0608  1.0442
 9994TIP3    H251398   5.629   0.089  10.811  0.3770 -0.6858 -0.5753
 9995TIP3   OH251399   4.819   5.116   1.892 -0.0166 -0.1621  0.4109
 9995TIP3    H151400   4.821   5.185   1.825  0.3541  0.0710  0.6585
 9995TIP3    H251401   4.742   5.064   1.870  0.0630 -0.0481 -0.1614
 9996TIP3   OH251402   4.250   6.442  15.949 -0.1819 -0.0668 -0.4165
 9996TIP3    H151403   4.345   6.451  15.958 -0.1321 -0.2743 -0.7233
 9996TIP3    H251404   4.227   6.502  15.878 -0.4680  0.9863  0.5360
 9997TIP3   OH251405   4.594   0.796  17.098 -0.1101  0.2542  0.2005
 9997TIP3    H151406   4.633   0.802  17.186 -1.1071  0.5774  0.6398
 9997TIP3    H251407   4.508   0.757  17.113  0.6297 -2.0150 -0.9442
 9998TIP3   OH251408   0.109   1.692  15.765  0.1871 -0.2475  0.1486
 9998TIP3    H151409   0.078   1.747  15.836 -0.3193  1.1693 -1.1149
 9998TIP3    H251410   0.201   1.674  15.786 -0.1973 -0.6045  1.5788
 9999TIP3   OH251411   1.815   2.862  17.197  0.6178  0.3566 -0.1658
 9999TIP3    H151412   1.767   2.857  17.279  0.9862 -1.0666 -0.0107
 9999TIP3    H251413   1.757   2.823  17.132  0.5808  0.9071 -0.4713
10000TIP3   OH251414   4.484   1.924  13.541  0.0527 -0.5315  0.3210
10000TIP3    H151415   4.413   1.953  13.598 -0.7004 -3.3910  0.9992
10000TIP3    H251416   4.554   1.900  13.602  0.4507 -0.6011 -0.1616
10001TIP3   OH251417   1.038   2.024  12.546  0.1698  0.3549  0.7158
10001TIP3    H151418   1.106   1.962  12.522  0.6915  1.1449  0.1174
10001TIP3    H251419   0.962   1.969  12.569  1.1560 -0.5531  1.9605
10002TIP3   OH251420   5.106   3.482  14.710  0.1274 -0.2483  0.1868
10002TIP3    H151421   5.200   3.474  14.727  0.2720 -0.0723 -0.5303
10002TIP3    H251422   5.100   3.510  14.619 -0.6428 -0.9795  0.0064
10003TIP3   OH251423   3.197   2.934   3.403  0.4992  0.2906  0.0973
10003TIP3    H151424   3.188   2.909   3.312  1.4785 -0.6267  0.2331
10003TIP3    H251425   3.196   2.851   3.451 -0.9186  0.8112  1.0117
10004TIP3   OH251426   5.302   2.755  16.571 -0.2365  0.9056  0.2701
10004TIP3    H151427   5.264   2.806  16.643  0.6496 -0.2654  1.6403
10004TIP3    H251428   5.388   2.795  16.557 -1.3708  2.7701 -1.9807
10005TIP3   OH251429   1.447   0.680   5.966 -1.0189 -0.0436  0.0168
10005TIP3    H151430   1.510   0.614   5.994 -0.5600 -0.0887 -1.0844
10005TIP3    H251431   1.420   0.724   6.047 -1.1899 -1.4475  0.7385
10006TIP3   OH251432   4.277   6.456   4.656  0.4756  0.1170 -0.0353
10006TIP3    H151433   4.266   6.445   4.561 -0.9273 -0.5890  0.1791
10006TIP3    H251434   4.273   6.550   4.669  0.4128  0.2095 -0.6583
10007TIP3   OH251435   6.121   5.546  14.587  0.1037 -0.1956  0.5711
10007TIP3    H151436   6.128   5.583  14.675  0.2965 -0.4812  0.6754
10007TIP3    H251437   6.179   5.600  14.534 -0.8750  0.7091  0.3729
10008TIP3   OH251438   6.728   1.660  16.346 -0.0772  0.3586 -0.0925
10008TIP3    H151439   6.738   1.754  16.330  0.3836  0.1991 -0.7769
10008TIP3    H251440   6.639   1.651  16.379 -0.2154  1.0039 -0.2774
10009TIP3   OH251441   1.159   0.805  11.469 -0.3164 -0.4248  0.3984
10009TIP3    H151442   1.094   0.826  11.402  1.2987 -0.3017 -1.1960
10009TIP3    H251443   1.180   0.889  11.510 -0.1860 -0.2529 -0.0181
10010TIP3   OH251444   3.687   4.596   0.880  0.3123  0.0554 -0.5145
10010TIP3    H151445   3.756   4.588   0.814 -0.1650  0.3984 -1.0597
10010TIP3    H251446   3.662   4.688   0.876 -1.4921 -0.4415 -1.6551
10011TIP3   OH251447   4.123   3.973  14.114 -0.1620  0.1835 -0.1583
10011TIP3    H151448   4.057   4.042  14.112  1.8980  2.3492  1.4425
10011TIP3    H251449   4.194   4.006  14.059  0.6313 -0.9380  0.1500
10012TIP3   OH251450   1.709   4.366   3.620  0.2621 -0.6947  0.6766
10012TIP3    H151451   1.682   4.441   3.673  1.7539 -0.2615  0.8816
10012TIP3    H251452   1.729   4.403   3.534 -0.5729 -1.1380  0.2756
10013TIP3   OH251453   3.888   5.427   4.212 -0.2226  0.5919 -0.1353
10013TIP3    H151454   3.797   5.405   4.231  0.3446 -1.6392  0.2449
10013TIP3    H251455   3.887   5.457   4.121 -1.0932 -1.2207 -0.7667
10014TIP3   OH251456   5.897   6.610  13.974 -0.1902 -0.3083 -0.0231
10014TIP3    H151457   5.819   6.614  13.918 -1.0412 -0.2098  1.1290
10014TIP3    H251458   5.869   6.650  14.056  0.7034 -1.4445  0.8594
10015TIP3   OH251459   1.695   6.705  14.165  0.5333 -0.6491 -0.5022
10015TIP3    H151460   1.651   6.700  14.251  1.7191 -3.0583  0.0546
10015TIP3    H251461   1.677   6.794  14.135  1.2482  0.8352  2.8908
10016TIP3   OH251462   0.916   6.214   1.986  0.4305 -0.4229  0.1058
10016TIP3    H151463   0.971   6.280   1.942 -0.4847 -0.1096 -0.6006
10016TIP3    H251464   0.844   6.199   1.925  0.3330 -1.6824  0.5131
10017TIP3   OH251465   0.781   3.665   4.941  0.5437 -0.1832  0.4566
10017TIP3    H151466   0.799   3.682   5.034 -0.8381  2.7152  0.3093
10017TIP3    H251467   0.850   3.604   4.914  1.3312 -0.6653  3.2256
10018TIP3   OH251468   2.440   5.268  11.115 -0.3495 -0.3894 -0.2224
10018TIP3    H151469   2.498   5.226  11.179  0.0463  0.8318  0.2491
10018TIP3    H251470   2.461   5.225  11.032  0.3861 -0.7891  0.1592
10019TIP3   OH251471   1.608   4.157  13.052  0.2218  0.1720 -0.1648
10019TIP3    H151472   1.647   4.200  13.128 -0.1489 -0.1952  0.2387
10019TIP3    H251473   1.542   4.098  13.089 -0.0988  0.1363 -0.7812
10020TIP3   OH251474   3.597   1.397   5.992  0.6805  0.0658  0.3548
10020TIP3    H151475   3.596   1.451   6.072 -1.1758 -0.0415  0.4351
10020TIP3    H251476   3.505   1.386   5.969  1.1828 -0.0978 -1.7038
10021TIP3   OH251477   2.481   1.139  12.654  0.1967 -0.0322  0.1746
10021TIP3    H151478   2.556   1.089  12.622  0.6337  2.3265 -2.9922
10021TIP3    H251479   2.517   1.224  12.677 -0.9097 -0.2118  2.9515
10022TIP3   OH251480   3.342   2.493  14.638 -0.4156 -0.0065 -0.1662
10022TIP3    H151481   3.425   2.526  14.672  0.2302 -2.7044  1.1580
10022TIP3    H251482   3.295   2.571  14.609  0.9847  2.0170  2.5448
10023TIP3   OH251483   4.610   5.207  17.216  0.0080 -0.9560  0.0705
10023TIP3    H151484   4.654   5.213  17.131 -2.1838  3.9253 -1.0470
10023TIP3    H251485   4.522   5.174  17.195 -0.9994  1.5336  0.0478
10024TIP3   OH251486   6.760   3.601   1.089 -1.0814  0.0841 -0.7668
10024TIP3    H151487   6.714   3.521   1.063 -0.9109 -0.9075  1.7264
10024TIP3    H251488   6.753   3.603   1.184  2.5882  0.7558 -0.3632
10025TIP3   OH251489   1.102   3.825   4.742 -0.0820 -0.2194  0.0652
10025TIP3    H151490   1.116   3.920   4.745 -1.3086 -0.0536  1.9732
10025TIP3    H251491   1.010   3.815   4.719 -0.5493 -0.8332  2.0124
10026TIP3   OH251492   2.180   3.545   2.710 -0.2460  0.2982  0.2267
10026TIP3    H151493   2.169   3.612   2.641  1.1940  0.8428  0.4894
10026TIP3    H251494   2.091   3.514   2.727 -0.7772  1.0566 -0.9900
10027TIP3   OH251495   0.911   5.127   0.011  0.7802 -0.4067  0.0147
10027TIP3    H151496   1.004   5.109  -0.005  0.5655 -2.4441  0.7349
10027TIP3    H251497   0.898   5.103   0.103 -0.1956  1.1364  0.2944
10028TIP3   OH251498   2.028   2.334  12.239 -0.3152  0.1213 -0.0212
10028TIP3    H151499   2.072   2.330  12.324  1.5073  0.5962 -0.8712
10028TIP3    H251500   2.025   2.243  12.209  0.5673  0.1273 -0.1552
10029TIP3   OH251501   3.128   6.450  16.214  0.4515 -0.0549  0.1511
10029TIP3    H151502   3.209   6.416  16.176 -0.4342 -1.6698 -0.3893
10029TIP3    H251503   3.081   6.486  16.139  0.7617  1.1215  0.5038
10030TIP3   OH251504   5.875   0.797   2.891 -0.9648 -0.1597  0.0017
10030TIP3    H151505   5.857   0.886   2.921  0.5032  0.1911 -0.1031
10030TIP3    H251506   5.846   0.741   2.963 -0.6671  0.4786  0.6317
10031TIP3   OH251507   4.905   6.472   2.585 -0.0029 -1.0222  0.6596
10031TIP3    H151508   4.873   6.386   2.558  1.2166 -1.2793 -0.0687
10031TIP3    H251509   4.880   6.480   2.677 -2.1491 -1.1597  0.1486
10032TIP3   OH251510   5.125   4.285   3.236  0.2528  0.5897  0.2255
10032TIP3    H151511   5.088   4.359   3.285 -1.5803  0.4714 -0.8616
10032TIP3    H251512   5.153   4.324   3.153 -0.1594  0.1769 -0.1110
10033TIP3   OH251513   3.470   1.472   0.605  0.1942  0.0100 -0.1022
10033TIP3    H151514   3.411   1.411   0.561  1.5531 -1.5798  0.1651
10033TIP3    H251515   3.422   1.554   0.608 -1.0508 -0.5779 -2.0174
10034TIP3   OH251516   0.235   0.106  15.568 -0.4608  0.0791 -0.2366
10034TIP3    H151517   0.216   0.199  15.563 -1.6288 -0.1311 -0.0170
10034TIP3    H251518   0.200   0.069  15.486 -1.1292 -0.3447  0.2341
10035TIP3   OH251519   3.241   0.266  16.382  0.4848  0.4936 -0.2728
10035TIP3    H151520   3.252   0.189  16.326  0.2225  1.1358 -1.2513
10035TIP3    H251521   3.147   0.272  16.396  0.4707  0.8282 -0.4938
10036TIP3   OH251522   1.984   1.599   2.522 -0.6218  0.5726 -0.0665
10036TIP3    H151523   1.944   1.657   2.458  0.3750  1.0831 -0.2525
10036TIP3    H251524   2.078   1.613   2.511 -0.4298  0.4411  1.3046
10037TIP3   OH251525   2.887   0.580   5.345 -0.2627 -0.5220  0.5820
10037TIP3    H151526   2.902   0.663   5.301  1.1160 -1.5258 -0.9580
10037TIP3    H251527   2.902   0.514   5.278 -0.5313 -2.0493  1.9522
10038TIP3   OH251528   2.874   1.290   2.630  0.7166  0.0639 -0.1092
10038TIP3    H151529   2.865   1.361   2.693  1.7141  0.3622 -0.2826
10038TIP3    H251530   2.961   1.302   2.592  2.0088 -2.7072  1.6491
10039TIP3   OH251531   3.475   4.549  14.310  0.5593 -0.0267 -0.5739
10039TIP3    H151532   3.514   4.524  14.394 -0.5992 -1.8139 -0.5164
10039TIP3    H251533   3.391   4.589  14.334  0.0998 -0.7978 -0.8851
10040TIP3   OH251534   6.132   2.611  15.382 -0.1901  0.2069 -0.2655
10040TIP3    H151535   6.158   2.635  15.293  1.7602  0.6647  0.3763
10040TIP3    H251536   6.108   2.693  15.424 -2.5223 -0.1637 -0.7262
10041TIP3   OH251537   5.140   3.402  13.954 -0.4281 -0.1280  0.5178
10041TIP3    H151538   5.113   3.489  13.924 -0.0459 -0.6055 -1.3714
10041TIP3    H251539   5.135   3.347  13.875  0.4808 -1.5431  1.4001
10042TIP3   OH251540   2.723   1.177  12.033  0.2429 -0.3494 -0.0830
10042TIP3    H151541   2.806   1.153  12.076 -0.5770  0.3519  2.0363
10042TIP3    H251542   2.657   1.161  12.100 -1.6432 -2.6470 -2.2987
10043TIP3   OH251543   2.092   4.549   0.162  0.2134 -0.0844  0.3356
10043TIP3    H151544   2.091   4.473   0.220  2.6209 -0.7983 -0.4417
10043TIP3    H251545   2.093   4.625   0.222  0.2692 -0.7163  1.1564
10044TIP3   OH251546   6.339   0.356   1.891  0.0753 -0.1465 -0.0202
10044TIP3    H151547   6.301   0.272   1.918  1.4082 -0.6513  0.3390
10044TIP3    H251548   6.284   0.384   1.818  0.0051 -1.6680 -0.5857
10045TIP3   OH251549   5.976   4.704   5.536  0.3909 -0.0687 -0.0477
10045TIP3    H151550   6.020   4.760   5.472 -0.6125  1.4668  0.5370
10045TIP3    H251551   6.045   4.648   5.571  2.1505  2.7285  1.3821
10046TIP3   OH251552   5.919   4.753  16.287 -0.4969 -0.1013  0.0517
10046TIP3    H151553   5.878   4.685  16.234  0.5094 -0.3069 -0.4853
10046TIP3    H251554   5.845   4.803  16.323 -1.2577 -1.4370  0.4302
10047TIP3   OH251555   4.570   4.174   3.093 -0.3558  0.0474 -0.0803
10047TIP3    H151556   4.583   4.230   3.017  3.6938 -0.9006 -0.2946
10047TIP3    H251557   4.648   4.186   3.146 -1.4505 -1.9541  2.1990
10048TIP3   OH251558   3.382   4.048  16.689 -0.2936 -0.0079  0.2793
10048TIP3    H151559   3.472   4.022  16.666 -0.6384 -0.0610 -1.0384
10048TIP3    H251560   3.393   4.105  16.765  0.9966  1.2194 -0.7799
10049TIP3   OH251561   0.387   2.017   4.172 -0.3371 -0.1602  1.0067
10049TIP3    H151562   0.333   2.078   4.122  0.4143 -0.1229  0.2086
10049TIP3    H251563   0.476   2.032   4.140 -0.2412 -2.4025 -0.0391
10050TIP3   OH251564   0.132   4.198   1.223 -0.8655 -0.4543  0.7098
10050TIP3    H151565   0.219   4.192   1.185 -0.3174  0.7989  1.7108
10050TIP3    H251566   0.080   4.244   1.157 -0.9278 -1.6793 -0.1159
10051TIP3   OH251567   6.284   6.029   1.500  0.4014 -0.3120  0.5703
10051TIP3    H151568   6.298   6.042   1.406  0.8934 -1.2040  0.5069
10051TIP3    H251569   6.325   6.104   1.542  0.7088 -0.2113  0.0947
10052TIP3   OH251570   6.512   0.905   2.371  0.3765  0.4770 -0.4783
10052TIP3    H151571   6.434   0.850   2.385 -0.1830  1.4625  0.4231
10052TIP3    H251572   6.536   0.934   2.459  0.9245  1.3181 -0.8996
10053TIP3   OH251573   4.154   1.601   3.469 -0.7105  0.2881 -0.4703
10053TIP3    H151574   4.133   1.574   3.379 -0.3710  0.8813 -0.7334
10053TIP3    H251575   4.144   1.521   3.521  1.2178 -0.6027 -1.3700
10054TIP3   OH251576   1.635   5.006  14.212  0.2177  0.0803 -0.4064
10054TIP3    H151577   1.613   5.085  14.163  0.9115 -0.0553 -0.9463
10054TIP3    H251578   1.629   5.033  14.304 -1.3357  0.2648 -0.5330
10055TIP3   OH251579   5.981   0.942  14.326  0.4311 -0.0068 -0.2833
10055TIP3    H151580   5.898   0.988  14.333 -0.3122 -1.3928  0.5091
10055TIP3    H251581   5.967   0.859  14.372  2.1810 -0.3811 -0.3296
10056TIP3   OH251582   1.993   2.102  11.821 -0.1506 -0.1458 -0.0136
10056TIP3    H151583   1.920   2.041  11.830  0.7135 -1.5504 -1.7291
10056TIP3    H251584   2.069   2.054  11.856  0.1469  0.8805  0.7847
10057TIP3   OH251585   4.756   6.480   4.286 -0.3782  0.0530  0.4898
10057TIP3    H151586   4.830   6.440   4.241  0.0927 -0.6090  1.7762
10057TIP3    H251587   4.783   6.483   4.378 -1.2122  1.5395  0.7142
10058TIP3   OH251588   2.680   0.828  15.648 -0.3477 -0.4121 -0.0451
10058TIP3    H151589   2.694   0.916  15.615 -0.5731 -0.9238 -1.6065
10058TIP3    H251590   2.753   0.777  15.612 -0.4901 -0.9607  0.4285
10059TIP3   OH251591   4.104   3.482   5.598  0.1728 -0.4894  0.0754
10059TIP3    H151592   4.092   3.566   5.644  1.1370  1.6834 -3.2831
10059TIP3    H251593   4.015   3.455   5.575 -0.2495 -1.1345  2.2205
10060TIP3   OH251594   6.500   3.759   3.545 -0.3713 -0.2336 -0.2596
10060TIP3    H151595   6.409   3.765   3.575 -0.5165 -0.0942 -0.7251
10060TIP3    H251596   6.503   3.813   3.466 -0.4202 -2.0049 -1.5311
10061TIP3   OH251597   5.660   2.159   2.220  0.2063 -0.2036 -0.0427
10061TIP3    H151598   5.666   2.125   2.309 -0.7533 -0.4313 -0.0535
10061TIP3    H251599   5.631   2.084   2.167  1.2451 -0.2013 -0.6417
10062TIP3   OH251600   2.594   5.847  12.613 -0.0423 -0.3794  0.2217
10062TIP3    H151601   2.510   5.800  12.612  1.4912 -3.4386  1.9039
10062TIP3    H251602   2.659   5.780  12.592  2.1510  1.6225  0.2196
10063TIP3   OH251603   4.928   4.990  10.614 -0.0132 -0.1706 -0.1773
10063TIP3    H151604   4.904   4.949  10.697 -1.6059  1.4966  0.2240
10063TIP3    H251605   5.002   4.938  10.583 -0.2003 -1.6210  1.6407
10064TIP3   OH251606   2.643   1.962   1.659  0.8892  0.6044  0.0320
10064TIP3    H151607   2.561   2.011   1.667  0.0664 -0.4234 -1.4433
10064TIP3    H251608   2.674   1.951   1.748 -2.0572 -1.3626  0.9470
10065TIP3   OH251609   2.392   4.085   3.920  0.8622  0.1152  0.5016
10065TIP3    H151610   2.422   4.062   3.832  0.5419  1.1262  0.1197
10065TIP3    H251611   2.347   4.006   3.951 -1.2003  0.5200 -1.2170
10066TIP3   OH251612   6.577   4.631   4.658  0.1403 -0.0469 -0.0160
10066TIP3    H151613   6.574   4.722   4.630 -1.6330  0.5825  1.9676
10066TIP3    H251614   6.613   4.634   4.747 -1.3013 -1.0450  0.6610
10067TIP3   OH251615   1.453   1.620  12.269  0.2053  0.1964 -0.0165
10067TIP3    H151616   1.544   1.650  12.262  0.6708 -1.1116  0.2090
10067TIP3    H251617   1.457   1.528  12.245 -1.2608  0.4012 -1.1449
10068TIP3   OH251618   0.875   3.104  16.744 -0.1667  0.3610 -0.7155
10068TIP3    H151619   0.943   3.172  16.743  0.0879  0.1110 -0.6249
10068TIP3    H251620   0.828   3.115  16.662  0.0301  0.4932 -0.8090
10069TIP3   OH251621   3.870   6.392  14.166  0.0755  0.2406 -0.1456
10069TIP3    H151622   3.937   6.327  14.187 -0.8584 -0.7315 -0.0928
10069TIP3    H251623   3.812   6.348  14.104 -1.9265  0.1235  1.6679
10070TIP3   OH251624   4.028   0.153   3.185  0.4773 -0.3647 -0.0273
10070TIP3    H151625   4.070   0.140   3.270  0.1851 -2.6391 -0.1662
10070TIP3    H251626   3.962   0.221   3.200  0.7243 -0.4330  1.4512
10071TIP3   OH251627   2.952   2.302   5.835  0.1588  0.0555  0.1419
10071TIP3    H151628   2.915   2.303   5.746 -0.8845 -0.1222  0.5634
10071TIP3    H251629   2.930   2.387   5.871  3.2495  1.3646 -0.7967
10072TIP3   OH251630   3.645   3.228   2.903 -0.3090  0.6592 -0.2656
10072TIP3    H151631   3.581   3.172   2.858  1.7396 -1.2108 -1.0290
10072TIP3    H251632   3.647   3.308   2.851 -0.5502 -0.0884 -1.4675
10073TIP3   OH251633   5.221   4.263   3.514  0.0806 -0.9018  0.2648
10073TIP3    H151634   5.168   4.250   3.436  0.6383  0.6108 -0.4262
10073TIP3    H251635   5.311   4.268   3.481  0.4099 -1.0926  1.1067
10074TIP3   OH251636   0.244   5.640  13.029  0.1661  0.2365  0.1103
10074TIP3    H151637   0.309   5.698  13.067  2.0291 -0.7501 -1.4259
10074TIP3    H251638   0.284   5.608  12.948 -0.7915 -3.0740  0.7988
10075TIP3   OH251639   6.350   6.714   4.944 -0.5182  0.7469 -0.2527
10075TIP3    H151640   6.378   6.638   4.995 -1.9613 -0.0446 -0.5658
10075TIP3    H251641   6.327   6.677   4.858 -2.3831  1.3187 -0.0367
10076TIP3   OH251642   3.112   1.956   5.685  0.1626 -0.6167 -0.2289
10076TIP3    H151643   3.194   1.939   5.639  0.3957 -0.5247  0.1485
10076TIP3    H251644   3.129   2.035   5.737 -0.4609 -0.0510 -0.8607
10077TIP3   OH251645   5.106   3.077  11.601 -0.0694  0.2865 -0.1254
10077TIP3    H151646   5.057   3.027  11.667  2.0962 -1.1766  0.5255
10077TIP3    H251647   5.168   3.128  11.653 -0.2189  1.3225 -0.9478
10078TIP3   OH251648   6.520   6.011  17.072  0.4254  0.3180 -0.3024
10078TIP3    H151649   6.512   5.953  16.996 -0.4469 -0.3345  0.2728
10078TIP3    H251650   6.467   5.970  17.140  0.8359  1.1242  0.5335
10079TIP3   OH251651   4.585   6.302   1.923 -0.3839  0.2466 -0.5483
10079TIP3    H151652   4.587   6.392   1.954  0.2659  0.4629 -1.1963
10079TIP3    H251653   4.589   6.309   1.827 -3.1811 -0.3627 -0.8088
10080TIP3   OH251654   6.227   4.239  14.479 -0.4238  0.0183 -0.3152
10080TIP3    H151655   6.286   4.283  14.418 -0.4338 -1.0845 -1.1603
10080TIP3    H251656   6.205   4.156  14.435 -1.3782 -0.2704  0.6663
10081TIP3   OH251657   2.920   0.084  16.909 -0.5723  0.9549 -0.1208
10081TIP3    H151658   2.919   0.027  16.832  1.1701 -0.6170  0.9308
10081TIP3    H251659   2.930   0.024  16.983 -1.6308  2.4609  1.2981
10082TIP3   OH251660   1.527   5.057  13.693 -0.0078 -0.0930  0.4252
10082TIP3    H151661   1.621   5.041  13.695  0.0085 -0.1098 -0.3051
10082TIP3    H251662   1.504   5.059  13.600 -1.1164 -2.5336  0.5497
10083TIP3   OH251663   6.680   2.962  16.314 -0.2396 -0.0126  0.8592
10083TIP3    H151664   6.586   2.969  16.332 -0.7282  0.0468 -1.4536
10083TIP3    H251665   6.698   3.029  16.249  0.9456 -1.3677 -0.2985
10084TIP3   OH251666   3.737   0.270   0.358  0.5824 -0.0333  0.2914
10084TIP3    H151667   3.742   0.191   0.412 -0.4342  0.2114  0.7688
10084TIP3    H251668   3.821   0.274   0.314  1.0952 -0.7472  1.1666
10085TIP3   OH251669   5.941   0.392  12.023 -1.0509  0.5587 -0.7585
10085TIP3    H151670   5.848   0.410  12.008 -0.9564 -0.2282 -2.6035
10085TIP3    H251671   5.987   0.461  11.975 -0.6547  1.0647  0.3129
10086TIP3   OH251672   1.726   4.711  13.910  0.0684  0.1998  0.5430
10086TIP3    H151673   1.771   4.627  13.896  1.0729  1.1759 -3.0832
10086TIP3    H251674   1.642   4.687  13.949 -0.4813 -2.7739 -2.0828
10087TIP3   OH251675   0.800   4.041   3.703  0.4385 -0.5034 -0.0451
10087TIP3    H151676   0.837   4.117   3.657  0.1704 -0.1462  0.3164
10087TIP3    H251677   0.846   3.966   3.668 -1.4314 -0.5324 -2.7238
10088TIP3   OH251678   0.137   6.086   5.945  0.1009 -0.7385 -0.6496
10088TIP3    H151679   0.183   6.082   5.862  0.7605  0.5751 -0.3811
10088TIP3    H251680   0.104   6.176   5.950 -1.1658 -1.2042 -0.1283
10089TIP3   OH251681   5.734   0.054   3.561 -0.4624 -0.1266 -0.1493
10089TIP3    H151682   5.665   0.004   3.605  0.9143 -0.5016  1.7424
10089TIP3    H251683   5.761   0.120   3.626  1.7190 -0.7445 -0.3441
10090TIP3   OH251684   0.230   5.353  14.506  0.2185  0.1839 -0.3065
10090TIP3    H151685   0.223   5.303  14.587 -1.9965 -1.3906 -1.3479
10090TIP3    H251686   0.318   5.335  14.473 -0.0134 -1.9098  0.0997
10091TIP3   OH251687   0.497   2.148  17.175  0.0736  0.0915  0.0202
10091TIP3    H151688   0.469   2.230  17.135  0.2445 -0.0376 -0.3706
10091TIP3    H251689   0.587   2.136  17.144 -0.7427 -1.5090 -2.0140
10092TIP3   OH251690   4.747   5.125  11.962  0.5615 -0.1893  0.0049
10092TIP3    H151691   4.768   5.063  11.892  1.8793  0.0090  0.1883
10092TIP3    H251692   4.711   5.201  11.916 -1.0593 -1.0655 -0.2201
10093TIP3   OH251693   5.894   0.537  12.969  0.1815  0.3829  0.2790
10093TIP3    H151694   5.820   0.597  12.977 -0.2597  0.0960 -1.4229
10093TIP3    H251695   5.903   0.499  13.057 -1.4832  0.6341  0.5820
10094TIP3   OH251696   2.432   1.206  14.911 -0.1140  0.1713  0.4146
10094TIP3    H151697   2.415   1.293  14.948  0.1704  0.4660 -0.1476
10094TIP3    H251698   2.526   1.202  14.899 -0.3484  0.9885 -2.4321
10095TIP3   OH251699   5.027   0.869   2.795 -0.4663 -0.1355 -0.6236
10095TIP3    H151700   4.966   0.943   2.792 -0.4016 -0.1272 -2.1223
10095TIP3    H251701   5.010   0.820   2.715 -0.6248 -1.8770  0.4244
10096TIP3   OH251702   5.655   2.406  15.235  0.5959 -0.4261  0.2483
10096TIP3    H151703   5.561   2.404  15.255  0.7979  0.0888  1.2844
10096TIP3    H251704   5.668   2.330  15.178 -0.6513  0.1525 -0.8867
10097TIP3   OH251705   3.580   6.692   1.922 -0.5491 -0.0166 -0.2297
10097TIP3    H151706   3.663   6.653   1.948 -0.5571  0.2149  0.1564
10097TIP3    H251707   3.563   6.758   1.989 -1.2851 -0.3924 -0.0428
10098TIP3   OH251708   5.287   3.391   3.719  0.4482  0.4863 -0.2824
10098TIP3    H151709   5.191   3.384   3.714  0.2605  2.1672  0.0402
10098TIP3    H251710   5.311   3.337   3.794 -0.0178 -1.3906 -1.4359
10099TIP3   OH251711   5.572   1.534   4.857 -0.2929 -0.4566 -0.2763
10099TIP3    H151712   5.597   1.625   4.873 -0.7456 -0.6103  1.4518
10099TIP3    H251713   5.598   1.487   4.936 -1.5123 -1.5301 -0.4748
10100TIP3   OH251714   6.446   5.398   6.254  0.1141  0.0627 -0.1719
10100TIP3    H151715   6.447   5.438   6.167  1.1008 -0.9522 -0.6643
10100TIP3    H251716   6.357   5.367   6.265 -1.2224  3.7707  0.9553
10101TIP3   OH251717   3.929   1.939   2.658  0.0857 -0.1999  0.2576
10101TIP3    H151718   3.896   1.871   2.600 -0.6225  1.3343 -1.2307
10101TIP3    H251719   3.852   1.974   2.702  0.3300  0.1914  0.3867
10102TIP3   OH251720   5.477   1.839  13.409 -0.2057 -0.2038 -0.0999
10102TIP3    H151721   5.540   1.908  13.385 -1.0572  0.3650 -0.7425
10102TIP3    H251722   5.453   1.859  13.500 -0.7629  0.6073 -0.4154
10103TIP3   OH251723   6.536   3.256   3.308 -0.4996 -0.0070  0.8475
10103TIP3    H151724   6.627   3.281   3.317  0.0137 -0.6066 -1.9565
10103TIP3    H251725   6.537   3.180   3.251 -2.7816  0.2133  0.4069
10104TIP3   OH251726   3.494   4.072  13.197  0.5533  0.0263 -0.0353
10104TIP3    H151727   3.520   4.157  13.163  2.6549 -0.0982  1.0890
10104TIP3    H251728   3.415   4.088  13.247  1.0499  1.3719  0.3472
10105TIP3   OH251729   0.597   4.546  14.365  0.1680  0.2637 -0.2971
10105TIP3    H151730   0.591   4.458  14.404  0.8195  0.4594  0.2579
10105TIP3    H251731   0.506   4.572  14.353 -0.0506 -0.0023  0.6633
10106TIP3   OH251732   4.723   1.265   2.886  0.5678 -0.1696 -0.3898
10106TIP3    H151733   4.755   1.317   2.813 -0.4758 -0.4473 -1.0682
10106TIP3    H251734   4.761   1.178   2.872 -1.1227 -0.7549 -1.7079
10107TIP3   OH251735   1.695   0.872   1.169  0.1361 -0.2738  0.4652
10107TIP3    H151736   1.619   0.926   1.187  0.5789  0.9103 -1.0825
10107TIP3    H251737   1.660   0.783   1.163 -0.6707 -0.1702  2.5397
10108TIP3   OH251738   3.507   4.784  16.396  0.3559 -0.7674 -0.2528
10108TIP3    H151739   3.460   4.820  16.471  0.5080 -3.1452  1.0946
10108TIP3    H251740   3.478   4.693  16.391  1.6568 -1.1450 -2.0233
10109TIP3   OH251741   2.972   6.440  13.804 -0.2780  0.1303  0.3749
10109TIP3    H151742   2.910   6.482  13.744 -0.4969 -1.3947 -0.5229
10109TIP3    H251743   3.057   6.451  13.762 -0.5763 -2.0609 -0.9797
10110TIP3   OH251744   0.078   0.487  14.786  0.3070 -0.3707  0.2433
10110TIP3    H151745   0.136   0.511  14.858 -1.1589  0.2174  1.3026
10110TIP3    H251746   0.132   0.492  14.708  1.9078 -0.8259  1.2741
10111TIP3   OH251747   3.732   3.676   2.578 -0.0483 -0.1215 -0.0403
10111TIP3    H151748   3.655   3.731   2.564 -0.1955 -0.7650 -2.0694
10111TIP3    H251749   3.751   3.639   2.492  2.0974 -0.5640  0.5743
10112TIP3   OH251750   4.765   6.748  13.185 -0.2778 -0.3620 -0.1141
10112TIP3    H151751   4.790   6.746  13.277 -0.0408  0.0966 -0.1659
10112TIP3    H251752   4.670   6.760  13.186 -0.4848 -1.8369  0.0789
10113TIP3   OH251753   4.810   5.286  16.612 -0.1520  0.5164 -0.2428
10113TIP3    H151754   4.848   5.338  16.542  2.3961 -0.7577  0.0971
10113TIP3    H251755   4.819   5.340  16.690  1.4358  0.0583 -0.0891
10114TIP3   OH251756   4.555   6.516  16.053  0.3030  0.1020 -0.2679
10114TIP3    H151757   4.585   6.584  16.114  3.2487 -1.5001  0.2617
10114TIP3    H251758   4.596   6.538  15.970 -1.1655  0.5259 -0.9293
10115TIP3   OH251759   6.589   1.035   2.125  0.3075  0.2462 -0.0207
10115TIP3    H151760   6.556   1.000   2.208  0.6649 -0.5834 -0.2182
10115TIP3    H251761   6.641   0.963   2.088  1.6820  1.2429 -0.0794
10116TIP3   OH251762   6.699   5.244  13.701  0.7433  0.1925  0.3528
10116TIP3    H151763   6.738   5.252  13.613 -0.5778 -0.0463 -0.2717
10116TIP3    H251764   6.745   5.170  13.741 -0.3365 -1.3197 -1.0782
10117TIP3   OH251765   0.870   5.048   4.526  0.2420 -0.1007  0.0649
10117TIP3    H151766   0.825   5.132   4.537 -0.9264 -0.7840  0.7834
10117TIP3    H251767   0.897   5.024   4.615 -0.0380 -0.7910 -0.0295
10118TIP3   OH251768   4.877   4.234  16.514 -0.9511 -0.2030  0.1082
10118TIP3    H151769   4.805   4.275  16.465 -0.6539  0.1561 -0.0350
10118TIP3    H251770   4.918   4.307  16.561 -0.5831 -0.3822  0.0654
10119TIP3   OH251771   0.557   3.309  15.463  0.0069  0.1051  0.5646
10119TIP3    H151772   0.599   3.394  15.454 -0.0221  0.5353  3.3889
10119TIP3    H251773   0.478   3.327  15.514 -1.0003 -1.3938 -0.3878
10120TIP3   OH251774   1.854   0.660  17.270 -0.3559  0.9257 -0.4268
10120TIP3    H151775   1.947   0.672  17.289 -0.4825 -0.1966  1.1839
10120TIP3    H251776   1.844   0.682  17.178  1.4847  1.1736 -0.5929
10121TIP3   OH251777   0.908   6.749  12.487  0.0042  0.1139  0.0817
10121TIP3    H151778   0.932   6.829  12.533  1.1989  0.3020 -0.8090
10121TIP3    H251779   0.987   6.694  12.493 -0.6880 -0.8887  0.4137
10122TIP3   OH251780   1.357   5.314   2.285 -0.8509 -0.8939 -0.1077
10122TIP3    H151781   1.281   5.358   2.248 -0.3965 -1.1901 -1.4389
10122TIP3    H251782   1.360   5.229   2.240 -0.5064 -1.4384  0.9052
10123TIP3   OH251783   1.089   0.452   3.046 -0.1599 -0.0078 -0.0606
10123TIP3    H151784   1.099   0.506   2.968 -0.7233  0.6624  0.3159
10123TIP3    H251785   1.160   0.481   3.104  0.5437 -0.8299 -0.4961
10124TIP3   OH251786   0.243   4.688  14.853 -0.1574  0.3156  0.0080
10124TIP3    H151787   0.235   4.757  14.919  1.5304  0.4144  0.1322
10124TIP3    H251788   0.182   4.620  14.883 -0.8832  1.1865  0.5716
10125TIP3   OH251789   1.532   6.578  12.410 -0.2384  0.3033 -0.4980
10125TIP3    H151790   1.619   6.544  12.433 -0.1926  0.1054 -0.9607
10125TIP3    H251791   1.513   6.641  12.480 -0.3673 -0.7180  0.4240
10126TIP3   OH251792   0.805   2.875  11.653 -0.4183 -0.4278  0.7182
10126TIP3    H151793   0.726   2.820  11.651 -1.4746  1.0232  0.2411
10126TIP3    H251794   0.853   2.851  11.574 -3.2632  2.5115 -2.2497
10127TIP3   OH251795   4.549   1.588   0.703 -0.2869  0.5889 -0.2569
10127TIP3    H151796   4.513   1.664   0.659  0.6327  0.2721 -1.6215
10127TIP3    H251797   4.631   1.619   0.742 -0.7350  0.6905  0.6163
10128TIP3   OH251798   4.216   5.177  14.152  0.4507 -0.0348  0.0160
10128TIP3    H151799   4.198   5.261  14.193  3.7008  0.4529  0.7759
10128TIP3    H251800   4.234   5.199  14.060 -2.0188 -0.4503 -0.6270
10129TIP3   OH251801   5.126   0.890  14.905 -0.1552 -0.6146  0.4761
10129TIP3    H151802   5.053   0.932  14.861 -0.6667 -2.0522 -0.0911
10129TIP3    H251803   5.201   0.903  14.846 -0.8301 -2.5146 -0.8715
10130TIP3   OH251804   5.371   1.259   5.473 -0.4926 -0.3825 -0.3243
10130TIP3    H151805   5.305   1.201   5.435 -0.6984 -0.5871  0.3373
10130TIP3    H251806   5.452   1.209   5.469 -1.0751 -1.7598  2.4506
10131TIP3   OH251807   2.854   1.902  14.147  0.0784 -0.3753  0.5470
10131TIP3    H151808   2.858   1.874  14.238  0.9822  0.1030  0.6673
10131TIP3    H251809   2.940   1.940  14.130  0.2669 -1.3099 -0.7889
10132TIP3   OH251810   2.941   3.763  16.461 -0.6893 -0.0483  0.8101
10132TIP3    H151811   2.918   3.852  16.436 -0.3728  0.1120  1.0797
10132TIP3    H251812   3.037   3.761  16.457 -0.7345 -0.8807 -0.9055
10133TIP3   OH251813   1.473   5.583   4.085 -0.0937  0.2239  0.5177
10133TIP3    H151814   1.497   5.606   4.175  2.5472  0.2429 -0.1052
10133TIP3    H251815   1.532   5.634   4.031  1.1356 -2.6981 -1.1065
10134TIP3   OH251816   4.018   2.814  13.061 -0.5108 -0.5115  0.0369
10134TIP3    H151817   4.093   2.873  13.066 -0.0177 -1.1691  0.7595
10134TIP3    H251818   3.942   2.871  13.073 -0.0683  0.0271  0.3421
10135TIP3   OH251819   4.052   3.600  13.906 -0.6589  0.8821 -0.0927
10135TIP3    H151820   4.008   3.533  13.854 -2.2478  0.6340  1.4759
10135TIP3    H251821   3.982   3.662  13.930  0.4657  2.2396 -0.1701
10136TIP3   OH251822   2.490   4.496   6.164 -0.0202 -0.1099 -0.5346
10136TIP3    H151823   2.458   4.407   6.150 -0.6960  0.0098  0.1737
10136TIP3    H251824   2.425   4.537   6.221  0.4173  0.7563 -0.6305
10137TIP3   OH251825   0.501   2.944  15.746 -0.6229 -0.5880  0.5301
10137TIP3    H151826   0.472   2.950  15.655  1.8672 -0.3956 -0.3416
10137TIP3    H251827   0.550   2.862  15.750  2.1123  0.9152  0.6967
10138TIP3   OH251828   3.873   5.688  10.838 -0.2772 -0.1693 -0.2011
10138TIP3    H151829   3.857   5.755  10.772  0.6105  0.2544 -0.0000
10138TIP3    H251830   3.786   5.662  10.868 -0.6304  0.7751 -0.4012
10139TIP3   OH251831   5.402   3.033  15.050  0.2796 -0.2937 -0.3733
10139TIP3    H151832   5.375   3.077  15.131  2.8829 -0.2504  0.5606
10139TIP3    H251833   5.388   3.099  14.982  1.0945  0.8597  0.5398
10140TIP3   OH251834   3.475   0.104   5.805 -0.3574  0.2545 -0.1536
10140TIP3    H151835   3.482   0.025   5.858  1.3599 -0.0161 -0.7244
10140TIP3    H251836   3.461   0.072   5.716  0.5767  0.5602 -0.4219
10141TIP3   OH251837   1.168   5.258   4.936 -0.0068 -0.0908  0.1487
10141TIP3    H151838   1.088   5.216   4.969 -1.2643 -0.0489 -2.5818
10141TIP3    H251839   1.140   5.346   4.911  1.5368  0.8295  1.4732
10142TIP3   OH251840   4.720   5.763   5.452  0.0228  0.0434  0.2260
10142TIP3    H151841   4.761   5.700   5.393  0.5846 -1.8960  2.5755
10142TIP3    H251842   4.756   5.744   5.538 -0.9943  2.5780  1.3208
10143TIP3   OH251843   6.007   2.142   0.258 -0.1227 -0.1867  0.0267
10143TIP3    H151844   6.009   2.234   0.233 -0.1355 -0.0242  0.6005
10143TIP3    H251845   6.024   2.142   0.352  0.6328 -0.8311 -0.0947
10144TIP3   OH251846   3.892   5.229  15.792 -0.2320 -0.3278 -0.2275
10144TIP3    H151847   3.822   5.187  15.841 -0.2752 -3.9548 -2.9555
10144TIP3    H251848   3.867   5.217  15.700  2.6276  0.7742 -1.2532
10145TIP3   OH251849   0.834   5.602  11.452  0.5196 -0.4309 -0.2342
10145TIP3    H151850   0.886   5.663  11.504 -1.4436 -0.3240  1.7627
10145TIP3    H251851   0.885   5.521  11.450  1.1242 -0.0938  0.9651
10146TIP3   OH251852   5.335   5.662  16.735 -0.0045 -0.1434  0.0831
10146TIP3    H151853   5.315   5.738  16.681 -0.5422 -1.0356 -1.0124
10146TIP3    H251854   5.254   5.645  16.783  1.2167  2.2341  3.2990
10147TIP3   OH251855   5.848   4.330   5.992 -0.0142 -0.2435  0.1001
10147TIP3    H151856   5.809   4.417   5.996  1.7071  0.5128  2.1162
10147TIP3    H251857   5.874   4.320   5.900 -0.8837  1.0578 -0.3146
10148TIP3   OH251858   5.615   0.266   5.810  0.2535  0.2478  0.0953
10148TIP3    H151859   5.690   0.207   5.806  0.4031  0.4662 -0.4508
10148TIP3    H251860   5.591   0.281   5.719  0.9005  1.8878  0.1648
10149TIP3   OH251861   5.196   2.931  15.412 -0.1016  0.0188 -0.2781
10149TIP3    H151862   5.181   2.837  15.422  1.2701 -0.1128  0.7626
10149TIP3    H251863   5.122   2.961  15.359 -1.1026 -1.4657  0.2109
10150TIP3   OH251864   1.579   3.885   0.611 -0.1693 -0.0658 -0.0428
10150TIP3    H151865   1.666   3.924   0.625  0.5155 -1.2150 -0.8578
10150TIP3    H251866   1.598   3.799   0.573 -1.6530 -0.8399  0.9008
10151TIP3   OH251867   0.413   1.583  12.064 -0.1298  0.3620  0.2692
10151TIP3    H151868   0.398   1.613  11.974 -0.6530 -0.4096  0.0915
10151TIP3    H251869   0.507   1.596  12.078  0.2613 -0.9102 -0.9281
10152TIP3   OH251870   1.648   1.922  11.477 -0.0574  0.0801  0.3383
10152TIP3    H151871   1.630   2.008  11.514  1.1739  0.4093  0.1847
10152TIP3    H251872   1.563   1.877  11.480 -0.3005  0.5722  2.2759
10153TIP3   OH251873   5.969   1.808  16.871 -0.6263  0.0264 -0.0418
10153TIP3    H151874   5.938   1.845  16.954 -1.6156  1.6903 -1.1066
10153TIP3    H251875   5.890   1.792  16.820 -0.0579 -1.4138 -0.5396
10154TIP3   OH251876   1.660   3.342   1.868  0.1496  0.1655  0.0853
10154TIP3    H151877   1.569   3.373   1.876 -0.1145 -0.1299 -1.3574
10154TIP3    H251878   1.700   3.362   1.952 -2.0785 -2.5053  1.9738
10155TIP3   OH251879   4.891   0.690   6.187  0.0030  0.0320 -0.2599
10155TIP3    H151880   4.932   0.695   6.273  1.4224  0.3934 -0.9318
10155TIP3    H251881   4.863   0.599   6.179  0.3554 -0.1330  0.3691
10156TIP3   OH251882   0.378   3.845   6.032  0.1618 -0.1616 -0.3398
10156TIP3    H151883   0.398   3.795   5.953  0.8037  0.6081 -0.6833
10156TIP3    H251884   0.464   3.878   6.061 -0.3051  1.1986 -0.4436
10157TIP3   OH251885   0.208   1.063   0.525 -0.1862  0.3431 -0.5034
10157TIP3    H151886   0.213   1.076   0.619  0.6571 -1.2774 -0.2950
10157TIP3    H251887   0.148   1.132   0.494 -0.0929  1.1918  1.1253
10158TIP3   OH251888   0.140   1.778   5.481  0.6090  0.8692  0.5571
10158TIP3    H151889   0.213   1.806   5.537  0.2198  0.8580  1.0749
10158TIP3    H251890   0.125   1.852   5.422  3.3235 -0.3790 -1.9631
10159TIP3   OH251891   5.110   5.880  11.135 -0.3422  0.2471 -0.0409
10159TIP3    H151892   5.181   5.935  11.169  0.3810 -0.6036 -0.1366
10159TIP3    H251893   5.031   5.933  11.145 -0.2006  0.0458  2.9794
10160TIP3   OH251894   3.184   3.884  11.497  0.7338 -0.3118  0.4373
10160TIP3    H151895   3.139   3.809  11.459 -0.4584  0.2554  0.7110
10160TIP3    H251896   3.270   3.850  11.523 -0.0130 -1.7444  1.1237
10161TIP3   OH251897   3.644   6.651  15.669  0.1269  0.4268 -0.3665
10161TIP3    H151898   3.660   6.733  15.717 -0.4637 -0.8352  2.1841
10161TIP3    H251899   3.549   6.647  15.660 -0.3121 -1.8056  3.3332
10162TIP3   OH251900   6.184   0.195   0.758 -0.6482  0.0850  0.4243
10162TIP3    H151901   6.204   0.156   0.843 -0.7516 -0.0470  0.3892
10162TIP3    H251902   6.144   0.280   0.780 -2.4707 -0.7577  0.5828
10163TIP3   OH251903   6.194   0.432   6.038 -0.3177  0.5209 -0.8588
10163TIP3    H151904   6.175   0.525   6.053 -2.0307  0.2037 -0.7737
10163TIP3    H251905   6.286   0.422   6.060 -0.5475  1.8368  0.9845
10164TIP3   OH251906   1.075   0.073   0.680  0.0244  0.3467 -0.5703
10164TIP3    H151907   1.024   0.151   0.700 -0.7987 -0.1005 -0.8428
10164TIP3    H251908   1.058   0.014   0.754  0.2476  0.2396 -0.6025
10165TIP3   OH251909   5.170   3.682   5.864  0.2651 -0.2462 -0.4472
10165TIP3    H151910   5.241   3.702   5.803 -1.0398  1.0089 -1.6440
10165TIP3    H251911   5.103   3.749   5.845 -0.6868 -0.5725  1.5423
10166TIP3   OH251912   3.929   2.439   1.168  0.2491  0.2254  0.1428
10166TIP3    H151913   3.930   2.360   1.223  0.9969 -1.4457 -2.1154
10166TIP3    H251914   3.843   2.437   1.126  1.1811 -0.9724 -1.9056
10167TIP3   OH251915   4.271   0.695   2.367  0.2206  0.3030 -0.1824
10167TIP3    H151916   4.334   0.658   2.429  0.6310  0.4261 -0.5252
10167TIP3    H251917   4.191   0.707   2.418  0.4105 -0.0564  0.1997
10168TIP3   OH251918   3.764   1.598  15.134  0.3194 -0.5448  0.0611
10168TIP3    H151919   3.721   1.525  15.090 -1.7320  0.0980  0.8710
10168TIP3    H251920   3.697   1.635  15.191  1.9746  0.5395  1.4396
10169TIP3   OH251921   4.946   1.772  16.108  0.4055  0.1287  0.0640
10169TIP3    H151922   4.862   1.727  16.112  0.3506  0.2182 -0.0674
10169TIP3    H251923   4.986   1.740  16.027  0.2032  0.6034 -0.2280
10170TIP3   OH251924   4.495   3.710  15.589  0.5055  0.0162 -0.1681
10170TIP3    H151925   4.532   3.742  15.671  0.1101 -0.3014  0.1416
10170TIP3    H251926   4.560   3.649  15.555  0.8031  0.3746 -0.2425
10171TIP3   OH251927   3.323   0.514  12.162 -0.0187 -0.1023  0.6610
10171TIP3    H151928   3.383   0.543  12.231  0.4144 -0.5822  0.4931
10171TIP3    H251929   3.301   0.424  12.185 -0.4136 -0.0372  0.5421
10172TIP3   OH251930   1.169   0.828  15.720 -0.0149 -0.2271  0.9685
10172TIP3    H151931   1.203   0.788  15.800  1.6878 -0.3982  0.2041
10172TIP3    H251932   1.162   0.755  15.658  1.0230  0.2807  0.2277
10173TIP3   OH251933   2.083   5.401  15.497 -0.0209  0.1743  0.4119
10173TIP3    H151934   2.077   5.496  15.482 -3.3168  0.1462  0.8621
10173TIP3    H251935   2.056   5.362  15.414  1.2065 -0.4090  0.2707
10174TIP3   OH251936   5.597   1.534  11.476  0.3957  0.3268  0.4163
10174TIP3    H151937   5.520   1.542  11.531 -1.8190  0.3681 -2.4508
10174TIP3    H251938   5.632   1.623  11.471 -0.5791  0.7011  0.1394
10175TIP3   OH251939   0.900   5.229  16.114 -0.1909  0.0075  0.1353
10175TIP3    H151940   0.862   5.142  16.120  0.8275 -0.4130  0.6650
10175TIP3    H251941   0.995   5.215  16.118  0.0570  1.0091 -1.3569
10176TIP3   OH251942   4.383   6.160   4.959 -0.3338 -0.1547 -0.0032
10176TIP3    H151943   4.306   6.203   4.922 -0.7412 -0.7409  0.1492
10176TIP3    H251944   4.385   6.074   4.918  1.3841  0.5367 -1.4968
10177TIP3   OH251945   1.869   6.343   2.294  0.3340 -0.3403  0.0059
10177TIP3    H151946   1.951   6.296   2.277 -0.2108 -1.2141 -0.2839
10177TIP3    H251947   1.894   6.435   2.294  1.3676 -0.6051  0.2124
10178TIP3   OH251948   2.055   5.442  12.756  0.1634 -0.3445 -0.3314
10178TIP3    H151949   2.005   5.388  12.695 -0.2145 -1.2167  0.7230
10178TIP3    H251950   2.016   5.424  12.841  1.5374 -0.1616  0.3620
10179TIP3   OH251951   2.192   5.843  13.494  0.4331  0.2722  0.1414
10179TIP3    H151952   2.113   5.892  13.514  0.3806 -0.4541  1.8434
10179TIP3    H251953   2.203   5.783  13.567  0.5755 -2.1967 -1.7708
10180TIP3   OH251954   3.911   3.391  12.722  0.5139  0.3518 -0.2651
10180TIP3    H151955   3.827   3.427  12.749 -0.1994 -0.5502 -1.1949
10180TIP3    H251956   3.956   3.464  12.680 -0.1587  0.6455 -0.4941
10181TIP3   OH251957   3.612   3.269   1.376  0.4113 -0.3578  0.4849
10181TIP3    H151958   3.558   3.274   1.297  0.2208  1.7360  0.6899
10181TIP3    H251959   3.552   3.290   1.447  1.6371  3.7519  0.5771
10182TIP3   OH251960   3.610   1.660   4.206 -0.2058 -0.2170 -1.2278
10182TIP3    H151961   3.662   1.582   4.188  2.8249  1.7601 -1.7942
10182TIP3    H251962   3.605   1.706   4.122 -2.3587  0.0659 -1.0183
10183TIP3   OH251963   5.534   2.844  12.407 -0.8042 -0.4802  0.2544
10183TIP3    H151964   5.566   2.879  12.323 -0.2773  0.2053  0.7280
10183TIP3    H251965   5.477   2.772  12.382 -0.3848 -0.5089 -0.6917
10184TIP3   OH251966   1.120   4.790   0.265  0.4114  0.3626  0.4692
10184TIP3    H151967   1.163   4.818   0.184  0.9242  0.6686  0.8428
10184TIP3    H251968   1.171   4.715   0.294  2.6546  2.4700  2.5057
10185TIP3   OH251969   4.413   0.727   1.846 -0.2461  0.3267 -0.0202
10185TIP3    H151970   4.364   0.798   1.804 -1.3824 -0.7131 -0.5208
10185TIP3    H251971   4.356   0.697   1.917  0.3414  0.0848  0.3552
10186TIP3   OH251972   6.655   1.620  12.358  0.0432 -0.0448  0.0630
10186TIP3    H151973   6.738   1.596  12.317  1.1700  1.1371  1.5168
10186TIP3    H251974   6.628   1.541  12.405  1.4310  0.1309  1.2292
10187TIP3   OH251975   4.003   0.861   3.224 -0.4599 -0.5704  0.0908
10187TIP3    H151976   4.002   0.788   3.162 -2.6785 -1.0350  0.5682
10187TIP3    H251977   4.002   0.820   3.310 -1.0294  0.0082  0.3729
10188TIP3   OH251978   4.107   2.370  12.919  0.2157  0.1523  0.4349
10188TIP3    H151979   4.180   2.396  12.863 -0.3011  0.3468 -0.1500
10188TIP3    H251980   4.128   2.409  13.005  0.4995  0.7090  0.1193
10189TIP3   OH251981   2.073   5.712  13.887  0.3363  0.3794  0.4761
10189TIP3    H151982   2.167   5.728  13.888  0.6372 -1.2134  0.1105
10189TIP3    H251983   2.064   5.619  13.867 -1.2839  0.0955  2.1972
10190TIP3   OH251984   0.347   5.216   1.136 -0.2702 -0.2545  0.4702
10190TIP3    H151985   0.410   5.282   1.165  0.7892 -0.8597 -0.4094
10190TIP3    H251986   0.400   5.148   1.094 -1.4792 -0.9346 -0.0070
10191TIP3   OH251987   1.851   0.733   4.597  0.4753 -0.2229 -0.1840
10191TIP3    H151988   1.829   0.722   4.504  0.4753  0.0181 -0.2127
10191TIP3    H251989   1.840   0.646   4.635  2.8948 -0.9220 -0.9218
10192TIP3   OH251990   5.912   1.469   2.168  0.0978  0.2580 -0.1125
10192TIP3    H151991   5.966   1.416   2.110  0.0979  1.0701 -0.8924
10192TIP3    H251992   5.969   1.491   2.242 -0.1218 -1.3839  0.5764
10193TIP3   OH251993   0.445   3.341   3.053 -0.0809  0.3774 -0.3780
10193TIP3    H151994   0.384   3.358   2.981 -0.8203 -0.7633 -0.0450
10193TIP3    H251995   0.454   3.246   3.055  0.7372  0.4627  0.3817
10194TIP3   OH251996   3.415   1.161  11.292 -0.4708 -0.5912 -0.1038
10194TIP3    H151997   3.385   1.197  11.209  0.1959  0.9963  0.3147
10194TIP3    H251998   3.505   1.133  11.275 -0.0351  0.5278  0.2832
10195TIP3   OH251999   6.534   3.122  14.849 -0.3342 -0.0028  0.1290
10195TIP3    H152000   6.463   3.069  14.885 -0.4952  1.2696  1.8005
10195TIP3    H252001   6.535   3.201  14.902  1.4317  0.6405 -0.7633
10196TIP3   OH252002   1.759   6.727  14.709 -0.3773 -0.5971 -0.0693
10196TIP3    H152003   1.808   6.667  14.765  0.0123  0.2503  0.5133
10196TIP3    H252004   1.776   6.696  14.620  1.2870 -0.2872  0.1088
10197TIP3   OH252005   1.114   1.950   3.359  0.1055  0.1892  0.4537
10197TIP3    H152006   1.202   1.986   3.367 -0.2541  0.8436  1.7305
10197TIP3    H252007   1.056   2.025   3.371 -0.6366 -0.4644  1.0912
10198TIP3   OH252008   0.215   3.105   2.268 -0.3320 -0.1828  0.1521
10198TIP3    H152009   0.250   3.060   2.192 -0.6976 -0.3068  0.0571
10198TIP3    H252010   0.207   3.196   2.241 -1.1260 -0.3510 -0.1923
10199TIP3   OH252011   1.673   4.911   6.713 -0.2045 -0.1181  0.3640
10199TIP3    H152012   1.695   4.824   6.679  0.7644 -0.3987  1.5942
10199TIP3    H252013   1.633   4.893   6.799 -3.0642  0.5249 -0.7329
10200TIP3   OH252014   0.409   4.896  11.596 -0.3010 -0.8526 -0.2754
10200TIP3    H152015   0.331   4.929  11.550 -0.1806  3.0005  1.8547
10200TIP3    H252016   0.374   4.855  11.675 -0.2378 -2.6043 -1.1017
10201TIP3   OH252017   1.477   0.118   0.512 -0.4359  0.3496  0.6056
10201TIP3    H152018   1.408   0.143   0.574  1.0886  2.0394  1.7272
10201TIP3    H252019   1.510   0.034   0.544 -0.0781  0.9093  1.7762
10202TIP3   OH252020   5.388   5.843  13.575  0.1245 -0.3067 -0.0349
10202TIP3    H152021   5.409   5.886  13.658  0.2174 -0.5689  0.0781
10202TIP3    H252022   5.473   5.830  13.532 -0.1024  2.6170 -1.5898
10203TIP3   OH252023   4.758   5.694   2.012  0.5402 -0.1939 -0.3190
10203TIP3    H152024   4.719   5.716   1.927 -2.4506  0.2157  1.0376
10203TIP3    H252025   4.780   5.779   2.051  3.1334 -0.4266 -1.1347
10204TIP3   OH252026   3.464   4.136  16.024 -0.2773 -0.2882  1.2118
10204TIP3    H152027   3.505   4.062  16.070  0.3110  1.0056  2.9047
10204TIP3    H252028   3.421   4.186  16.094 -2.5595 -0.1760 -0.1815
10205TIP3   OH252029   3.190   1.949   6.042 -0.2255  0.0774 -0.1906
10205TIP3    H152030   3.239   1.976   6.120 -0.6133  0.6163 -0.1340
10205TIP3    H252031   3.210   2.015   5.976 -0.6013  0.1124 -0.2730
10206TIP3   OH252032   2.897   3.938   2.363 -0.0703 -0.3586 -0.1525
10206TIP3    H152033   2.817   3.982   2.335 -0.0548 -0.4627 -0.3607
10206TIP3    H252034   2.967   3.996   2.333 -0.0784 -0.0825  0.3542
10207TIP3   OH252035   1.724   5.413   4.811  0.4615 -0.3330 -0.0156
10207TIP3    H152036   1.755   5.487   4.759 -1.6695  1.3336  0.9090
10207TIP3    H252037   1.717   5.448   4.900 -0.2715 -1.7481  0.5146
10208TIP3   OH252038   3.573   1.686  14.665  0.3100 -0.1139  0.3885
10208TIP3    H152039   3.620   1.718  14.588 -0.4407 -2.0896 -0.9971
10208TIP3    H252040   3.562   1.763  14.721 -1.7708  2.1885 -2.8252
10209TIP3   OH252041   5.881   0.288  12.647 -0.1282 -0.3530  0.3630
10209TIP3    H152042   5.805   0.272  12.591 -0.5316  1.5671  0.2871
10209TIP3    H252043   5.867   0.376  12.681  1.8721 -0.1085  0.6583
10210TIP3   OH252044   0.365   6.346   2.036 -0.3219  0.4837  0.0246
10210TIP3    H152045   0.411   6.316   1.958 -0.3002 -0.4287  0.3746
10210TIP3    H252046   0.434   6.383   2.092 -0.4271  1.7115 -0.6449
10211TIP3   OH252047   1.255   3.958  16.836  0.1470 -0.0811  0.2694
10211TIP3    H152048   1.330   3.979  16.890  2.1886 -1.6002 -1.7860
10211TIP3    H252049   1.250   4.030  16.772  0.0063 -0.1097  0.2469
10212TIP3   OH252050   5.128   1.177  13.128  0.3396 -0.1835 -0.2991
10212TIP3    H152051   5.163   1.264  13.109  1.6029 -0.6601 -0.2617
10212TIP3    H252052   5.043   1.194  13.169 -0.2749  0.9784 -1.9255
10213TIP3   OH252053   2.945   0.039   6.425 -0.1650  0.7817 -0.1240
10213TIP3    H152054   3.020   0.083   6.385  0.5653 -0.5301 -0.2538
10213TIP3    H252055   2.872   0.100   6.413  1.1782  2.8236  1.4409
10214TIP3   OH252056   1.468   6.726  12.649  0.1306  0.3701  0.4754
10214TIP3    H152057   1.524   6.799  12.676  0.4281  0.1165  0.5532
10214TIP3    H252058   1.503   6.650  12.696  0.2246  0.0550 -0.0832
10215TIP3   OH252059   2.164   6.191   0.466 -0.3227  0.7800  0.7870
10215TIP3    H152060   2.196   6.112   0.422 -0.3990  0.8867  0.5368
10215TIP3    H252061   2.089   6.161   0.518  0.6086  0.3991  1.9370
10216TIP3   OH252062   5.930   6.312   0.972 -0.1973 -0.1116 -0.4529
10216TIP3    H152063   5.916   6.373   1.045  0.0469  0.4075 -0.8287
10216TIP3    H252064   5.919   6.225   1.011 -0.0618  0.1557  0.2061
10217TIP3   OH252065   1.182   1.604   0.681  0.2836  0.3354 -0.1476
10217TIP3    H152066   1.137   1.632   0.761  0.2671 -1.8819  0.6788
10217TIP3    H252067   1.239   1.678   0.658 -0.5794  1.4718  1.2366
10218TIP3   OH252068   5.245   4.366  13.575  0.0935 -0.1659  0.1941
10218TIP3    H152069   5.159   4.408  13.567  0.5894  0.6580 -1.0487
10218TIP3    H252070   5.279   4.398  13.659 -0.1673  0.7393 -0.0387
10219TIP3   OH252071   4.652   2.110  16.587  0.0926 -0.1948 -0.0528
10219TIP3    H152072   4.626   2.154  16.506  0.5680  1.2968  0.5682
10219TIP3    H252073   4.736   2.070  16.567 -0.6697 -1.5103 -0.8352
10220TIP3   OH252074   3.308   1.972   4.012  0.0979 -0.1368  0.2361
10220TIP3    H152075   3.284   1.963   4.104 -0.5996 -1.5136 -0.0530
10220TIP3    H252076   3.257   1.905   3.967  1.5665 -0.5308 -0.9421
10221TIP3   OH252077   6.723   4.843  12.926 -0.0504 -0.3906  0.5052
10221TIP3    H152078   6.654   4.800  12.876  0.1482  1.3984 -1.4312
10221TIP3    H252079   6.677   4.894  12.993 -0.5403 -0.0852 -0.0599
10222TIP3   OH252080   4.587   3.603  11.649  0.6394 -0.2203  0.0949
10222TIP3    H152081   4.647   3.549  11.597 -0.6437 -2.3475  0.7074
10222TIP3    H252082   4.502   3.561  11.640 -0.4080  1.6267  0.7975
10223TIP3   OH252083   1.132   4.669  12.105  0.1300 -0.3692 -1.0575
10223TIP3    H152084   1.101   4.744  12.054  0.5990  0.6787  0.1507
10223TIP3    H252085   1.054   4.638  12.151 -0.1649 -0.9421 -1.9114
10224TIP3   OH252086   6.039   5.043  16.478 -0.2414  0.3048  0.1077
10224TIP3    H152087   5.965   5.072  16.425 -0.9655 -0.5557  0.6169
10224TIP3    H252088   6.114   5.047  16.419 -0.4922  2.1165 -0.1488
10225TIP3   OH252089   4.686   6.452  11.024 -0.2036  0.2696  0.5751
10225TIP3    H152090   4.752   6.386  11.041  0.1705  0.3867 -0.3511
10225TIP3    H252091   4.607   6.419  11.067 -0.0029 -0.7384  0.2033
10226TIP3   OH252092   5.436   1.445  17.061 -0.1910 -0.1460  0.1988
10226TIP3    H152093   5.410   1.392  16.985  0.0725 -0.6440  0.4525
10226TIP3    H252094   5.459   1.530  17.024 -2.3783  0.4022 -0.0086
10227TIP3   OH252095   0.560   4.823  12.045  0.2391  0.3223  0.0580
10227TIP3    H152096   0.642   4.857  12.008 -1.1365  3.0722 -0.6979
10227TIP3    H252097   0.492   4.878  12.008 -1.9974 -1.7236  0.8482
10228TIP3   OH252098   2.128   1.968   0.357  0.0617 -0.1945  0.2467
10228TIP3    H152099   2.214   1.980   0.317  0.5885 -0.0938  1.3684
10228TIP3    H252100   2.090   1.894   0.310  0.8122 -0.3268 -0.1770
10229TIP3   OH252101   2.551   2.642   5.081  0.5416 -0.6290  0.4225
10229TIP3    H152102   2.550   2.685   4.996 -1.0795  1.0732  1.2318
10229TIP3    H252103   2.464   2.604   5.090  0.9674 -1.5132  0.9873
10230TIP3   OH252104   0.903   1.752   0.409 -0.2397  0.4359 -0.3245
10230TIP3    H152105   0.984   1.751   0.460 -0.0472 -0.0161 -0.6345
10230TIP3    H252106   0.931   1.759   0.318 -0.4170 -2.1081 -0.6406
10231TIP3   OH252107   1.685   0.798   3.430  0.3454 -0.1527 -0.4200
10231TIP3    H152108   1.756   0.854   3.462  1.6726 -1.6234 -0.6499
10231TIP3    H252109   1.651   0.843   3.353  0.7303  0.7784 -0.0649
10232TIP3   OH252110   6.245   6.063  15.130  0.5353 -0.5387 -0.3601
10232TIP3    H152111   6.334   6.089  15.106  0.1698 -0.7755 -2.1092
10232TIP3    H252112   6.191   6.141  15.113  0.5893  0.2289  2.4197
10233TIP3   OH252113   3.715   4.027   0.095  0.1470  0.3025  0.0055
10233TIP3    H152114   3.787   4.067   0.145  1.7134 -0.3365 -1.6537
10233TIP3    H252115   3.681   3.959   0.154  2.1089 -0.6038  0.1617
10234TIP3   OH252116   6.107   0.411   3.604 -0.3723  0.2081  1.0099
10234TIP3    H152117   6.164   0.488   3.599  1.3424 -0.9382  1.6890
10234TIP3    H252118   6.107   0.388   3.697 -0.2924 -0.9875  0.7319
10235TIP3   OH252119   0.424   5.578  12.147  0.4616  0.1604  0.2815
10235TIP3    H152120   0.373   5.617  12.075  1.1341 -2.0077 -1.5010
10235TIP3    H252121   0.431   5.648  12.212 -1.8163  1.6283 -0.9042
10236TIP3   OH252122   1.241   2.541  13.612 -0.4088  0.4924  0.1354
10236TIP3    H152123   1.157   2.519  13.572 -0.4601 -0.8424  0.9191
10236TIP3    H252124   1.224   2.542  13.706  0.8711 -1.9637  0.4678
10237TIP3   OH252125   4.725   0.337  10.560  0.0744 -0.2568  0.2771
10237TIP3    H152126   4.733   0.376  10.473 -1.9118  0.2447  0.2670
10237TIP3    H252127   4.815   0.323  10.588  0.8037 -1.6861 -2.3990
10238TIP3   OH252128   4.216   0.131  16.669 -0.0443 -0.9301 -0.6935
10238TIP3    H152129   4.163   0.201  16.706  0.6962  0.0254 -1.3897
10238TIP3    H252130   4.159   0.090  16.603 -0.7847 -1.5770  0.3192
10239TIP3   OH252131   4.154   5.525   5.190  0.2467  0.4510  0.1773
10239TIP3    H152132   4.210   5.550   5.263 -0.0403  1.7257 -0.0073
10239TIP3    H252133   4.112   5.607   5.164 -0.4107 -0.1735 -0.7729
10240TIP3   OH252134   6.023   0.723  11.029  0.3039 -0.1664 -0.0778
10240TIP3    H152135   6.078   0.705  10.953 -0.9836  1.7050 -1.5257
10240TIP3    H252136   5.969   0.645  11.039 -0.6642  0.1889 -2.1566
10241TIP3   OH252137   1.883   6.633   2.950 -0.4554 -0.2662  0.3764
10241TIP3    H152138   1.825   6.586   2.889  1.7356 -0.9979 -1.2685
10241TIP3    H252139   1.860   6.726   2.938  0.0845 -0.3637 -1.8431
10242TIP3   OH252140   5.989   1.422   4.914  0.6787  0.5005  0.1650
10242TIP3    H152141   5.956   1.385   4.996 -0.7249  1.4967  0.0754
10242TIP3    H252142   6.015   1.511   4.937  0.9291  0.5598 -0.3391
10243TIP3   OH252143   4.102   6.241  12.115  0.1186  0.4611 -0.7005
10243TIP3    H152144   4.162   6.256  12.042  1.5548  0.9449  0.5486
10243TIP3    H252145   4.037   6.180  12.080  0.9978  0.3660 -2.2512
10244TIP3   OH252146   0.896   4.915   6.931  0.0663 -0.0057 -0.0818
10244TIP3    H152147   0.892   4.830   6.887  0.4159 -0.1083  0.0828
10244TIP3    H252148   0.918   4.977   6.861  0.4065 -0.1381 -0.0941
10245TIP3   OH252149   2.939   0.062  13.669  0.0972  0.0543 -0.1972
10245TIP3    H152150   3.014   0.114  13.641 -1.1654  1.8542 -0.4037
10245TIP3    H252151   2.965   0.025  13.754  0.9660  1.2012  0.0550
10246TIP3   OH252152   3.194   6.627  15.890 -0.5180  0.1248 -0.0533
10246TIP3    H152153   3.124   6.689  15.869 -0.5724  0.1048  0.0708
10246TIP3    H252154   3.160   6.576  15.964 -0.8427 -0.6701 -0.7385
10247TIP3   OH252155   6.612   2.352  17.248  0.2555  0.3059 -0.2137
10247TIP3    H152156   6.573   2.396  17.172  2.0199  5.3852  1.3936
10247TIP3    H252157   6.538   2.334  17.306 -0.5632  2.9257 -0.3127
10248TIP3   OH252158   4.044   2.437   0.903 -0.0438 -0.2718 -0.4702
10248TIP3    H152159   4.026   2.413   0.994  0.5345  1.4485  0.1366
10248TIP3    H252160   3.961   2.424   0.857  0.0583 -2.7284 -0.1063
10249TIP3   OH252161   0.215   2.487  12.455 -0.0526 -0.0454 -0.2058
10249TIP3    H152162   0.199   2.576  12.484  0.8210  0.1332 -0.2463
10249TIP3    H252163   0.309   2.483  12.440 -0.2588 -0.5445 -1.5970
10250TIP3   OH252164   3.606   5.903  11.438  0.1818  0.1136 -0.5025
10250TIP3    H152165   3.602   5.950  11.355 -1.3297 -3.1054 -2.4526
10250TIP3    H252166   3.685   5.849  11.430 -1.1675 -1.8835 -0.9270
10251TIP3   OH252167   1.200   3.156  15.465  0.2616  0.7391 -0.3742
10251TIP3    H152168   1.256   3.149  15.542 -1.0716 -0.2653  0.5667
10251TIP3    H252169   1.193   3.251  15.449  0.6847  0.9574  0.6476
10252TIP3   OH252170   4.693   5.417  15.658  0.2014  0.2881  0.0433
10252TIP3    H152171   4.599   5.403  15.650  0.0076  1.3429  0.2887
10252TIP3    H252172   4.717   5.464  15.578  0.7144 -0.8506 -0.4914
10253TIP3   OH252173   2.191   3.133   4.449  0.3179 -0.3597 -0.0344
10253TIP3    H152174   2.267   3.183   4.419 -0.3773  0.9483  0.2986
10253TIP3    H252175   2.202   3.126   4.544 -1.5615  2.7808  0.5500
10254TIP3   OH252176   6.125   4.799   5.330  0.4091  0.2441  0.1324
10254TIP3    H152177   6.160   4.887   5.336  1.1042 -0.0965  1.3158
10254TIP3    H252178   6.108   4.786   5.236  2.9547  0.6111 -0.4400
10255TIP3   OH252179   1.675   3.010   1.560 -0.4849  0.1118 -0.8781
10255TIP3    H152180   1.743   2.945   1.545 -0.3454  0.7167 -3.2194
10255TIP3    H252181   1.719   3.094   1.543 -0.4647  1.0182  2.6996
10256TIP3   OH252182   3.856   5.918   5.023  0.3390 -0.1729 -1.2462
10256TIP3    H152183   3.805   5.988   4.983 -0.3917  0.2946  0.3932
10256TIP3    H252184   3.793   5.870   5.078  1.5140  0.1111  0.4387
10257TIP3   OH252185   2.519   3.887  14.060 -0.0147  0.3915  0.3478
10257TIP3    H152186   2.432   3.863  14.094 -2.1708  3.7437 -2.1133
10257TIP3    H252187   2.539   3.820  13.995 -0.8162 -0.3716  0.8624
10258TIP3   OH252188   0.184   3.790  16.373  0.3260  0.2986  0.0977
10258TIP3    H152189   0.221   3.878  16.373  0.9699  0.0618  1.9996
10258TIP3    H252190   0.257   3.733  16.398 -1.1161 -0.2357  3.5688
10259TIP3   OH252191   3.007   2.813  16.296  0.3368 -0.4558 -0.6240
10259TIP3    H152192   3.063   2.743  16.261  1.1913  0.0460 -0.3049
10259TIP3    H252193   2.966   2.773  16.373  2.0940 -0.1488  0.5332
10260TIP3   OH252194   6.052   6.216   5.333  0.6558  0.0463 -0.2396
10260TIP3    H152195   5.978   6.273   5.358  0.2790 -0.5929  0.1250
10260TIP3    H252196   6.053   6.218   5.238 -0.8788 -1.2440 -0.3133
10261TIP3   OH252197   1.579   2.354  15.933 -0.2321 -0.3696 -0.6139
10261TIP3    H152198   1.624   2.269  15.927  0.2951 -0.1692  0.2199
10261TIP3    H252199   1.625   2.410  15.871  0.8456 -0.1112  0.3683
10262TIP3   OH252200   4.383   2.162  13.066 -0.0079  0.1538  0.5130
10262TIP3    H152201   4.474   2.138  13.083  0.3870  0.6422 -0.8076
10262TIP3    H252202   4.380   2.180  12.972 -2.3477 -3.8977 -0.4415
10263TIP3   OH252203   2.541   5.119  11.303  0.6326  0.0385 -0.6078
10263TIP3    H152204   2.472   5.090  11.363  1.5674 -0.2402  0.3577
10263TIP3    H252205   2.623   5.097  11.347  1.4201  2.8448 -0.4456
10264TIP3   OH252206   1.496   1.296   4.892 -0.1378 -0.1482 -0.1704
10264TIP3    H152207   1.572   1.270   4.944  0.9851 -0.0783 -1.7106
10264TIP3    H252208   1.517   1.385   4.864 -0.0352 -0.6935 -1.9077
10265TIP3   OH252209   3.283   4.522  13.588 -0.0788  0.1150 -0.2132
10265TIP3    H152210   3.226   4.483  13.654  1.0417  0.3759  0.9477
10265TIP3    H252211   3.258   4.614  13.584  1.4406  0.6775  1.6816
10266TIP3   OH252212   6.683   1.988   5.614  0.0489 -0.0940  0.3598
10266TIP3    H152213   6.775   2.010   5.600 -0.3400  2.0683  0.8255
10266TIP3    H252214   6.673   1.983   5.709 -0.3436 -0.1080  0.3211
10267TIP3   OH252215   4.702   1.640  12.773 -0.1183 -0.4504  0.2669
10267TIP3    H152216   4.781   1.664  12.822 -0.0227 -0.3439  0.0629
10267TIP3    H252217   4.634   1.698  12.807 -0.7917 -2.3406  2.3911
10268TIP3   OH252218   0.911   6.711   4.417 -0.8087  0.2308  0.0671
10268TIP3    H152219   0.857   6.775   4.370 -2.7004 -0.9348  0.5100
10268TIP3    H252220   0.998   6.749   4.418 -0.4713  0.2422 -4.6733
10269TIP3   OH252221   6.687   3.021  13.969  0.3561  0.4279  0.1221
10269TIP3    H152222   6.633   2.987  13.898  1.5493  0.5243 -0.8721
10269TIP3    H252223   6.775   2.988  13.950  1.0102  1.7663  0.6697
10270TIP3   OH252224   6.070   1.732  15.924 -0.0281  0.1042  0.2819
10270TIP3    H152225   6.153   1.713  15.879  0.2067  1.7250 -0.0184
10270TIP3    H252226   6.008   1.669  15.888  1.0936 -1.2568  0.6297
10271TIP3   OH252227   0.143   5.767   0.386  0.4242 -0.1706 -0.2297
10271TIP3    H152228   0.213   5.821   0.349  1.1604 -1.6428 -1.0721
10271TIP3    H252229   0.114   5.713   0.312 -1.1393 -0.0717  0.2855
10272TIP3   OH252230   5.979   1.422  12.578 -0.6090  0.2276 -0.2963
10272TIP3    H152231   6.064   1.442  12.538  0.3116  2.3598  2.4436
10272TIP3    H252232   5.991   1.335  12.617  1.0910  1.2822  1.7216
10273TIP3   OH252233   2.622   0.805   3.089 -0.1179 -0.0996  0.4766
10273TIP3    H152234   2.632   0.811   3.184  0.3887  0.5305  0.3971
10273TIP3    H252235   2.687   0.867   3.055 -1.0595  0.5216 -0.2458
10274TIP3   OH252236   2.005   4.417   5.617  0.4983  0.0255 -0.0050
10274TIP3    H152237   2.007   4.386   5.527 -0.9223  0.7948 -0.3317
10274TIP3    H252238   2.020   4.512   5.610 -1.4594  0.3969  0.3636
10275TIP3   OH252239   3.134   0.595  13.434 -0.1567 -0.2337 -0.0455
10275TIP3    H152240   3.218   0.562  13.465 -0.7417 -0.4607  1.3690
10275TIP3    H252241   3.125   0.680  13.477 -0.7166 -0.2847 -0.0559
10276TIP3   OH252242   0.968   1.724  11.796 -0.4237  0.1706 -0.3325
10276TIP3    H152243   0.951   1.755  11.884 -0.8566  1.4244 -0.8401
10276TIP3    H252244   0.923   1.640  11.790 -0.0296 -0.1262  0.7670
10277TIP3   OH252245   4.651   6.256  16.376  0.3960  0.1501  0.1590
10277TIP3    H152246   4.573   6.201  16.387  0.7325 -0.5194 -0.6437
10277TIP3    H252247   4.670   6.289  16.464 -0.5609  0.0112  0.4319
10278TIP3   OH252248   3.059   3.224  16.008  0.2134 -0.6442  0.0072
10278TIP3    H152249   3.146   3.193  16.035  1.2576  0.5189 -1.7564
10278TIP3    H252250   2.998   3.178  16.065  2.0311 -0.6925  2.0430
10279TIP3   OH252251   0.077   5.820   5.010 -0.2520 -0.3884  0.3140
10279TIP3    H152252   0.079   5.745   4.952 -1.0973 -0.5505  0.4696
10279TIP3    H252253   0.152   5.808   5.068 -0.3229 -1.0646  0.2752
10280TIP3   OH252254   6.021   4.786  12.593  0.1487  0.1832 -0.2057
10280TIP3    H152255   6.073   4.857  12.555 -0.7239  0.8295 -0.2322
10280TIP3    H252256   5.956   4.831  12.647 -0.3848 -0.5993 -0.1788
10281TIP3   OH252257   2.473   0.211  14.920 -0.5828 -0.2188  0.3643
10281TIP3    H152258   2.405   0.149  14.946 -0.9043 -0.2888 -0.5946
10281TIP3    H252259   2.467   0.215  14.824  0.3284  0.2749  0.3121
10282TIP3   OH252260   4.713   1.908  14.187 -0.6212  0.3112  0.1803
10282TIP3    H152261   4.645   1.857  14.232  0.5356 -0.0238  1.6284
10282TIP3    H252262   4.707   1.995  14.224 -0.5654  0.4055 -0.0312
10283TIP3   OH252263   2.662   3.534  11.937 -0.4102 -0.7056  0.9504
10283TIP3    H152264   2.596   3.518  11.870 -0.3153  2.3658 -0.0613
10283TIP3    H252265   2.613   3.541  12.019 -0.9967 -1.0425  0.6313
10284TIP3   OH252266   0.005   5.874   2.590  0.0974 -0.0032 -0.3038
10284TIP3    H152267   0.091   5.913   2.606 -0.3237  1.0857 -0.6535
10284TIP3    H252268  -0.021   5.906   2.504  0.2080 -1.9504 -1.1033
10285TIP3   OH252269   5.117   4.137   0.293 -0.0255 -0.5246  0.3340
10285TIP3    H152270   5.051   4.085   0.339 -0.3559  0.3964  0.9395
10285TIP3    H252271   5.175   4.073   0.253  0.5235 -1.4054  2.3858
10286TIP3   OH252272   5.114   1.887   1.489  0.2745  0.1474 -0.0749
10286TIP3    H152273   5.127   1.977   1.457 -0.2073  1.6700  3.5298
10286TIP3    H252274   5.194   1.868   1.537 -0.7197 -0.2421  1.4748
10287TIP3   OH252275   0.496   2.048  16.542  0.5706  0.1441  0.5087
10287TIP3    H152276   0.551   2.033  16.465  2.0903 -1.1289  1.7587
10287TIP3    H252277   0.478   2.142  16.541  0.3830  0.1373 -1.4721
10288TIP3   OH252278   5.049   3.943   4.083  0.0186 -0.7400  0.0998
10288TIP3    H152279   5.000   4.008   4.033 -0.0710 -0.5291  0.4588
10288TIP3    H252280   5.140   3.954   4.054 -0.1790 -1.3037 -0.7500
10289TIP3   OH252281   1.891   3.790  17.239 -0.6805  0.2213  0.0965
10289TIP3    H152282   1.876   3.835  17.322 -0.2073 -0.7539  0.7216
10289TIP3    H252283   1.982   3.809  17.217 -1.4000  2.3915 -1.4127
10290TIP3   OH252284   4.575   0.007  17.209 -0.2319 -0.0699 -0.1087
10290TIP3    H152285   4.611  -0.038  17.286  1.4924  1.2831 -0.0580
10290TIP3    H252286   4.489  -0.031  17.198  0.9676 -3.1334  0.1131
10291TIP3   OH252287   0.063   2.141   3.289  0.4889  0.2470 -0.3856
10291TIP3    H152288  -0.032   2.146   3.280  0.3920 -0.1678  0.3135
10291TIP3    H252289   0.089   2.071   3.229  0.4172  0.6639 -0.9170
10292TIP3   OH252290   1.494   2.669   2.749  0.0349  0.7225 -0.1999
10292TIP3    H152291   1.488   2.708   2.837 -0.8957  2.1105 -0.8440
10292TIP3    H252292   1.486   2.743   2.690  1.1848 -0.1333 -1.4829
10293TIP3   OH252293   5.303   6.704  14.168 -0.4762 -0.3118 -0.2013
10293TIP3    H152294   5.261   6.670  14.247  0.1083  0.0156  0.2593
10293TIP3    H252295   5.236   6.696  14.100 -1.0957 -0.3057  0.3962
10294TIP3   OH252296   2.940   4.820   2.768 -0.3721  0.6700  0.5653
10294TIP3    H152297   2.977   4.757   2.707  1.5024  1.7236  0.5477
10294TIP3    H252298   2.950   4.905   2.725 -0.8317  1.2257  1.5079
10295TIP3   OH252299   1.010   0.213  11.104  0.2754 -0.3668  0.5469
10295TIP3    H152300   1.106   0.215  11.107  0.2866 -1.1610  0.8237
10295TIP3    H252301   0.989   0.216  11.010  0.5549  0.0797  0.4924
10296TIP3   OH252302   1.202   1.537   0.278 -0.1153 -0.5961  0.3313
10296TIP3    H152303   1.170   1.483   0.350 -0.4192  0.6627  1.1785
10296TIP3    H252304   1.243   1.613   0.320  1.9009 -0.9845 -0.7849
10297TIP3   OH252305   3.977   5.319  16.045 -0.5646  0.4232 -0.4983
10297TIP3    H152306   3.882   5.328  16.050 -0.6088  0.2823 -1.0451
10297TIP3    H252307   3.995   5.304  15.952  0.3070  4.0224 -1.0513
10298TIP3   OH252308   0.143   5.155   2.469 -0.3694 -0.4239  0.1997
10298TIP3    H152309   0.213   5.095   2.493 -1.3415 -1.0150  1.7673
10298TIP3    H252310   0.179   5.208   2.399  0.8428 -2.2374 -0.6277
10299TIP3   OH252311   0.457   1.856   3.029 -0.7466  0.1746  0.4637
10299TIP3    H152312   0.484   1.943   3.001 -0.2907  0.8536  2.8159
10299TIP3    H252313   0.387   1.831   2.968  0.5047  1.2806 -1.5112
10300TIP3   OH252314   0.604   2.780  12.363  0.4140 -0.1921 -0.1540
10300TIP3    H152315   0.546   2.709  12.340  0.2683  0.2076 -1.0389
10300TIP3    H252316   0.680   2.770  12.305 -0.7862  1.9166 -2.2619
10301TIP3   OH252317   3.866   3.184   6.438  0.1042 -0.3207 -0.4277
10301TIP3    H152318   3.866   3.273   6.472  0.1790  0.0799 -1.4427
10301TIP3    H252319   3.797   3.139   6.488  1.0900 -0.1377  1.1540
10302TIP3   OH252320   5.936   3.228   0.070 -0.3844  0.4484  0.1744
10302TIP3    H152321   5.850   3.246   0.107 -0.0142  1.5479  0.5365
10302TIP3    H252322   5.950   3.298   0.007 -0.0467 -0.1363 -0.4170
10303TIP3   OH252323   4.300   6.405   3.034 -0.4582  0.0617 -0.1715
10303TIP3    H152324   4.349   6.467   2.979 -1.3408  0.2033 -0.8243
10303TIP3    H252325   4.258   6.460   3.100 -0.5232  0.0590 -0.2102
10304TIP3   OH252326   0.684   5.567  11.715 -0.2236 -0.2737  0.1519
10304TIP3    H152327   0.668   5.656  11.685  1.3253 -0.8214 -2.6805
10304TIP3    H252328   0.766   5.572  11.764 -0.1028 -0.1334 -0.0625
10305TIP3   OH252329   3.254   4.148  13.335 -0.1405  0.0155  0.8932
10305TIP3    H152330   3.280   4.240  13.322 -0.3706  0.1554  1.3934
10305TIP3    H252331   3.159   4.152  13.349 -0.7029 -0.5929 -2.0860
10306TIP3   OH252332   4.322   3.142   3.648 -0.0753  0.0561 -0.4750
10306TIP3    H152333   4.346   3.105   3.563  0.0128  4.2998 -2.5303
10306TIP3    H252334   4.237   3.102   3.668 -0.6494 -0.2496 -3.1378
10307TIP3   OH252335   4.639   2.592  16.907 -0.1546 -0.2967 -0.1447
10307TIP3    H152336   4.626   2.560  16.997 -0.1017 -0.9975 -0.3818
10307TIP3    H252337   4.672   2.516  16.859  0.4218  0.2443 -0.6171
10308TIP3   OH252338   1.570   5.470   3.786  0.0350  0.6666 -0.8840
10308TIP3    H152339   1.653   5.472   3.834  0.1710 -0.3396 -1.0596
10308TIP3    H252340   1.584   5.530   3.713  0.2505  1.2767 -0.3574
10309TIP3   OH252341   6.356   6.010   3.704 -0.3379  0.1278  0.7917
10309TIP3    H152342   6.345   5.962   3.786  2.3037 -0.5253  0.8647
10309TIP3    H252343   6.380   5.943   3.640 -2.9999  0.5323 -0.7463
10310TIP3   OH252344   1.716   4.480   1.158 -0.3259 -0.2714 -0.0030
10310TIP3    H152345   1.630   4.457   1.124 -0.8627  1.1580  0.3498
10310TIP3    H252346   1.716   4.446   1.248 -0.7952  0.3629  0.2383
10311TIP3   OH252347   2.901   5.867  12.551  0.1635  0.2962 -0.2586
10311TIP3    H152348   2.992   5.891  12.569  0.1489  1.5246 -1.6086
10311TIP3    H252349   2.903   5.773  12.533  0.9105  0.0251  1.1207
10312TIP3   OH252350   0.454   1.567   5.055  0.3860  0.3825  0.0106
10312TIP3    H152351   0.462   1.501   5.125  0.2343  0.8756  0.4971
10312TIP3    H252352   0.381   1.535   5.002 -0.4190  0.7140  0.8771
10313TIP3   OH252353   2.566   3.685   3.832  0.0065  0.2287  0.2314
10313TIP3    H152354   2.607   3.762   3.872  0.8256  2.1450 -3.7653
10313TIP3    H252355   2.633   3.617   3.837 -0.0472  0.2486  2.1914
10314TIP3   OH252356   0.316   5.462  13.979 -1.0136  0.3340 -0.0931
10314TIP3    H152357   0.288   5.439  14.067  1.6908  2.2493  1.4085
10314TIP3    H252358   0.240   5.506  13.940 -1.8084  0.7755  1.8402
10315TIP3   OH252359   0.223   1.202   1.329  0.4221 -0.1240 -0.1303
10315TIP3    H152360   0.310   1.169   1.351  0.2519 -1.5097 -1.3393
10315TIP3    H252361   0.169   1.179   1.404  0.7341 -0.8977 -0.1289
10316TIP3   OH252362   4.736   1.311  17.339  0.2820 -0.8042  0.2539
10316TIP3    H152363   4.668   1.263  17.292  2.1404 -2.6197 -0.7591
10316TIP3    H252364   4.717   1.403  17.323 -0.5636 -1.3225 -2.0031
10317TIP3   OH252365   2.682   3.170  12.279  0.1764 -0.3175 -0.3143
10317TIP3    H152366   2.683   3.253  12.326 -1.1741  0.4951 -1.6058
10317TIP3    H252367   2.724   3.190  12.195  0.5153 -1.1303 -0.3416
10318TIP3   OH252368   3.909   2.660  16.076 -0.6000  0.1664  0.0468
10318TIP3    H152369   3.980   2.706  16.120 -0.2000 -0.0979 -0.3231
10318TIP3    H252370   3.829   2.694  16.118 -0.2840  0.7920  0.1536
10319TIP3   OH252371   2.045   1.240  13.930  0.3367 -0.0025 -0.1694
10319TIP3    H152372   2.024   1.154  13.893  0.2899 -0.2352  0.3880
10319TIP3    H252373   2.050   1.298  13.854  0.0225 -0.4251 -0.5213
10320TIP3   OH252374   5.968   4.385   3.864  0.2150  0.0309 -0.1952
10320TIP3    H152375   5.930   4.429   3.788 -0.7172  1.2538  0.9372
10320TIP3    H252376   5.931   4.297   3.863  0.1997  0.0470 -1.1303
10321TIP3   OH252377   4.094   3.668  15.058  0.3267  0.0678 -0.0422
10321TIP3    H152378   4.068   3.702  15.143 -1.5773  0.3476 -0.7001
10321TIP3    H252379   4.012   3.651  15.012  1.3000  0.2334 -1.9519
10322TIP3   OH252380   3.802   1.968  15.303 -0.1977 -0.5465 -0.0161
10322TIP3    H152381   3.812   1.915  15.383  0.1228  1.1755  1.1507
10322TIP3    H252382   3.856   2.046  15.319  1.1109 -0.8194 -2.5774
10323TIP3   OH252383   6.676   5.671   3.596 -0.5261 -0.4186  0.0303
10323TIP3    H152384   6.666   5.584   3.559 -1.9318 -0.4661  0.4573
10323TIP3    H252385   6.606   5.678   3.660 -1.1764  1.4396 -0.8014
10324TIP3   OH252386   1.650   3.689  17.201  0.5317  0.0761  0.3017
10324TIP3    H152387   1.611   3.712  17.285  0.5968 -3.8591  1.6140
10324TIP3    H252388   1.731   3.740  17.197  0.2432  0.7752  2.3692
10325TIP3   OH252389   1.300   2.450  16.558 -1.0565 -0.2392 -0.3796
10325TIP3    H152390   1.257   2.534  16.577 -1.0258 -0.3409  0.1391
10325TIP3    H252391   1.276   2.393  16.631 -1.2026 -0.7331 -0.8088
10326TIP3   OH252392   2.133   5.545   6.579 -0.4757 -0.0473  0.1119
10326TIP3    H152393   2.181   5.514   6.656  0.2089 -0.2671 -0.4023
10326TIP3    H252394   2.200   5.570   6.516 -1.0005 -1.3800 -1.0240
10327TIP3   OH252395   5.007   3.479   6.344 -0.6933  0.7319 -1.0795
10327TIP3    H152396   5.014   3.569   6.375 -0.9222  0.5856 -0.5883
10327TIP3    H252397   4.914   3.458   6.353 -0.1984 -0.6289  1.9586
10328TIP3   OH252398   2.670   1.864  15.946 -0.0058  0.7813 -0.1180
10328TIP3    H152399   2.585   1.901  15.921 -0.4132  0.0318  0.1276
10328TIP3    H252400   2.730   1.938  15.942 -0.7667  1.4362  0.1595
10329TIP3   OH252401   5.189   5.353   2.682 -0.0909 -0.4429  0.2835
10329TIP3    H152402   5.193   5.270   2.729  0.5848  1.2073  3.4135
10329TIP3    H252403   5.280   5.383   2.677 -0.1844 -0.3620 -1.8592
10330TIP3   OH252404   0.312   0.927  11.138  0.0741  0.4335  0.2413
10330TIP3    H152405   0.329   0.852  11.196  0.8789  0.5602  0.1804
10330TIP3    H252406   0.399   0.955  11.109 -0.2425  1.1917  0.0032
10331TIP3   OH252407   0.546   3.588  15.437  0.2201 -0.0204  0.0449
10331TIP3    H152408   0.537   3.668  15.385 -1.5039  1.4691  2.4157
10331TIP3    H252409   0.635   3.593  15.473  0.5070  0.2603 -0.6811
10332TIP3   OH252410   0.303   4.519  11.065  0.0282 -0.4591  0.4447
10332TIP3    H152411   0.213   4.532  11.034  0.3030 -0.1710 -0.2647
10332TIP3    H252412   0.334   4.607  11.087  0.1570 -0.5485  0.6218
10333TIP3   OH252413   0.544   2.430  10.475  0.2202 -0.8589 -0.4654
10333TIP3    H152414   0.466   2.418  10.529  1.1602 -0.1214  1.0939
10333TIP3    H252415   0.533   2.516  10.435 -0.1157 -1.0853 -0.8719
10334TIP3   OH252416   4.628   6.336  14.140 -0.4078 -0.2997  0.3015
10334TIP3    H152417   4.678   6.404  14.094  1.4232 -1.3647  0.6187
10334TIP3    H252418   4.577   6.384  14.205  0.1039  0.8627 -0.1150
10335TIP3   OH252419   0.125   3.208   1.550  0.5036 -0.0300 -0.1920
10335TIP3    H152420   0.090   3.284   1.504 -0.4326 -0.3788 -0.0805
10335TIP3    H252421   0.062   3.192   1.620  0.9495 -0.6259  0.0813
10336TIP3   OH252422   1.852   1.958  14.673 -0.4792  0.3759  0.0663
10336TIP3    H152423   1.783   2.000  14.724 -0.6441  1.4659 -0.9878
10336TIP3    H252424   1.917   2.028  14.660 -0.6313  0.2617 -1.5114
10337TIP3   OH252425   2.500   0.015  11.202  0.4372 -0.4228  0.4336
10337TIP3    H152426   2.428   0.045  11.256  0.8822 -2.9351  2.6455
10337TIP3    H252427   2.459  -0.014  11.120 -0.3977  2.3245 -0.2346
10338TIP3   OH252428   2.265   6.586  12.525 -0.0381 -0.3510 -0.2900
10338TIP3    H152429   2.218   6.599  12.443 -0.3112  1.8613  0.1700
10338TIP3    H252430   2.198   6.588  12.593  0.3820 -0.4106  0.1379
10339TIP3   OH252431   0.568   5.997  14.935 -0.1199 -0.1307  0.2248
10339TIP3    H152432   0.587   5.988  14.842 -1.3268  0.0606 -0.0602
10339TIP3    H252433   0.646   5.964  14.979  0.0440 -1.2512 -0.8421
10340TIP3   OH252434   0.400   3.775  11.267 -0.2037 -0.4934  0.2822
10340TIP3    H152435   0.400   3.783  11.172 -1.3579  0.5220  0.3408
10340TIP3    H252436   0.327   3.716  11.287 -1.5266  1.1845  0.6206
10341TIP3   OH252437   4.890   0.968  16.266 -0.2284 -0.2883 -0.2787
10341TIP3    H152438   4.972   0.930  16.298  0.3515  1.2740  0.1861
10341TIP3    H252439   4.894   0.958  16.171  0.6979  0.1129 -0.2917
10342TIP3   OH252440   0.377   0.763  15.183 -0.4197 -0.5056 -0.2632
10342TIP3    H152441   0.313   0.814  15.233  1.7272  1.5703  0.5740
10342TIP3    H252442   0.451   0.754  15.243  1.3443  0.0375 -2.2382
10343TIP3   OH252443   6.510   4.395  13.899  0.2485 -0.1110  0.0302
10343TIP3    H152444   6.416   4.398  13.886  0.4986  1.8432 -1.7658
10343TIP3    H252445   6.535   4.484  13.924  1.7157 -0.3859 -0.3210
10344TIP3   OH252446   1.198   4.676   6.035  0.0473  0.0883  0.1294
10344TIP3    H152447   1.224   4.603   6.091 -0.5074  0.3073  0.6873
10344TIP3    H252448   1.228   4.754   6.082 -1.3205  0.3284  0.6381
10345TIP3   OH252449   3.986   1.000   4.880 -0.0730 -0.0971  0.1392
10345TIP3    H152450   4.033   0.918   4.899 -0.0589  0.6448  4.1941
10345TIP3    H252451   3.894   0.974   4.874 -0.3214 -0.3005  3.4427
10346TIP3   OH252452   4.800   6.723  13.472  0.2500 -0.3536 -0.2348
10346TIP3    H152453   4.720   6.699  13.518  0.0639 -0.4171 -0.5825
10346TIP3    H252454   4.850   6.775  13.534  0.6313 -1.5869  0.5245
10347TIP3   OH252455   6.556   5.229   1.464 -0.3624  0.2256  0.5988
10347TIP3    H152456   6.604   5.148   1.482 -0.1313  0.7264  2.4342
10347TIP3    H252457   6.505   5.210   1.385 -0.7121 -1.8815  1.2810
10348TIP3   OH252458   0.255   5.253   2.221 -0.3807  0.3190 -0.4311
10348TIP3    H152459   0.351   5.254   2.223 -0.3816  1.5967  1.1871
10348TIP3    H252460   0.233   5.169   2.181  1.4015  0.1275 -1.1298
10349TIP3   OH252461   6.501   1.460   5.427  0.0853 -0.2073 -0.2606
10349TIP3    H152462   6.474   1.545   5.461  0.5771  0.8618 -2.4368
10349TIP3    H252463   6.460   1.454   5.341  1.6763 -1.2976 -0.9802
10350TIP3   OH252464   5.365   5.030  13.663 -0.3958 -0.2746  0.0697
10350TIP3    H152465   5.434   5.095  13.672 -0.3599 -0.1726 -0.8885
10350TIP3    H252466   5.359   4.989  13.750  0.3498  0.2244  0.3627
10351TIP3   OH252467   6.173   3.103   5.930 -0.3088 -0.2106  0.2086
10351TIP3    H152468   6.113   3.050   5.984  1.1131  1.7054  4.0209
10351TIP3    H252469   6.121   3.179   5.905 -0.4620 -0.2030  0.5401
10352TIP3   OH252470   2.131   1.918   3.412  0.1516 -0.0195 -0.5086
10352TIP3    H152471   2.141   1.999   3.363  2.0752 -0.5285 -1.0750
10352TIP3    H252472   2.164   1.850   3.352 -0.7751 -1.1363  0.1997
10353TIP3   OH252473   4.873   6.337  15.859 -0.4864 -0.2588  0.3877
10353TIP3    H152474   4.811   6.263  15.862 -1.8481  0.8778  1.8297
10353TIP3    H252475   4.887   6.352  15.766 -0.3513 -2.1876  0.0553
10354TIP3   OH252476   0.125   0.069  10.957 -0.4378 -0.7131 -0.1920
10354TIP3    H152477   0.086   0.042  10.874 -0.0293 -1.3288 -0.1956
10354TIP3    H252478   0.063   0.038  11.023 -1.1049  0.3874 -0.2861
10355TIP3   OH252479   4.299   4.848  11.994  0.6718 -0.2186  0.0748
10355TIP3    H152480   4.258   4.872  11.911  2.1856  0.0908 -0.6015
10355TIP3    H252481   4.383   4.894  11.994  0.9954 -0.7705  1.4663
10356TIP3   OH252482   6.531   5.825   2.131  0.2586  0.0822 -0.4249
10356TIP3    H152483   6.608   5.806   2.078  0.5675  1.0410 -0.3505
10356TIP3    H252484   6.488   5.741   2.144  0.7976 -0.3239 -1.2426
10357TIP3   OH252485   1.428   5.314   3.967  0.2992  0.2062 -0.1692
10357TIP3    H152486   1.445   5.373   4.041 -1.1366  0.2389  0.1720
10357TIP3    H252487   1.448   5.367   3.889  2.4981 -0.0553  0.1680
10358TIP3   OH252488   2.291   5.639  13.673 -0.0003 -0.2336  0.0595
10358TIP3    H152489   2.294   5.552  13.633  1.6130  0.1403 -0.7218
10358TIP3    H252490   2.366   5.641  13.733  2.0873  1.6599 -2.3704
10359TIP3   OH252491   3.652   1.601   2.567 -0.2861 -0.6037 -0.0585
10359TIP3    H152492   3.699   1.598   2.484  1.9907 -1.2532  1.1474
10359TIP3    H252493   3.583   1.535   2.558 -1.4978  0.8353 -2.1333
10360TIP3   OH252494   0.301   6.522   6.281  0.3336 -0.7113 -0.4359
10360TIP3    H152495   0.280   6.435   6.247 -2.2780 -0.4897  0.3686
10360TIP3    H252496   0.272   6.582   6.212 -0.1427 -0.4305 -0.0019
10361TIP3   OH252497   4.762   2.752   5.374 -0.2834  0.2730  0.3699
10361TIP3    H152498   4.793   2.794   5.294  2.4910  1.3110  1.8833
10361TIP3    H252499   4.676   2.791   5.390  0.9955  3.4277  0.2191
10362TIP3   OH252500   5.028   2.679   1.208 -0.8717  0.0097 -0.5010
10362TIP3    H152501   5.013   2.754   1.266  2.0187  0.6658 -0.4152
10362TIP3    H252502   5.039   2.719   1.121 -2.3453 -0.6710 -1.0170
10363TIP3   OH252503   1.934   2.713   1.864  0.3877  0.1383 -0.5217
10363TIP3    H152504   1.848   2.681   1.889  0.0989  1.1475 -0.1435
10363TIP3    H252505   1.986   2.708   1.945  0.2981  0.7184 -0.4209
10364TIP3   OH252506   2.324   2.837  13.359  0.1732 -0.5970 -0.1300
10364TIP3    H152507   2.362   2.909  13.409  0.9568  0.8719 -2.6604
10364TIP3    H252508   2.305   2.770  13.424  0.8180  1.2961  2.1361
10365TIP3   OH252509   4.060   2.696   4.866  0.6444  0.2253  0.0341
10365TIP3    H152510   3.979   2.690   4.815 -0.7130  0.9821  1.9493
10365TIP3    H252511   4.130   2.683   4.802 -0.9647 -0.1523 -1.7569
10366TIP3   OH252512   3.749   3.850   6.913 -0.0899 -0.3182 -0.2731
10366TIP3    H152513   3.809   3.925   6.915  0.5688 -0.8416  0.7511
10366TIP3    H252514   3.802   3.778   6.879 -1.0533 -0.0935 -2.4435
10367TIP3   OH252515   1.188   3.393  15.026 -0.0534 -0.4624  0.3034
10367TIP3    H152516   1.247   3.406  15.101 -1.0013  1.9236  0.7085
10367TIP3    H252517   1.174   3.481  14.991 -2.2688 -1.1311 -0.6346
10368TIP3   OH252518   3.681   0.511  13.176  0.5342  0.0336  0.0592
10368TIP3    H152519   3.610   0.500  13.240  0.4959  0.4422  0.0907
10368TIP3    H252520   3.650   0.582  13.120  0.4447 -0.5036 -0.5824
10369TIP3   OH252521   2.847   3.117  13.955  1.0242  0.3163  0.4491
10369TIP3    H152522   2.843   3.212  13.942 -0.1146  0.2519  0.2527
10369TIP3    H252523   2.768   3.096  14.004  1.0489 -0.5943  0.1125
10370TIP3   OH252524   4.414   6.424  16.776  0.2851  0.6440 -0.0992
10370TIP3    H152525   4.383   6.428  16.867  0.1653 -0.3731 -0.0841
10370TIP3    H252526   4.420   6.515  16.749 -1.2757  0.9150  0.3803
10371TIP3   OH252527   0.491   2.573   0.603 -1.0124 -0.3085  0.6411
10371TIP3    H152528   0.421   2.519   0.567 -1.8727  0.3958  1.2045
10371TIP3    H252529   0.557   2.511   0.631 -1.0213 -0.9494 -0.6718
10372TIP3   OH252530   4.529   2.161   6.550  0.4131 -0.2147  0.1590
10372TIP3    H152531   4.540   2.067   6.559  1.4137 -0.0290  1.0681
10372TIP3    H252532   4.441   2.171   6.514  0.2449 -1.4833  0.1618
10373TIP3   OH252533   6.741   6.176   0.357  1.0193  0.3563  0.6908
10373TIP3    H152534   6.677   6.246   0.368 -2.2474 -2.4746  1.2130
10373TIP3    H252535   6.753   6.140   0.445  0.3715 -1.5404  0.0457
10374TIP3   OH252536   2.881   4.093   6.424  0.7284 -0.0194 -0.5675
10374TIP3    H152537   2.790   4.096   6.451  0.0058 -0.1364 -2.8121
10374TIP3    H252538   2.920   4.024   6.478 -1.2092 -1.9042 -1.4347
10375TIP3   OH252539   2.256   6.263   4.383  0.3072  0.1036  0.1049
10375TIP3    H152540   2.209   6.324   4.326  1.2956  1.1790  0.3899
10375TIP3    H252541   2.349   6.285   4.370  0.8424 -2.4586 -1.0120
10376TIP3   OH252542   2.121   5.929  14.286  0.9033 -0.4830 -0.2227
10376TIP3    H152543   2.051   5.870  14.260  0.3566  0.0422  0.0459
10376TIP3    H252544   2.132   5.988  14.212  0.6500 -0.1841 -0.0199
10377TIP3   OH252545   4.225   5.165  16.737 -0.6428 -0.4252 -1.1704
10377TIP3    H152546   4.243   5.082  16.693 -0.0709  0.1581 -2.0734
10377TIP3    H252547   4.148   5.148  16.791 -1.1781 -1.2388 -2.1739
10378TIP3   OH252548   3.300   2.051  11.752  0.3172 -0.2270 -0.6366
10378TIP3    H152549   3.372   2.114  11.751  1.3312 -1.3298  0.1839
10378TIP3    H252550   3.333   1.977  11.803 -1.7807 -0.3273  0.7346
10379TIP3   OH252551   5.660   3.245  10.805  0.1501 -0.1971  0.1181
10379TIP3    H152552   5.593   3.314  10.797 -0.7663 -0.9631  0.8872
10379TIP3    H252553   5.683   3.245  10.897  1.7305  0.4953 -0.2527
10380TIP3   OH252554   0.888   6.719   0.883 -0.3517 -0.3841 -0.0310
10380TIP3    H152555   0.831   6.698   0.956  1.0525  1.9429  1.8790
10380TIP3    H252556   0.947   6.643   0.876  1.0324  0.2536  2.9483
10381TIP3   OH252557   3.422   5.124   4.674 -0.0196  0.2169 -0.0770
10381TIP3    H152558   3.331   5.125   4.643 -0.0648 -0.3206  0.0346
10381TIP3    H252559   3.427   5.048   4.732  0.4071  0.4604  0.2072
10382TIP3   OH252560   2.482   0.732   0.833  0.1881 -0.2088  0.8576
10382TIP3    H152561   2.576   0.728   0.814 -0.2457 -0.7119 -1.5971
10382TIP3    H252562   2.456   0.820   0.804 -0.4104 -0.8021 -0.5360
10383TIP3   OH252563   5.295   1.893  12.173  0.2245 -0.6176  0.7196
10383TIP3    H152564   5.378   1.851  12.195 -0.5262 -1.3742  2.3324
10383TIP3    H252565   5.266   1.932  12.256 -0.5120  0.5736 -0.0710
10384TIP3   OH252566   1.380   0.273   5.800  0.5443  0.1643  0.0128
10384TIP3    H152567   1.443   0.328   5.754  1.0958 -0.8762 -0.5207
10384TIP3    H252568   1.430   0.234   5.871  0.7092 -1.1900 -0.8090
10385TIP3   OH252569   3.822   2.486  14.718  0.0845 -0.3497 -0.8696
10385TIP3    H152570   3.855   2.458  14.803 -0.1066 -0.2197 -0.7502
10385TIP3    H252571   3.882   2.555  14.690 -0.7398  0.7096 -0.1105
10386TIP3   OH252572   1.507   3.506   3.734  0.2422 -0.3465 -0.9995
10386TIP3    H152573   1.538   3.422   3.700 -0.6979 -0.5478 -1.4202
10386TIP3    H252574   1.459   3.482   3.814  0.4749 -0.1441 -0.8016
10387TIP3   OH252575   1.202   4.948  11.692 -0.2840  0.3989  0.1074
10387TIP3    H152576   1.219   5.042  11.688 -0.4285  0.4298  0.2176
10387TIP3    H252577   1.155   4.928  11.612  0.5603  0.2533 -0.3644
10388TIP3   OH252578   5.972   3.465  11.607 -0.7259  0.0390  0.5676
10388TIP3    H152579   5.994   3.477  11.515 -0.7893 -0.3478  0.4995
10388TIP3    H252580   5.972   3.370  11.620 -1.5622  0.0546  0.7574
10389TIP3   OH252581   3.049   0.640  13.175  0.1573  0.1411  0.5381
10389TIP3    H152582   3.127   0.695  13.170 -0.7442  1.3472 -0.9449
10389TIP3    H252583   3.042   0.618  13.268  0.7558  2.2667  1.1515
10390TIP3   OH252584   4.228   0.731   5.733 -0.1937  0.8059 -0.1700
10390TIP3    H152585   4.192   0.712   5.647 -2.0950 -0.5406  0.8400
10390TIP3    H252586   4.318   0.758   5.717  0.0168 -1.0041 -2.4462
10391TIP3   OH252587   5.292   6.232   2.936 -0.0039  0.3197 -0.1647
10391TIP3    H152588   5.343   6.156   2.907  1.0725  0.6776  0.7485
10391TIP3    H252589   5.340   6.308   2.904 -0.8246  0.6530 -0.6590
10392TIP3   OH252590   3.910   0.295   1.926  0.4757  0.3352  0.2394
10392TIP3    H152591   3.959   0.256   1.854 -0.2319 -0.8360  0.3492
10392TIP3    H252592   3.824   0.316   1.888  0.3551  0.4053  0.5468
10393TIP3   OH252593   5.332   1.735   0.827 -0.6457 -1.0013  0.2284
10393TIP3    H152594   5.342   1.641   0.842 -0.9098 -1.1030 -0.2074
10393TIP3    H252595   5.340   1.745   0.732  0.9251 -0.3848  0.4078
10394TIP3   OH252596   0.771   1.965   5.960 -0.2317 -0.1264  0.3631
10394TIP3    H152597   0.857   1.934   5.989 -0.2124  1.8860  2.7526
10394TIP3    H252598   0.713   1.890   5.975  0.8597 -1.1068 -0.1198
10395TIP3   OH252599   3.661   3.172   3.444  0.1511 -0.5767 -0.1802
10395TIP3    H152600   3.616   3.256   3.438  1.3110  0.1100  0.2680
10395TIP3    H252601   3.612   3.122   3.508  0.4959  0.4770  0.9358
10396TIP3   OH252602   1.726   3.617  12.878  0.5247 -0.0564 -0.2113
10396TIP3    H152603   1.749   3.699  12.834  0.3007  1.0162  1.5495
10396TIP3    H252604   1.796   3.603  12.941 -0.1245 -0.4796  0.4313
10397TIP3   OH252605   1.824   2.102   0.687 -0.3918  0.5225  0.5984
10397TIP3    H152606   1.836   2.196   0.697  0.5084  0.3665  1.0367
10397TIP3    H252607   1.732   2.092   0.663 -0.8881  1.4040  2.0413
10398TIP3   OH252608   0.531   3.058   0.277  0.0117 -0.0279  0.8859
10398TIP3    H152609   0.540   3.075   0.183  0.6937  1.1552  1.1475
10398TIP3    H252610   0.576   2.975   0.290  1.0186  0.4128  0.3523
10399TIP3   OH252611   4.372   2.778  14.129  0.1707  0.3337  0.4644
10399TIP3    H152612   4.465   2.755  14.127 -0.1629 -1.3101 -2.4032
10399TIP3    H252613   4.329   2.705  14.174  0.2371  1.3247  2.2347
10400TIP3   OH252614   5.972   3.375  10.984  0.1610 -0.1519  0.2025
10400TIP3    H152615   6.016   3.452  10.949 -0.7618  0.4264  0.2897
10400TIP3    H252616   6.042   3.327  11.029  0.5843  1.1421  1.0151
10401TIP3   OH252617   2.800   2.821   4.680  0.2766 -0.3938  0.1713
10401TIP3    H152618   2.853   2.768   4.620  0.2013  2.4842 -2.7163
10401TIP3    H252619   2.732   2.859   4.624 -0.3571  1.7679  2.2527
10402TIP3   OH252620   0.343   4.926   3.023  0.1358 -0.4131 -0.2177
10402TIP3    H152621   0.356   5.021   3.029 -0.1144 -0.3664 -0.3931
10402TIP3    H252622   0.349   4.895   3.113 -0.6536 -0.1205 -0.0599
10403TIP3   OH252623   4.267   4.710  13.385  0.1311 -0.4168 -0.0161
10403TIP3    H152624   4.256   4.767  13.309 -0.3361  0.1919  0.4931
10403TIP3    H252625   4.352   4.668  13.372 -0.7607 -1.8081 -1.8479
10404TIP3   OH252626   6.084   2.400   2.170  1.1581  0.5391  0.1740
10404TIP3    H152627   6.110   2.343   2.242  0.0545  0.5420  0.6024
10404TIP3    H252628   6.067   2.340   2.097  0.6468  0.3724  0.4244
10405TIP3   OH252629   2.698   3.496   2.883 -0.6949 -0.5297 -0.3922
10405TIP3    H152630   2.722   3.416   2.836  0.2436 -0.5911  0.1596
10405TIP3    H252631   2.735   3.483   2.971 -0.8087  0.3738 -0.2057
10406TIP3   OH252632   2.985   5.586  15.719 -0.4376  0.0015  0.0268
10406TIP3    H152633   3.066   5.609  15.675 -0.3713 -1.6528 -0.8040
10406TIP3    H252634   2.918   5.640  15.677  0.3716  2.5634  1.7960
10407TIP3   OH252635   1.022   1.807  13.844  0.5011 -0.4288 -0.2030
10407TIP3    H152636   0.976   1.799  13.760 -0.2469  0.3795  0.1111
10407TIP3    H252637   1.034   1.717  13.874 -1.4559 -0.6665  0.0007
10408TIP3   OH252638   2.999   2.104  13.334 -0.2788  0.2984 -0.4636
10408TIP3    H152639   2.920   2.110  13.280 -0.8500  2.7698  0.5000
10408TIP3    H252640   2.967   2.077  13.420 -0.0996  1.2809 -0.0755
10409TIP3   OH252641   0.393   0.524  16.645  0.1219 -0.4879 -0.3129
10409TIP3    H152642   0.322   0.571  16.601 -0.9114 -2.3944 -0.8221
10409TIP3    H252643   0.431   0.469  16.577  2.1876  0.5157 -0.0535
10410TIP3   OH252644   3.453   4.305  11.016  0.3007  0.0807  0.3146
10410TIP3    H152645   3.513   4.238  10.986  0.9387  0.6390  0.3238
10410TIP3    H252646   3.472   4.315  11.110 -0.8972 -0.8510  0.6749
10411TIP3   OH252647   0.945   6.513   5.759  0.5771  0.3607 -0.1031
10411TIP3    H152648   0.977   6.600   5.739 -0.6024  0.8033 -0.1450
10411TIP3    H252649   0.873   6.499   5.698 -0.6254  0.2297  1.2839
10412TIP3   OH252650   0.018   2.968  14.285 -0.0190 -0.2157  0.0172
10412TIP3    H152651  -0.009   2.987  14.196 -0.6704 -0.7269  0.0968
10412TIP3    H252652   0.081   2.895  14.276  1.2971  0.8962 -0.1569
10413TIP3   OH252653   5.793   6.737  15.138 -0.2822 -0.4741 -0.2267
10413TIP3    H152654   5.852   6.807  15.109  0.4796 -0.9451  0.1490
10413TIP3    H252655   5.736   6.721  15.063 -0.5079  0.5837 -0.2981
10414TIP3   OH252656   6.109   4.507   6.459  0.3575 -0.0452  0.3405
10414TIP3    H152657   6.130   4.578   6.520  1.2092  0.0513 -0.0483
10414TIP3    H252658   6.017   4.521   6.436  0.3540  0.5847  0.7222
10415TIP3   OH252659   0.322   2.840   3.980 -0.7743  0.0385  0.5208
10415TIP3    H152660   0.411   2.838   4.015 -0.2197 -0.6671 -0.8505
10415TIP3    H252661   0.287   2.925   4.008  0.4815  0.5123  0.7310
10416TIP3   OH252662   2.890   2.009   1.510  0.0122  0.1610  0.0497
10416TIP3    H152663   2.818   2.042   1.564  2.0286  0.6748  2.6106
10416TIP3    H252664   2.910   1.923   1.546 -1.6844 -1.7431 -3.1368
10417TIP3   OH252665   0.123   1.806  12.549  0.0316 -0.3680  0.0019
10417TIP3    H152666   0.117   1.899  12.572 -1.3167 -0.6764  0.9563
10417TIP3    H252667   0.217   1.789  12.544  0.2988  0.9885  0.0510
10418TIP3   OH252668   2.477   6.193  16.353 -0.0574 -0.4776  0.7223
10418TIP3    H152669   2.414   6.126  16.325  0.6277 -0.9505  0.2730
10418TIP3    H252670   2.431   6.242  16.421 -0.7517 -1.0967  0.7147
10419TIP3   OH252671   1.757   4.012   0.041  0.0875  0.4247 -0.2389
10419TIP3    H152672   1.728   3.925   0.068  1.3810  0.1674  0.4381
10419TIP3    H252673   1.757   4.063   0.121  0.1960  0.7872 -0.4687
10420TIP3   OH252674   5.001   0.884   5.908 -0.0721 -0.1142  0.0536
10420TIP3    H152675   5.041   0.800   5.886  2.5676  1.4214 -1.5351
10420TIP3    H252676   4.956   0.911   5.829 -0.7216  0.0981  0.4856
10421TIP3   OH252677   5.169   0.579  16.172  0.0180  0.3599 -0.0051
10421TIP3    H152678   5.094   0.609  16.120  0.0858 -1.9791 -1.5692
10421TIP3    H252679   5.224   0.531  16.111  1.3037 -0.5384  1.7606
10422TIP3   OH252680   6.426   2.316  14.899  0.1299 -0.4223 -0.1799
10422TIP3    H152681   6.506   2.319  14.847  0.6826  0.5298  0.6699
10422TIP3    H252682   6.357   2.294  14.837  0.9721 -0.7252 -1.0304
10423TIP3   OH252683   4.809   1.614  12.512  0.6442  0.2350  0.1705
10423TIP3    H152684   4.818   1.687  12.450  1.0755  0.0313 -0.0056
10423TIP3    H252685   4.758   1.651  12.584  0.8212  0.7010  0.0615
10424TIP3   OH252686   4.609   5.435   3.185  0.3600  0.1906  0.2310
10424TIP3    H152687   4.639   5.525   3.196 -0.3535  0.3742  0.7835
10424TIP3    H252688   4.569   5.412   3.270 -0.0619 -0.4068 -0.1163
10425TIP3   OH252689   4.995   3.519   1.484 -0.5974 -0.1709  0.2210
10425TIP3    H152690   4.903   3.522   1.458 -1.3007  2.8837  2.5348
10425TIP3    H252691   4.994   3.497   1.577  0.9349  0.7147  0.4859
10426TIP3   OH252692   2.376   1.210  16.242  0.1534  0.3032 -0.6112
10426TIP3    H152693   2.295   1.160  16.249  0.5365 -0.1616  0.6768
10426TIP3    H252694   2.429   1.161  16.179 -0.0293 -0.1218 -0.4339
10427TIP3   OH252695   3.022   6.326   5.698 -0.4923  0.3484 -0.1445
10427TIP3    H152696   3.101   6.375   5.676 -0.5068 -0.4678 -2.3013
10427TIP3    H252697   3.039   6.238   5.666 -2.3375  0.2139 -0.8729
10428TIP3   OH252698   2.989   4.071   5.756  0.2578  0.4276 -0.1841
10428TIP3    H152699   2.971   4.143   5.817 -0.4503 -0.2762  0.4515
10428TIP3    H252700   2.905   4.052   5.715  0.2750 -0.5392  0.2115
10429TIP3   OH252701   0.749   0.656  14.759  0.0073 -0.0120  0.7442
10429TIP3    H152702   0.678   0.637  14.820  0.5276 -1.3510  0.9613
10429TIP3    H252703   0.807   0.580  14.766  1.0631  0.7098  0.0042
10430TIP3   OH252704   5.249   3.734  16.271 -0.2594  0.4877 -0.5411
10430TIP3    H152705   5.193   3.726  16.348 -1.4120 -0.1898 -1.4190
10430TIP3    H252706   5.235   3.823  16.240 -0.0305  0.6606 -0.1610
10431TIP3   OH252707   1.238   3.049  14.396  0.2158  0.1509  0.4808
10431TIP3    H152708   1.331   3.064  14.414  0.3988  1.5090 -1.3720
10431TIP3    H252709   1.196   3.133  14.416 -0.9135 -0.8388  2.6852
10432TIP3   OH252710   2.463   5.574  14.882 -0.1180  0.5629  0.5329
10432TIP3    H152711   2.539   5.563  14.824 -0.1340 -0.4543  0.6842
10432TIP3    H252712   2.407   5.637  14.837 -0.0704 -0.1106 -0.5152
10433TIP3   OH252713   4.149   6.197  12.524  0.6241  0.0338 -0.5956
10433TIP3    H152714   4.067   6.244  12.539  1.2576  0.7621  0.8706
10433TIP3    H252715   4.123   6.109  12.497 -0.6272  0.3724 -0.5164
10434TIP3   OH252716   5.007   1.754  16.396 -0.4758 -0.2862  0.2734
10434TIP3    H152717   5.006   1.659  16.384 -0.8029 -0.1038 -1.3618
10434TIP3    H252718   4.989   1.789  16.309  0.5685  1.3006  0.6667
10435TIP3   OH252719   4.943   6.647   5.650 -0.3129  0.3656 -0.1654
10435TIP3    H152720   4.894   6.671   5.571  1.1386 -1.1164 -1.5994
10435TIP3    H252721   5.034   6.668   5.629  0.2632 -1.2098  0.6368
10436TIP3   OH252722   1.157   2.913  15.956 -0.3183  0.0266  0.2099
10436TIP3    H152723   1.193   2.848  15.896  0.1076  0.2702  0.1905
10436TIP3    H252724   1.138   2.989  15.900  0.5765  0.4478  0.4479
10437TIP3   OH252725   5.990   0.499   4.715  0.3745  0.1114 -0.3091
10437TIP3    H152726   5.955   0.437   4.779  0.6022  0.9354  0.6381
10437TIP3    H252727   5.919   0.562   4.702  0.2263 -0.2073 -1.0926
10438TIP3   OH252728   6.353   0.576  14.585  0.1602 -0.1203  0.3209
10438TIP3    H152729   6.390   0.552  14.670 -0.4971  1.5714  1.1370
10438TIP3    H252730   6.301   0.500  14.558  0.5775 -0.7661  1.2929
10439TIP3   OH252731   0.747   6.181  14.845  0.5167 -0.0499  0.3111
10439TIP3    H152732   0.690   6.113  14.810  0.9582  0.6220 -1.8392
10439TIP3    H252733   0.835   6.146  14.836  0.6588  0.1987  0.6709
10440TIP3   OH252734   4.019   5.559   4.645 -0.2357  0.2262  0.0374
10440TIP3    H152735   3.962   5.515   4.583 -0.5896 -1.0190  1.1915
10440TIP3    H252736   4.090   5.594   4.591 -0.4135 -0.9965 -1.0481
10441TIP3   OH252737   3.339   3.499  11.011  0.4114  0.4849 -0.7016
10441TIP3    H152738   3.378   3.415  10.989  0.4688  0.2244  0.3324
10441TIP3    H252739   3.364   3.514  11.103 -2.0606  0.1918  0.1000
10442TIP3   OH252740   5.770   3.981  15.326  0.4026 -0.1247 -0.1786
10442TIP3    H152741   5.845   3.985  15.266 -1.1924 -0.0024 -2.3022
10442TIP3    H252742   5.695   3.964  15.269 -1.2969  0.4095  1.7754
10443TIP3   OH252743   1.473   1.626   2.070 -0.2520 -0.1426 -0.0996
10443TIP3    H152744   1.531   1.596   2.000 -0.3794 -0.9016  0.1104
10443TIP3    H252745   1.492   1.719   2.078  1.3824 -0.4810  0.3825
10444TIP3   OH252746   0.338   1.566   4.617 -0.2426  0.0640 -0.0517
10444TIP3    H152747   0.321   1.655   4.648  1.4701 -0.3669  2.4019
10444TIP3    H252748   0.362   1.517   4.696  0.5270 -2.1578 -1.5632
10445TIP3   OH252749   5.787   0.242  16.904  0.3306  0.2199 -0.1254
10445TIP3    H152750   5.866   0.289  16.877 -0.0119  0.5174 -0.6234
10445TIP3    H252751   5.787   0.247  17.000  0.8113  0.3830 -0.1336
10446TIP3   OH252752   1.522   4.666  12.134 -0.7608 -0.5048 -0.7788
10446TIP3    H152753   1.530   4.760  12.151  0.1172 -0.4825 -1.2360
10446TIP3    H252754   1.515   4.660  12.038  0.4360 -0.9718 -0.8447
10447TIP3   OH252755   6.747   4.595   0.206  0.2881 -0.1168  0.7111
10447TIP3    H152756   6.765   4.524   0.145 -1.2080 -1.0168  1.2799
10447TIP3    H252757   6.681   4.648   0.162  0.2151  0.0139  0.9800
10448TIP3   OH252758   4.837   1.418   2.706  0.1230 -0.1575 -0.3406
10448TIP3    H152759   4.891   1.456   2.776 -0.4033  0.0704 -0.0503
10448TIP3    H252760   4.887   1.435   2.626  0.6429 -0.2521 -0.0440
10449TIP3   OH252761   4.968   1.952   0.704  0.5648 -0.3279  0.2711
10449TIP3    H152762   5.045   1.902   0.676  0.2629  0.1154 -1.4420
10449TIP3    H252763   5.003   2.030   0.746  1.0354 -1.5517  2.2869
10450TIP3   OH252764   6.373   0.937  13.731 -0.0546  0.0226  0.2078
10450TIP3    H152765   6.423   0.871  13.779 -0.6168  0.6839  1.7535
10450TIP3    H252766   6.418   1.020  13.750 -0.1145  0.2617 -0.6614
10451TIP3   OH252767   1.275   4.929   1.595  0.3665 -0.5432 -0.0064
10451TIP3    H152768   1.283   5.020   1.625  0.3855 -0.6983  0.4649
10451TIP3    H252769   1.282   4.935   1.500 -0.5979  0.0674 -0.0606
10452TIP3   OH252770   4.036   0.077  10.900  0.1657 -0.5291  0.0541
10452TIP3    H152771   3.973   0.026  10.848  0.5208 -0.5414 -0.3747
10452TIP3    H252772   4.112   0.020  10.907  0.1667 -0.4761  0.4897
10453TIP3   OH252773   0.150   4.095   0.152  0.1848 -0.0715 -0.1718
10453TIP3    H152774   0.146   4.013   0.104 -1.2309 -0.7854  1.0839
10453TIP3    H252775   0.068   4.098   0.202  1.1048  1.1261  1.3555
10454TIP3   OH252776   1.933   1.539   1.711 -0.4370  0.1134 -0.1874
10454TIP3    H152777   1.857   1.525   1.654  0.3350 -1.6503 -0.8745
10454TIP3    H252778   1.994   1.590   1.657 -0.9588  1.2355  0.2456
10455TIP3   OH252779   3.247   5.802  14.471 -0.3356 -0.2558  0.2160
10455TIP3    H152780   3.327   5.750  14.463  0.6878  1.1724  0.6974
10455TIP3    H252781   3.201   5.763  14.546  0.8477  0.0531  1.1375
10456TIP3   OH252782   5.953   0.738  15.049  0.5531  0.2524 -0.1803
10456TIP3    H152783   6.014   0.665  15.054 -1.0390 -1.1802 -0.9616
10456TIP3    H252784   5.907   0.736  15.133  2.4546  2.2237  1.0178
10457TIP3   OH252785   4.655   0.172   2.322 -0.1103  0.7799 -0.4337
10457TIP3    H152786   4.565   0.160   2.293 -0.8498  1.7351  1.3479
10457TIP3    H252787   4.656   0.141   2.412  1.1325  1.6303 -0.1324
10458TIP3   OH252788   6.332   0.747  12.728  0.3753 -0.0036  0.1843
10458TIP3    H152789   6.332   0.833  12.768 -1.2812  0.2862 -0.3747
10458TIP3    H252790   6.354   0.762  12.636  0.5717 -0.2398  0.1892
10459TIP3   OH252791   3.659   1.962   0.011  0.8735  0.0752  0.2542
10459TIP3    H152792   3.635   1.871   0.027 -2.2724  0.7672  0.1419
10459TIP3    H252793   3.755   1.963   0.015  0.9549 -2.7023  3.0752
10460TIP3   OH252794   2.543   4.303   2.034 -0.0993 -0.3239 -0.4487
10460TIP3    H152795   2.555   4.384   1.984  1.1302  0.5782  1.1773
10460TIP3    H252796   2.579   4.324   2.121  0.5837 -2.7316 -0.0844
10461TIP3   OH252797   1.497   5.215  14.089 -0.0597 -0.4497  0.1867
10461TIP3    H152798   1.434   5.156  14.047 -0.8559  0.4367  0.0914
10461TIP3    H252799   1.515   5.282  14.023  0.8456 -0.5957  0.2812
10462TIP3   OH252800   0.421   5.427  16.512 -0.1076 -0.0514 -0.2422
10462TIP3    H152801   0.435   5.332  16.509 -0.8324 -0.1650 -0.3871
10462TIP3    H252802   0.367   5.445  16.435 -2.3538  0.0331  1.2384
10463TIP3   OH252803   5.669   1.661   3.753 -0.0620 -0.0765  0.5693
10463TIP3    H152804   5.626   1.716   3.687 -0.9099 -0.6585  0.6222
10463TIP3    H252805   5.658   1.708   3.835  1.4422  0.9038  0.2499
10464TIP3   OH252806   2.814   4.005  12.747  0.0054 -0.6618 -0.1957
10464TIP3    H152807   2.760   4.084  12.754  2.5897  1.2093  0.2809
10464TIP3    H252808   2.768   3.949  12.685 -2.6558  0.5602  0.5322
10465TIP3   OH252809   1.535   0.662   3.984 -0.3451  0.3670  0.5444
10465TIP3    H152810   1.493   0.744   3.962  0.7917  1.1444  1.1715
10465TIP3    H252811   1.628   0.684   3.996 -0.1153 -0.8729  1.3619
10466TIP3   OH252812   2.487   4.508   5.431  0.4504 -0.2181 -0.0466
10466TIP3    H152813   2.573   4.548   5.447 -0.7091  2.7920 -0.7290
10466TIP3    H252814   2.426   4.581   5.435 -1.9614 -2.0852 -0.8400
10467TIP3   OH252815   3.524   5.569   1.392 -0.3095 -0.5307  0.6428
10467TIP3    H152816   3.492   5.659   1.402  0.1772 -0.2008 -0.5205
10467TIP3    H252817   3.528   5.557   1.297  1.0913 -1.2483  0.7715
10468TIP3   OH252818   0.277   1.968  13.266 -0.2065 -0.3743 -0.2531
10468TIP3    H152819   0.277   1.878  13.299 -1.4095  0.1143  1.2477
10468TIP3    H252820   0.281   2.022  13.345 -2.3523  0.8670 -0.8988
10469TIP3   OH252821   4.754   2.262   3.977 -0.5014 -0.1356 -0.2911
10469TIP3    H152822   4.711   2.177   3.982 -1.2397  0.2669  0.3766
10469TIP3    H252823   4.704   2.318   4.035  0.9537  0.3447  0.5468
10470TIP3   OH252824   6.178   5.383  11.191  0.7641 -0.2864  0.2420
10470TIP3    H152825   6.158   5.410  11.101 -1.4261  1.6399  1.1905
10470TIP3    H252826   6.201   5.465  11.236  0.2210 -0.9623  1.8150
10471TIP3   OH252827   5.093   0.050   3.429 -0.1883  0.3341  0.2024
10471TIP3    H152828   5.085   0.145   3.445  0.5177  0.5232 -0.5311
10471TIP3    H252829   5.169   0.042   3.373 -1.1551 -0.5502 -1.0200
10472TIP3   OH252830   0.021   3.419   1.394 -0.0417 -0.2401  0.3793
10472TIP3    H152831   0.053   3.376   1.316 -0.4810  1.3946 -0.7623
10472TIP3    H252832   0.034   3.513   1.377  0.3894  0.1356  2.5090
10473TIP3   OH252833   0.966   1.501   2.911 -0.3903 -0.4926 -0.1783
10473TIP3    H152834   0.999   1.545   2.989 -1.1313 -1.5902  0.7859
10473TIP3    H252835   1.002   1.412   2.916 -0.2696 -0.5070 -1.1984
10474TIP3   OH252836   3.082   3.386  14.484 -0.7231  0.1723 -0.4363
10474TIP3    H152837   3.118   3.443  14.553  0.9556  1.2202 -2.0970
10474TIP3    H252838   2.989   3.410  14.481 -0.6848  0.6219  0.9434
10475TIP3   OH252839   2.770   1.343  16.087  0.3372 -0.4210 -0.3380
10475TIP3    H152840   2.768   1.438  16.088  1.7505 -0.2836  3.3247
10475TIP3    H252841   2.722   1.319  16.008 -2.9263  3.2688  0.2223
10476TIP3   OH252842   6.725   0.308  14.270 -0.1269  0.2643  0.2150
10476TIP3    H152843   6.699   0.386  14.320  0.9110 -0.0640  1.3213
10476TIP3    H252844   6.659   0.300  14.201 -0.8972  1.4581  0.7872
10477TIP3   OH252845   1.691   2.204   2.917  0.1917  0.1267  0.1724
10477TIP3    H152846   1.742   2.217   2.837 -0.9526 -2.1316 -1.0140
10477TIP3    H252847   1.715   2.116   2.947 -1.3417 -0.1075  0.8178
10478TIP3   OH252848   2.876   2.825  14.750 -0.2013 -0.4519  0.1389
10478TIP3    H152849   2.914   2.784  14.672 -0.1609 -0.1339 -0.0123
10478TIP3    H252850   2.844   2.752  14.803  2.3457 -0.9155  1.1880
10479TIP3   OH252851   5.388   4.200   6.144 -0.2943  0.7365 -0.2101
10479TIP3    H152852   5.443   4.122   6.134 -0.3293  0.8684 -1.7140
10479TIP3    H252853   5.359   4.198   6.235 -0.2556 -0.9789 -0.2024
10480TIP3   OH252854   5.601   4.467  11.803  0.8230  0.2465 -0.2356
10480TIP3    H152855   5.568   4.425  11.882  0.8933  1.5732  0.5456
10480TIP3    H252856   5.693   4.441  11.799  0.5916 -0.5761 -0.4168
10481TIP3   OH252857   2.010   5.831   5.558 -0.1253  0.3507  0.2075
10481TIP3    H152858   1.942   5.776   5.519  0.3177 -1.1943  1.4981
10481TIP3    H252859   2.086   5.773   5.565  0.0619  0.7910  2.5519
10482TIP3   OH252860   0.532   4.819   1.286 -0.0370 -0.6961 -0.0801
10482TIP3    H152861   0.488   4.903   1.300  1.4916  0.4239 -1.6135
10482TIP3    H252862   0.614   4.826   1.335 -0.4420 -1.8444  0.8315
10483TIP3   OH252863   0.245   1.455   3.557 -0.0490  0.0813  0.2454
10483TIP3    H152864   0.174   1.458   3.493  0.0906 -0.9887  0.0265
10483TIP3    H252865   0.204   1.480   3.639 -0.8678 -1.2830  0.2732
10484TIP3   OH252866   6.425   3.219  11.731 -0.1752  0.5011 -0.4731
10484TIP3    H152867   6.439   3.216  11.636 -0.1307  2.4404 -0.5843
10484TIP3    H252868   6.511   3.200  11.769 -0.4843 -1.6643 -0.7371
10485TIP3   OH252869   1.808   4.415   3.906 -0.2025 -0.5655  0.2846
10485TIP3    H152870   1.714   4.424   3.925 -0.0749 -0.2449  0.7903
10485TIP3    H252871   1.822   4.471   3.830 -0.1094  0.7675  1.2407
10486TIP3   OH252872   5.741   3.504  17.096 -0.0311 -0.0511  0.2777
10486TIP3    H152873   5.809   3.475  17.157  1.7045  0.9971 -1.0524
10486TIP3    H252874   5.664   3.520  17.151  0.3445 -2.4931  1.6734
10487TIP3   OH252875   2.217   2.346  13.663  0.0011 -0.1511 -0.1411
10487TIP3    H152876   2.182   2.434  13.650  1.9117  0.9591  1.5350
10487TIP3    H252877   2.163   2.308  13.732 -0.5563 -0.1316 -0.5641
10488TIP3   OH252878   0.946   5.911   6.414 -0.1470 -0.0509  0.2093
10488TIP3    H152879   0.984   5.969   6.347  1.1377  0.4699  1.3495
10488TIP3    H252880   1.015   5.848   6.433  0.4960  1.2975  2.7832
10489TIP3   OH252881   2.626   5.078  17.109  0.2053 -0.1054 -0.0102
10489TIP3    H152882   2.554   5.029  17.149 -0.3533  0.4634 -0.3043
10489TIP3    H252883   2.669   5.121  17.182  0.7805 -1.1097  0.2719
10490TIP3   OH252884   5.489   5.216  17.248  0.2222 -0.2737 -0.1878
10490TIP3    H152885   5.513   5.262  17.168  1.0515 -1.7543 -0.8214
10490TIP3    H252886   5.393   5.215  17.247  0.2141 -1.5366 -1.9454
10491TIP3   OH252887   0.771   2.510   4.416  0.4842  0.3696 -0.1638
10491TIP3    H152888   0.676   2.520   4.423  0.3105 -1.1999 -0.0655
10491TIP3    H252889   0.806   2.566   4.486 -0.3719  0.6679  0.0423
10492TIP3   OH252890   3.049   0.165   3.486  0.2992 -0.2379  0.1287
10492TIP3    H152891   2.956   0.152   3.467  0.7462 -2.4224 -0.8150
10492TIP3    H252892   3.091   0.161   3.400  1.3660 -0.0891  0.6336
10493TIP3   OH252893   0.027   5.477  11.798  0.1310 -0.3897  0.2091
10493TIP3    H152894  -0.016   5.552  11.757  2.7613  0.6094 -0.9312
10493TIP3    H252895   0.009   5.486  11.891 -1.3088  0.4725 -0.1276
10494TIP3   OH252896   0.272   5.537  11.416 -0.0874  0.3625 -0.7625
10494TIP3    H152897   0.314   5.484  11.483 -0.9712 -1.4498 -1.5674
10494TIP3    H252898   0.180   5.540  11.442 -0.4354 -0.3228 -1.8221
10495TIP3   OH252899   5.989   1.395  13.618 -0.3645 -0.3208  0.3010
10495TIP3    H152900   5.943   1.403  13.534 -1.1129 -0.3842  0.6959
10495TIP3    H252901   5.926   1.427  13.682  0.1047 -0.5325  0.8715
10496TIP3   OH252902   3.941   0.812   4.239  0.1347 -0.5107  0.3779
10496TIP3    H152903   3.961   0.896   4.282 -0.1931 -0.6733  0.8543
10496TIP3    H252904   4.027   0.777   4.214  0.1795  0.8904 -1.6437
10497TIP3   OH252905   2.189   1.670  10.768  0.1330  0.2519 -1.0821
10497TIP3    H152906   2.121   1.683  10.834  0.5479  0.4686 -0.6938
10497TIP3    H252907   2.142   1.632  10.693  0.1097 -2.6359  0.2743
10498TIP3   OH252908   2.091   4.336   0.374 -0.0921  0.3219  0.2808
10498TIP3    H152909   2.178   4.298   0.365 -0.6670 -0.9946  0.0744
10498TIP3    H252910   2.069   4.324   0.466 -0.4691 -0.3043  0.1147
10499TIP3   OH252911   2.104   2.281  14.956 -0.2354  0.7615  0.5767
10499TIP3    H152912   2.042   2.286  14.884  0.1324 -0.0410  0.1830
10499TIP3    H252913   2.132   2.371  14.971 -0.1363  0.9153 -0.4502
10500TIP3   OH252914   3.059   6.262  15.672 -0.2979 -0.5325 -0.0617
10500TIP3    H152915   3.077   6.289  15.763  0.8406  0.2127 -0.4877
10500TIP3    H252916   3.105   6.179  15.663 -0.0702 -0.4070 -0.0720
10501TIP3   OH252917   0.738   2.144  11.451  0.1502 -0.4464 -0.3818
10501TIP3    H152918   0.718   2.200  11.526 -1.1668  2.5470 -2.7355
10501TIP3    H252919   0.672   2.076  11.453 -1.8950  1.4164 -0.4410
10502TIP3   OH252920   1.683   3.365  11.593  0.4555 -0.2542 -0.4093
10502TIP3    H152921   1.769   3.323  11.588  0.4490 -0.2687 -0.3980
10502TIP3    H252922   1.670   3.404  11.507  1.1910  1.1459  0.0705
10503TIP3   OH252923   1.616   3.878   1.767 -0.4006 -0.4837  0.2938
10503TIP3    H152924   1.592   3.933   1.841 -1.3884 -0.6668  0.1238
10503TIP3    H252925   1.585   3.926   1.690  1.7902  0.3543 -0.1579
10504TIP3   OH252926   5.118   3.678  12.160  0.3018  0.1758 -0.0888
10504TIP3    H152927   5.112   3.773  12.169  0.5972  0.0837  1.4013
10504TIP3    H252928   5.039   3.654  12.110 -1.1383  0.9864  1.6598
10505TIP3   OH252929   3.295   6.423  17.143  0.1166 -0.2800 -0.0189
10505TIP3    H152930   3.215   6.370  17.151 -0.4484  0.5819  0.2732
10505TIP3    H252931   3.295   6.452  17.052 -1.4248  1.9624  0.6094
10506TIP3   OH252932   2.499   0.528   6.052  0.3234  0.3671 -0.1778
10506TIP3    H152933   2.563   0.501   6.118 -0.8572  0.7939  1.2140
10506TIP3    H252934   2.545   0.593   5.999  1.2215  0.2316  0.4078
10507TIP3   OH252935   0.054   0.049   3.178  0.4933 -0.5888  0.0761
10507TIP3    H152936   0.148   0.063   3.189  0.2012  2.9620 -0.8491
10507TIP3    H252937   0.022   0.032   3.267  1.6334  1.5782  0.9856
10508TIP3   OH252938   0.176   5.072   4.608 -0.1261  0.3122 -0.4151
10508TIP3    H152939   0.188   5.014   4.684 -0.5184  0.7464 -0.0126
10508TIP3    H252940   0.221   5.153   4.633 -0.6875  0.6342 -0.4384
10509TIP3   OH252941   4.628   4.377   0.893  0.2457 -0.0604  0.1924
10509TIP3    H152942   4.686   4.314   0.936  0.3756  0.2237  0.4394
10509TIP3    H252943   4.562   4.324   0.850  0.1304 -0.3507  0.7205
10510TIP3   OH252944   2.767   5.359   1.179 -0.6971  0.9344  0.4883
10510TIP3    H152945   2.794   5.450   1.190 -0.6456  0.8335  1.2863
10510TIP3    H252946   2.730   5.355   1.091 -1.6546  1.9821  0.8134
10511TIP3   OH252947   5.798   5.855  17.140  0.2289  0.8050 -0.2755
10511TIP3    H152948   5.724   5.800  17.116 -0.0347  1.0954 -0.1326
10511TIP3    H252949   5.759   5.933  17.179  0.6270 -0.0924  2.1496
10512TIP3   OH252950   2.325   2.254   1.023 -0.0011 -0.6060  0.2623
10512TIP3    H152951   2.403   2.309   1.013 -1.1615  1.1354  0.4205
10512TIP3    H252952   2.256   2.302   0.978 -1.1249 -1.8409  0.6067
10513TIP3   OH252953   3.521   4.098   2.828 -0.3840 -0.1799  0.9158
10513TIP3    H152954   3.506   4.048   2.748  0.1519  1.1260 -0.0387
10513TIP3    H252955   3.455   4.067   2.890 -1.8179 -0.1344 -0.5445
10514TIP3   OH252956   2.403   2.177   3.201 -0.4627 -0.0559 -0.5379
10514TIP3    H152957   2.436   2.087   3.204 -1.7110 -0.5663 -1.4380
10514TIP3    H252958   2.478   2.228   3.170  0.1944 -0.8119 -0.2466
10515TIP3   OH252959   0.059   6.411  10.431 -0.5708  0.4445 -0.0436
10515TIP3    H152960   0.062   6.499  10.468 -1.1813  0.0138  1.0594
10515TIP3    H252961   0.151   6.385  10.426 -0.2148  1.8533 -2.2117
10516TIP3   OH252962   3.383   1.416  15.068  0.3726  0.4721 -0.3968
10516TIP3    H152963   3.419   1.353  15.130 -0.6596  0.8706  0.6502
10516TIP3    H252964   3.312   1.459  15.116  0.6394  1.9896 -1.2773
10517TIP3   OH252965   5.926   3.368   4.423 -0.3131  0.2457 -0.1389
10517TIP3    H152966   5.961   3.283   4.399  0.5798  0.7098 -0.5324
10517TIP3    H252967   5.864   3.390   4.353  0.7521  0.6843 -0.9634
10518TIP3   OH252968   3.748   0.721   2.981  0.3657  0.1131 -0.0323
10518TIP3    H152969   3.675   0.783   2.984  1.0625  0.9366  0.3251
10518TIP3    H252970   3.707   0.638   2.958 -0.7414  0.4650  0.5637
10519TIP3   OH252971   0.665   6.656   1.003  0.1894  0.8281  0.0861
10519TIP3    H152972   0.590   6.682   1.056 -0.3127  1.5938 -0.9516
10519TIP3    H252973   0.627   6.633   0.918  0.9002 -1.0125  0.2351
10520TIP3   OH252974   1.547   4.160   3.572 -0.4386 -0.5098  0.2077
10520TIP3    H152975   1.536   4.083   3.627  1.2582 -1.3745 -0.5790
10520TIP3    H252976   1.609   4.215   3.619 -3.0348  1.3686  1.6797
10521TIP3   OH252977   5.834   5.094   4.961 -0.2408  0.6188 -0.0878
10521TIP3    H152978   5.881   5.119   5.041  1.2089  2.0860 -1.3147
10521TIP3    H252979   5.750   5.060   4.992  1.0175 -0.6838  2.1321
10522TIP3   OH252980   6.469   3.964   0.970 -0.2505 -0.3863 -0.2571
10522TIP3    H152981   6.500   3.874   0.980  0.8390 -0.0836 -0.7467
10522TIP3    H252982   6.404   3.959   0.900 -0.7380 -0.9066  0.2279
10523TIP3   OH252983   4.043   3.605  15.546 -0.4290 -0.2087 -0.3599
10523TIP3    H152984   4.035   3.512  15.567  0.2510 -0.1124  0.3404
10523TIP3    H252985   4.132   3.616  15.514 -0.1766  0.3768  0.5074
10524TIP3   OH252986   4.903   3.424  12.872 -0.2737 -0.1409  0.2432
10524TIP3    H152987   4.911   3.329  12.865 -1.2738 -0.3090  1.1393
10524TIP3    H252988   4.848   3.450  12.798 -1.7344 -0.5413  1.1498
10525TIP3   OH252989   2.917   4.521  12.424  0.2148  0.4243  0.2777
10525TIP3    H152990   2.942   4.478  12.342 -0.8146 -1.7371  1.0172
10525TIP3    H252991   2.959   4.606  12.420 -1.4682  1.3072 -3.4536
10526TIP3   OH252992   0.616   5.551   2.721  0.5150  0.3736 -0.5923
10526TIP3    H152993   0.706   5.579   2.731  0.6078  0.3144 -1.2083
10526TIP3    H252994   0.584   5.599   2.644  0.3050 -0.2660 -0.9176
10527TIP3   OH252995   2.848   2.781   1.610  0.0178  0.3346  0.0499
10527TIP3    H152996   2.791   2.746   1.678 -0.0933 -1.1546 -0.7477
10527TIP3    H252997   2.886   2.860   1.648 -1.6412  0.7033  1.0420
10528TIP3   OH252998   0.824   1.550   1.384  0.5127 -0.1395 -0.0030
10528TIP3    H152999   0.767   1.489   1.431 -0.4094  1.2414  0.7294
10528TIP3    H253000   0.766   1.594   1.322  0.9344  0.7758  0.2451
10529TIP3   OH253001   5.245   4.081   0.604  0.7604  0.2705 -0.9447
10529TIP3    H153002   5.185   4.140   0.559  2.3249  1.1407 -1.9696
10529TIP3    H253003   5.252   4.005   0.546  1.9232  0.9169 -1.7046
10530TIP3   OH253004   3.504   2.952  13.345  0.2765 -0.4255 -0.1537
10530TIP3    H153005   3.565   2.909  13.404 -1.4279 -1.4234  0.9474
10530TIP3    H253006   3.484   3.035  13.387  0.6847 -0.1990 -0.4007
10531TIP3   OH253007   5.356   0.674   0.056  0.1580  0.1379  0.3624
10531TIP3    H153008   5.371   0.717   0.141  1.0273 -0.9169  0.7606
10531TIP3    H253009   5.325   0.745  -0.001 -1.0075  0.7576  1.6951
10532TIP3   OH253010   3.444   6.609  16.591 -0.4446  0.4477 -0.3236
10532TIP3    H153011   3.513   6.672  16.570 -0.5856  1.4822  1.9968
10532TIP3    H253012   3.379   6.661  16.639 -1.2702 -1.1711  0.3864
10533TIP3   OH253013   0.986   0.070   2.661  0.9243 -0.1773  0.2429
10533TIP3    H153014   1.080   0.079   2.677  0.7623  1.3663  0.4325
10533TIP3    H253015   0.977   0.080   2.567  0.9695 -0.7214  0.1731
10534TIP3   OH253016   3.562   2.311  15.193 -0.0458 -0.0707  0.2423
10534TIP3    H153017   3.502   2.368  15.145 -1.0718 -0.5949  0.8852
10534TIP3    H253018   3.558   2.341  15.283  0.4635 -0.2763  0.3392
10535TIP3   OH253019   3.676   3.188   2.318  0.0626 -0.2228  0.1384
10535TIP3    H153020   3.623   3.254   2.272 -0.3458 -0.9477 -0.4570
10535TIP3    H253021   3.681   3.220   2.408  0.0407  0.7225 -0.1853
10536TIP3   OH253022   1.826   1.309   5.589 -0.3400  0.0592 -0.4759
10536TIP3    H153023   1.827   1.272   5.501 -1.2268  2.0841 -1.3884
10536TIP3    H253024   1.751   1.267   5.632  0.6284 -1.6187 -0.3019
10537TIP3   OH253025   4.027   0.206   6.457  0.3247 -0.1494  0.6248
10537TIP3    H153026   4.111   0.249   6.474 -0.3298  0.6804  2.0112
10537TIP3    H253027   4.036   0.119   6.496  0.2591  0.2576  1.5829
10538TIP3   OH253028   1.341   4.329   5.958 -0.1210 -0.1301  0.3890
10538TIP3    H153029   1.410   4.319   6.024 -0.4207 -0.7563  0.6159
10538TIP3    H253030   1.348   4.251   5.903 -0.1365  0.1907 -0.0823
10539TIP3   OH253031   0.439   2.547  12.310 -0.8003  0.6561  0.3216
10539TIP3    H153032   0.423   2.562  12.216  1.2833  3.2320  0.2727
10539TIP3    H253033   0.510   2.484  12.312 -0.7860  0.6669  0.1748
10540TIP3   OH253034   3.317   4.084  12.488  0.3304  0.3187 -0.1892
10540TIP3    H153035   3.274   4.026  12.425  0.1424  1.2424 -0.9352
10540TIP3    H253036   3.250   4.148  12.512  0.8166  0.8159 -0.1302
10541TIP3   OH253037   4.702   2.658   2.853  0.0386  0.3343  0.3541
10541TIP3    H153038   4.642   2.613   2.913 -1.4250  2.4219  0.5802
10541TIP3    H253039   4.676   2.626   2.766 -1.2263  0.9637  0.4772
10542TIP3   OH253040   0.316   1.113  12.696 -0.1007  0.0736 -0.3155
10542TIP3    H153041   0.233   1.119  12.648 -0.9394 -0.4886  1.0124
10542TIP3    H253042   0.344   1.204  12.706  0.6657  0.1688 -2.7682
10543TIP3   OH253043   6.668   2.692  13.826  0.4424 -0.5711  0.1425
10543TIP3    H153044   6.628   2.626  13.882 -1.8994  0.9900  0.4657
10543TIP3    H253045   6.756   2.658  13.807 -0.7197 -3.8337  0.0740
10544TIP3   OH253046   4.420   3.083   5.625  0.7622  0.1185  0.2198
10544TIP3    H153047   4.469   3.119   5.551  0.3551 -0.4439 -0.3291
10544TIP3    H253048   4.357   3.151   5.647  2.0300  1.0230  1.1963
10545TIP3   OH253049   3.766   4.499  16.647 -0.2278 -0.5421  0.0710
10545TIP3    H153050   3.724   4.580  16.678 -0.3021 -0.8460  0.7773
10545TIP3    H253051   3.787   4.517  16.555 -2.5881 -0.6426 -0.5635
10546TIP3   OH253052   4.121   1.518   5.364 -0.3116 -0.3047  1.0339
10546TIP3    H153053   4.144   1.561   5.282 -3.4534 -0.4649 -0.0649
10546TIP3    H253054   4.154   1.577   5.432  2.4938 -0.2369 -0.2812
10547TIP3   OH253055   2.500   4.426   0.001 -0.0369 -0.2114 -0.0785
10547TIP3    H153056   2.578   4.458   0.045 -0.6535 -0.1318  0.9869
10547TIP3    H253057   2.462   4.504  -0.040  0.3049 -0.2113 -0.4044
10548TIP3   OH253058   5.902   4.698  12.938 -0.4220  0.1332 -0.0132
10548TIP3    H153059   5.906   4.687  13.033  2.1651 -2.3231 -0.2401
10548TIP3    H253060   5.983   4.745  12.916 -0.6010 -0.0151 -1.0318
10549TIP3   OH253061   6.639   4.228  15.965 -0.0866  0.0224 -0.3527
10549TIP3    H153062   6.620   4.302  15.907 -0.0225  0.8044  0.5893
10549TIP3    H253063   6.556   4.213  16.012 -0.6303 -1.6505 -1.7431
10550TIP3   OH253064   4.434   5.264  12.848  0.3015  0.4071 -0.0929
10550TIP3    H153065   4.465   5.195  12.907 -0.3667  0.1665 -0.0168
10550TIP3    H253066   4.386   5.218  12.780 -0.2780  0.8040  0.0400
10551TIP3   OH253067   5.539   2.529  12.577 -0.0342 -0.1858  0.4419
10551TIP3    H153068   5.497   2.567  12.499  2.9208  2.2458 -0.1237
10551TIP3    H253069   5.472   2.537  12.645 -1.3660  1.2691 -0.9261
10552TIP3   OH253070   3.669   6.190  14.264  0.0960 -0.2576 -0.4893
10552TIP3    H153071   3.708   6.277  14.273 -0.2634 -0.2025  0.7484
10552TIP3    H253072   3.739   6.136  14.227  0.5011  0.4194 -0.7464
10553TIP3   OH253073   4.121   0.305  13.904 -0.3345 -0.4623  0.9417
10553TIP3    H153074   4.047   0.343  13.857 -0.2956 -0.9021  0.5192
10553TIP3    H253075   4.092   0.301  13.995 -0.8265 -0.6377  0.7756
10554TIP3   OH253076   6.443   5.823   3.887  0.0074 -0.2513  0.5802
10554TIP3    H153077   6.536   5.841   3.869 -0.7868  2.1393 -1.7182
10554TIP3    H253078   6.443   5.733   3.921  3.1936 -0.1257  1.2704
10555TIP3   OH253079   5.687   1.604   1.168 -0.1682  0.0531 -0.6538
10555TIP3    H153080   5.773   1.636   1.141  0.3258  0.3473  1.1875
10555TIP3    H253081   5.629   1.632   1.097  1.0769  0.6569 -1.4876
10556TIP3   OH253082   5.157   2.126  14.451  0.5046  0.0522  0.2974
10556TIP3    H153083   5.133   2.219  14.446 -1.2770 -0.3789  0.5008
10556TIP3    H253084   5.248   2.127  14.482  0.7579  1.7370 -0.3546
10557TIP3   OH253085   0.350   0.573  12.867  0.2160  0.6968  1.1872
10557TIP3    H153086   0.352   0.601  12.776 -0.2262  0.0524  0.9679
10557TIP3    H253087   0.371   0.651  12.917  0.6942  0.9972  0.5207
10558TIP3   OH253088   5.695   6.061  17.275 -0.4631 -0.7302 -0.5693
10558TIP3    H153089   5.625   6.123  17.256  2.1994  2.8863  0.1523
10558TIP3    H253090   5.725   6.086  17.363  3.1971 -0.3285 -1.7507
10559TIP3   OH253091   1.380   5.665   4.918  0.2590  0.1358 -0.3438
10559TIP3    H153092   1.326   5.658   4.840 -0.9225  0.7620  0.3839
10559TIP3    H253093   1.339   5.604   4.980  0.1237  0.9148  0.3490
10560TIP3   OH253094   5.308   6.581  13.442  0.1615 -0.9076 -0.1355
10560TIP3    H153095   5.379   6.645  13.437  0.5594 -1.4479 -2.5665
10560TIP3    H253096   5.340   6.516  13.505  1.5999 -0.8209 -0.7203
10561TIP3   OH253097   5.863   4.156   5.214  0.6364  0.4073 -0.0594
10561TIP3    H153098   5.839   4.248   5.205  1.1301  0.5628  0.1325
10561TIP3    H253099   5.803   4.122   5.280 -0.7694  0.1097 -1.4480
10562TIP3   OH253100   2.793   5.562  12.056  0.5130 -0.0438 -0.2760
10562TIP3    H153101   2.769   5.636  12.111 -0.0318 -0.6945  0.3709
10562TIP3    H253102   2.884   5.579  12.031  0.6669  0.4050  0.5748
10563TIP3   OH253103   1.322   3.170   0.826  0.8274 -0.1659 -0.0277
10563TIP3    H153104   1.320   3.131   0.738  1.7048 -2.3529  0.8553
10563TIP3    H253105   1.267   3.112   0.879  1.8109  0.0418  1.2712
10564TIP3   OH253106   5.784   5.854   5.958  0.0761 -0.6128 -0.4087
10564TIP3    H153107   5.814   5.769   5.992  1.6119  0.2301  0.4706
10564TIP3    H253108   5.759   5.903   6.036  1.0879  0.4145 -0.7014
10565TIP3   OH253109   2.197   5.262   3.722 -0.2309  0.8162  0.0394
10565TIP3    H153110   2.242   5.324   3.664  1.0042 -0.6667 -0.6516
10565TIP3    H253111   2.111   5.250   3.681 -0.2877  1.6298 -0.1103
10566TIP3   OH253112   5.197   3.174   5.442 -0.2678 -0.6966 -0.3613
10566TIP3    H153113   5.196   3.199   5.534  3.1550  0.6022 -0.5143
10566TIP3    H253114   5.154   3.247   5.397  1.4888  0.6510 -0.0071
10567TIP3   OH253115   0.607   6.441  15.336 -0.7880  0.4107 -0.2392
10567TIP3    H153116   0.580   6.433  15.427  0.5029  1.0236  0.2261
10567TIP3    H253117   0.553   6.378  15.289 -0.4163 -1.0183  1.1738
10568TIP3   OH253118   1.531   6.020  11.619 -0.4068 -0.1881  0.1823
10568TIP3    H153119   1.558   6.000  11.529 -1.6934 -1.8789  0.1039
10568TIP3    H253120   1.554   5.942  11.668 -0.9131  0.1979  1.0480
10569TIP3   OH253121   2.036   2.535  16.904 -0.2606 -0.0656  0.6039
10569TIP3    H153122   2.064   2.569  16.819 -1.1832 -1.3543 -0.2595
10569TIP3    H253123   2.096   2.575  16.967  0.5599  0.7817 -0.6646
10570TIP3   OH253124   3.237   1.673   3.328 -0.5960  0.5502  0.3238
10570TIP3    H153125   3.254   1.736   3.398 -0.5399  0.5946  0.2707
10570TIP3    H253126   3.143   1.654   3.334 -0.3471 -0.4659  1.2632
10571TIP3   OH253127   3.933   5.513  12.543 -0.2987 -0.4088  0.1124
10571TIP3    H153128   3.951   5.420  12.527  1.3889  0.1478 -1.6711
10571TIP3    H253129   4.012   5.546  12.586 -0.6367  0.3384  0.1778
10572TIP3   OH253130   2.883   5.179   4.680  0.0894  0.3411 -0.4452
10572TIP3    H153131   2.901   5.113   4.747 -1.8884  0.1775 -0.0110
10572TIP3    H253132   2.928   5.258   4.711  0.3199 -0.0961  0.3598
10573TIP3   OH253133   3.811   5.591  12.209  0.1422  0.2071 -0.6942
10573TIP3    H153134   3.870   5.597  12.284 -1.0980 -0.0992  0.3282
10573TIP3    H253135   3.804   5.681  12.176  2.7275 -0.0107 -2.1076
10574TIP3   OH253136   0.018   3.672   0.052 -0.7001 -0.6020  0.1533
10574TIP3    H153137   0.089   3.627   0.098  0.1599  0.0624 -0.4853
10574TIP3    H253138  -0.058   3.659   0.108 -0.7671 -3.7120 -0.4961
10575TIP3   OH253139   6.296   3.538   2.504  0.0918  0.1494  0.2423
10575TIP3    H153140   6.235   3.505   2.438  1.3332 -1.8048 -0.0053
10575TIP3    H253141   6.333   3.617   2.465 -1.4558  0.7702 -0.0411
10576TIP3   OH253142   5.964   2.684   5.310 -0.1604 -0.3848 -0.1960
10576TIP3    H153143   5.992   2.595   5.332 -0.3514 -1.0983 -2.5839
10576TIP3    H253144   6.044   2.737   5.316  0.1735 -0.9237  0.1854
10577TIP3   OH253145   1.734   1.127   5.003  0.1297 -0.1975  0.1915
10577TIP3    H153146   1.817   1.151   4.961 -0.3154  0.8526 -0.1269
10577TIP3    H253147   1.725   1.033   4.987  1.1927 -0.3012  0.1266
10578TIP3   OH253148   0.226   4.945   5.652 -0.1408  0.3939  0.0381
10578TIP3    H153149   0.275   5.021   5.619  1.2005 -1.7723 -3.6708
10578TIP3    H253150   0.238   4.879   5.584 -4.0997 -2.0433  1.4164
10579TIP3   OH253151   5.742   4.580  15.515 -0.5886 -0.5285 -0.1830
10579TIP3    H153152   5.746   4.628  15.598 -1.1790 -1.6308  0.5076
10579TIP3    H253153   5.829   4.590  15.477 -0.4832  0.4575  0.2998
10580TIP3   OH253154   1.333   2.054   0.046  1.0534 -0.1849 -0.5837
10580TIP3    H153155   1.409   2.092   0.089  1.3617  0.8373 -1.9412
10580TIP3    H253156   1.331   1.963   0.074  0.7792  0.5845  2.1481
10581TIP3   OH253157   3.437   5.632  15.230 -0.9860 -0.0291  0.3123
10581TIP3    H153158   3.441   5.619  15.135 -0.4784 -0.0247  0.3320
10581TIP3    H253159   3.388   5.713  15.241 -0.9784  0.0120  0.0502
10582TIP3   OH253160   2.180   2.861  14.326  0.6013 -0.0443  0.6915
10582TIP3    H153161   2.155   2.904  14.245 -2.1428 -0.8739  1.0211
10582TIP3    H253162   2.226   2.929  14.376  1.6890  0.6716 -1.1997
10583TIP3   OH253163   0.535   3.817  16.203 -0.1627 -0.2719 -0.4441
10583TIP3    H153164   0.591   3.894  16.191  2.3427 -1.9651 -0.2275
10583TIP3    H253165   0.498   3.801  16.116  1.1584 -0.1666 -1.0409
10584TIP3   OH253166   2.289   6.354  14.971 -0.1050  0.2052  0.1455
10584TIP3    H153167   2.341   6.274  14.967 -0.4267 -0.1002  1.5975
10584TIP3    H253168   2.353   6.425  14.967  0.1654 -0.0826 -1.3894
10585TIP3   OH253169   5.113   5.457  11.696  0.4302 -0.0927 -0.2231
10585TIP3    H153170   5.054   5.504  11.638  0.1422  1.5300  1.3066
10585TIP3    H253171   5.063   5.444  11.777  1.4004 -0.7210  0.3032
10586TIP3   OH253172   0.463   3.736  13.864 -0.1120  0.0482 -0.1820
10586TIP3    H153173   0.458   3.806  13.929 -0.0786  0.3140 -0.4631
10586TIP3    H253174   0.477   3.657  13.916  0.8474  0.3748  0.0864
10587TIP3   OH253175   0.988   5.165  16.426  0.2985 -0.4874  0.1096
10587TIP3    H153176   1.012   5.256  16.447  0.4953 -1.0620  2.6659
10587TIP3    H253177   1.035   5.147  16.344  1.2199  1.3399  0.1770
10588TIP3   OH253178   6.217   0.535   1.031 -0.1379  0.2422 -0.0478
10588TIP3    H153179   6.215   0.493   1.117 -0.4830 -0.3197 -0.3265
10588TIP3    H253180   6.278   0.609   1.042  0.2256 -0.1336  0.5362
10589TIP3   OH253181   3.218   3.431   2.047  0.1192  0.1662 -0.0601
10589TIP3    H153182   3.307   3.465   2.036  0.5479 -0.8611  0.1532
10589TIP3    H253183   3.198   3.445   2.140 -0.7204  2.1833 -0.4832
10590TIP3   OH253184   3.213   4.929   4.565 -0.2043 -0.2953 -0.2875
10590TIP3    H153185   3.215   4.858   4.629  1.2690  0.0908  0.1334
10590TIP3    H253186   3.243   4.889   4.484  1.4214 -0.0131  0.1397
10591TIP3   OH253187   2.752   4.670  15.717 -0.3147 -0.2671  0.0867
10591TIP3    H153188   2.779   4.728  15.646 -0.0954 -0.4463  0.0228
10591TIP3    H253189   2.711   4.596  15.673  0.6665 -0.8307  0.0909
10592TIP3   OH253190   1.450   5.980  12.660 -0.5933  0.4059  0.0844
10592TIP3    H153191   1.447   6.047  12.728  0.1884  0.1687  0.3596
10592TIP3    H253192   1.430   5.899  12.706  0.7851  0.1166  0.2159
10593TIP3   OH253193   0.603   5.941   0.118  0.1338 -0.1907 -0.0771
10593TIP3    H153194   0.611   5.888   0.038  1.3267  0.9745 -0.7736
10593TIP3    H253195   0.536   6.007   0.096  0.7995  0.4237 -0.3153
10594TIP3   OH253196   1.722   2.852   6.208 -0.4166  0.3091 -0.2939
10594TIP3    H153197   1.631   2.824   6.202 -0.5854 -0.0332  2.5582
10594TIP3    H253198   1.719   2.946   6.189 -1.2655  0.2008 -0.7633
10595TIP3   OH253199   1.655   3.243   3.785 -0.8133 -0.2374  0.6171
10595TIP3    H153200   1.718   3.297   3.737 -3.8996  2.2382 -1.0002
10595TIP3    H253201   1.689   3.241   3.875  0.8337  2.2401  0.1534
10596TIP3   OH253202   5.987   0.068   0.284  0.5007  0.1463  0.3005
10596TIP3    H153203   6.028  -0.018   0.283  2.7282  1.1147 -2.5126
10596TIP3    H253204   6.036   0.117   0.351 -1.0530 -0.7752  2.2206
10597TIP3   OH253205   4.887   1.562  11.658 -0.0650 -0.2176  0.6108
10597TIP3    H153206   4.965   1.567  11.602 -1.7357 -0.6037 -1.9021
10597TIP3    H253207   4.856   1.653  11.663  0.4455 -0.0706  1.5829
10598TIP3   OH253208   5.764   5.857  14.956  0.2915  0.0245 -0.1920
10598TIP3    H153209   5.858   5.863  14.975  0.4480  0.1467 -0.9767
10598TIP3    H253210   5.738   5.947  14.935  0.5249 -0.3463 -2.3061
10599TIP3   OH253211   0.002   2.936   4.626 -0.6110  0.2178  0.3774
10599TIP3    H153212  -0.063   2.904   4.689 -0.0510 -0.2443  0.7193
10599TIP3    H253213   0.048   3.006   4.672 -0.1581 -0.1634  0.5042
10600TIP3   OH253214   4.200   1.063  12.470 -0.2447  0.0144  0.1595
10600TIP3    H153215   4.115   1.025  12.449 -0.4899  0.1264  0.9092
10600TIP3    H253216   4.198   1.076  12.565  1.5499 -2.2656  0.5885
10601TIP3   OH253217   4.324   4.974   2.396 -0.2294  0.7872  0.1036
10601TIP3    H153218   4.392   4.955   2.331 -1.8277 -0.5721 -1.2660
10601TIP3    H253219   4.307   4.890   2.438 -0.7530  1.1965  0.7335
10602TIP3   OH253220   4.629   5.941  11.938 -0.1679 -0.5553  0.0204
10602TIP3    H153221   4.679   6.023  11.934  1.7223 -1.6673 -1.0957
10602TIP3    H253222   4.695   5.873  11.920 -1.1181 -2.5772  3.3262
10603TIP3   OH253223   0.670   5.852  12.438 -1.0229  0.0130  0.1270
10603TIP3    H153224   0.683   5.922  12.374 -0.3107  0.7333  1.0333
10603TIP3    H253225   0.715   5.883  12.517 -2.3785 -0.5921  1.1692
10604TIP3   OH253226   1.213   4.471   0.906 -0.2338 -0.0241  0.2012
10604TIP3    H153227   1.263   4.518   0.839 -0.4573  0.2460  0.2205
10604TIP3    H253228   1.158   4.410   0.856  0.0696 -0.2807  0.1769
10605TIP3   OH253229   6.517   2.393  11.985  0.3377 -0.7896 -0.7350
10605TIP3    H153230   6.471   2.410  12.068  1.4410 -1.0891 -0.0431
10605TIP3    H253231   6.537   2.299  11.988  0.9762 -0.6651 -1.0292
10606TIP3   OH253232   4.697   0.315   1.567 -0.1549 -0.0434  0.2137
10606TIP3    H153233   4.750   0.311   1.647 -0.1215  0.5553  0.2290
10606TIP3    H253234   4.736   0.251   1.509  1.9085  1.7908 -0.5461
10607TIP3   OH253235   6.249   1.429   3.385 -0.5558 -0.0099 -0.0942
10607TIP3    H153236   6.166   1.441   3.431 -0.1810 -1.2002  0.9547
10607TIP3    H253237   6.262   1.335   3.383 -1.4874 -0.2739 -4.4403
10608TIP3   OH253238   5.130   0.708  14.289 -0.2208  0.6006 -0.1988
10608TIP3    H153239   5.036   0.702  14.307  0.0669  1.2023  1.7647
10608TIP3    H253240   5.140   0.670  14.202 -2.1366 -0.4826 -0.0084
10609TIP3   OH253241   0.469   3.135   1.675 -0.5579  0.2069  0.0442
10609TIP3    H153242   0.493   3.227   1.661 -0.3571  0.3476  1.2220
10609TIP3    H253243   0.551   3.092   1.698 -0.6279 -0.3056 -0.6398
10610TIP3   OH253244   0.186   0.588   2.178 -0.3162 -0.1548  0.4220
10610TIP3    H153245   0.190   0.573   2.083  1.6151 -1.2206  0.6237
10610TIP3    H253246   0.169   0.501   2.215 -1.4429  0.3169  1.0627
10611TIP3   OH253247   2.512   5.710   5.321 -0.3629  0.1944  0.3883
10611TIP3    H153248   2.565   5.718   5.401 -0.7273  0.0132  0.6492
10611TIP3    H253249   2.469   5.795   5.313 -0.4671  0.1520  0.4879
10612TIP3   OH253250   5.452   3.814   2.291 -0.4021  0.7132 -0.0136
10612TIP3    H153251   5.461   3.889   2.233 -1.4374  2.6574  2.1903
10612TIP3    H253252   5.364   3.822   2.328  0.6488  0.3723  2.7877
10613TIP3   OH253253   6.697   6.300   4.535  0.2001  0.0312 -0.1642
10613TIP3    H153254   6.632   6.230   4.545  1.7750 -1.2464  2.0505
10613TIP3    H253255   6.663   6.354   4.464 -1.8114 -2.1862 -1.0287
10614TIP3   OH253256   1.879   6.024   1.506 -0.0049 -0.1372  0.0963
10614TIP3    H153257   1.804   6.074   1.537  1.2981  2.7292 -0.9928
10614TIP3    H253258   1.890   5.955   1.571 -2.8433  0.0422  0.8800
10615TIP3   OH253259   5.913   2.930  11.817  0.6031  0.3439 -0.1421
10615TIP3    H153260   5.970   2.965  11.886 -0.1876 -0.4485  0.9434
10615TIP3    H253261   5.921   2.835  11.826 -2.3825  0.1199  1.4079
10616TIP3   OH253262   3.373   5.811  17.308  0.0596 -0.0750 -0.0041
10616TIP3    H153263   3.397   5.725  17.274  0.9897  0.2066 -0.0872
10616TIP3    H253264   3.454   5.845  17.348  0.0722  1.3165 -1.1386
10617TIP3   OH253265   3.558   1.401  14.681  0.2112  0.2726 -0.5255
10617TIP3    H153266   3.481   1.349  14.660 -0.6663  1.6390 -0.8270
10617TIP3    H253267   3.531   1.492  14.666  1.5687  0.8587  0.3233
10618TIP3   OH253268   4.066   6.142  11.796  0.0858  0.3479  0.4935
10618TIP3    H153269   4.092   6.090  11.720  1.5878  3.0549 -0.9995
10618TIP3    H253270   4.132   6.212  11.801 -0.1869  0.5408  4.0815
10619TIP3   OH253271   0.907   4.502   1.324 -0.0969  0.5869 -0.5369
10619TIP3    H153272   0.825   4.548   1.340 -1.3501 -1.2042 -1.4499
10619TIP3    H253273   0.888   4.442   1.252  1.5547 -1.0208  0.2657
10620TIP3   OH253274   1.150   6.492  11.853 -0.2549  0.2788 -0.3476
10620TIP3    H153275   1.085   6.438  11.808 -0.1900 -0.1061  0.0054
10620TIP3    H253276   1.234   6.461  11.819 -0.1584 -0.6018  0.6355
10621TIP3   OH253277   3.471   2.959   2.494 -0.1734 -0.0911 -0.4090
10621TIP3    H153278   3.377   2.974   2.493 -0.1208  0.3691  0.4528
10621TIP3    H253279   3.509   3.047   2.496  0.2890 -0.2629 -1.2254
10622TIP3   OH253280   3.315   3.029   1.674 -0.1692 -0.3637 -0.4275
10622TIP3    H153281   3.320   2.962   1.742  0.8337 -0.2703 -0.3970
10622TIP3    H253282   3.384   3.092   1.696  1.3633 -1.1995 -2.4353
10623TIP3   OH253283   2.644   4.939   1.328  0.1197 -0.9015  0.3253
10623TIP3    H153284   2.626   4.883   1.253  0.4391  0.2204 -0.6154
10623TIP3    H253285   2.666   5.024   1.290 -0.3298 -0.1312  1.7020
10624TIP3   OH253286   5.329   1.413   0.825  0.7063  0.6186 -0.2413
10624TIP3    H153287   5.318   1.385   0.916  0.8804 -0.9180 -0.6592
10624TIP3    H253288   5.376   1.340   0.784 -1.2411  0.3174 -2.0782
10625TIP3   OH253289   2.465   4.861  14.652  0.2467 -0.5936  0.1173
10625TIP3    H153290   2.482   4.931  14.715 -1.7518 -0.9460  1.1398
10625TIP3    H253291   2.387   4.891  14.604  0.4618 -1.3100 -0.6938
10626TIP3   OH253292   0.628   1.485  15.799  0.1202  0.0917  0.1959
10626TIP3    H153293   0.691   1.445  15.738 -0.3504 -0.3128 -0.0336
10626TIP3    H253294   0.544   1.446  15.775 -0.6272  2.1882 -0.9370
10627TIP3   OH253295   6.122   5.770  16.741 -0.3996  0.1267 -0.0422
10627TIP3    H153296   6.179   5.778  16.818 -0.9123  1.8021  0.1983
10627TIP3    H253297   6.157   5.834  16.679  0.5753 -1.8270 -1.6240
10628TIP3   OH253298   1.807   6.742  17.344  0.6975 -0.2392  0.5309
10628TIP3    H153299   1.712   6.732  17.343  0.7769 -1.0712 -0.5689
10628TIP3    H253300   1.831   6.732  17.437 -0.2136 -0.8148  0.7181
10629TIP3   OH253301   3.675   3.969  11.768 -0.1786 -0.0960 -0.1711
10629TIP3    H153302   3.679   3.927  11.854  0.5160  0.1924 -0.0586
10629TIP3    H253303   3.614   3.915  11.718 -0.5673 -0.2870  0.4893
10630TIP3   OH253304   5.723   0.631  11.420 -0.1057  0.1259  0.3812
10630TIP3    H153305   5.630   0.641  11.442 -0.7553 -0.6544 -1.7339
10630TIP3    H253306   5.746   0.713  11.376 -0.2183 -0.2204 -0.3478
10631TIP3   OH253307   6.246   3.408   1.891  0.2160 -0.4026 -0.3830
10631TIP3    H153308   6.296   3.361   1.824  1.9037  0.3952  0.2511
10631TIP3    H253309   6.208   3.338   1.945 -0.4711 -1.0405 -1.6482
10632TIP3   OH253310   1.792   6.296  11.988 -0.3184  0.3338 -0.1364
10632TIP3    H153311   1.852   6.370  11.992 -0.7423  0.6968 -0.4475
10632TIP3    H253312   1.733   6.316  11.916 -1.7215  0.6906  1.0479
10633TIP3   OH253313   6.379   5.917  12.843 -0.4031 -0.1531  0.5665
10633TIP3    H153314   6.402   5.886  12.931 -0.8717  2.2824  1.6137
10633TIP3    H253315   6.443   5.985  12.824 -0.1527 -0.8130 -1.1402
10634TIP3   OH253316   2.254   2.502  12.671  0.0063  0.0097 -0.4688
10634TIP3    H153317   2.204   2.455  12.605  1.3412  0.1032 -1.6016
10634TIP3    H253318   2.334   2.529  12.625  1.3037 -0.5350  1.3860
10635TIP3   OH253319   0.832   6.050   4.401 -0.0067  0.4007 -0.2156
10635TIP3    H153320   0.758   6.106   4.379 -0.2230  0.3912  0.4664
10635TIP3    H253321   0.888   6.053   4.324 -1.1711 -0.3531 -1.1378
10636TIP3   OH253322   0.581   6.749   0.284 -0.0451  0.0542 -0.0062
10636TIP3    H153323   0.654   6.696   0.315  1.5877  1.9704 -0.4008
10636TIP3    H253324   0.597   6.836   0.320 -1.5608  0.7807 -0.9869
10637TIP3   OH253325   1.806   4.786  13.534 -0.0475  0.5320 -0.5081
10637TIP3    H153326   1.721   4.777  13.578  0.2155 -1.8824 -0.3467
10637TIP3    H253327   1.848   4.701  13.546  2.1111  1.4297 -1.2252
10638TIP3   OH253328   0.600   6.760  17.239 -0.2111  0.3880  0.2436
10638TIP3    H153329   0.688   6.763  17.201 -0.8420  0.6848 -1.2855
10638TIP3    H253330   0.575   6.667  17.235  0.2955  0.1948  1.3518
10639TIP3   OH253331   2.486   3.640   5.251  0.4721  0.4682  0.1128
10639TIP3    H153332   2.524   3.634   5.339  0.0006 -1.7403  0.2327
10639TIP3    H253333   2.475   3.733   5.236  0.5576  0.9105  2.4223
10640TIP3   OH253334   3.728   4.292   6.675  0.3183 -0.2649  0.1953
10640TIP3    H153335   3.652   4.300   6.733 -0.0132  1.1713 -0.3821
10640TIP3    H253336   3.723   4.370   6.618  0.0231 -2.1046 -2.4940
10641TIP3   OH253337   3.624   5.508  14.281 -0.5235 -0.0644  0.3866
10641TIP3    H153338   3.586   5.561  14.211  0.2758 -0.6007 -0.4779
10641TIP3    H253339   3.703   5.555  14.306 -0.7361  0.0545  0.8498
10642TIP3   OH253340   5.463   5.990   5.637 -0.2415  0.6863 -0.1465
10642TIP3    H153341   5.486   6.081   5.615  0.3948  1.1484  2.1439
10642TIP3    H253342   5.369   5.985   5.624 -0.2454  1.6123 -0.5281
10643TIP3   OH253343   3.792   0.301  14.640  0.1217 -0.3651  0.2242
10643TIP3    H153344   3.824   0.371  14.696  2.9880 -1.4837  0.1446
10643TIP3    H253345   3.780   0.226  14.698 -0.0985 -0.6206 -0.1403
10644TIP3   OH253346   5.521   3.005  12.647  0.4485 -0.4017  0.0156
10644TIP3    H153347   5.517   2.951  12.568  2.5803 -0.7306  0.0900
10644TIP3    H253348   5.547   2.945  12.716  3.5698  0.7579 -0.0324
10645TIP3   OH253349   5.166   6.213   4.735  0.0951  0.7382 -0.0534
10645TIP3    H153350   5.255   6.242   4.719 -0.4821  1.9314 -1.2575
10645TIP3    H253351   5.135   6.269   4.807  0.7132 -0.5835  1.3072
10646TIP3   OH253352   0.692   1.771  16.926 -0.2291 -0.2964 -0.0567
10646TIP3    H153353   0.730   1.840  16.872 -0.3308 -0.5355 -0.4376
10646TIP3    H253354   0.691   1.807  17.015 -0.8498  0.4212 -0.3510
10647TIP3   OH253355   6.487   2.387  16.996  0.0315 -0.2608 -0.1843
10647TIP3    H153356   6.452   2.474  16.980 -0.6344 -0.5814 -0.5004
10647TIP3    H253357   6.410   2.332  17.010  0.4459 -0.7933  0.0391
10648TIP3   OH253358   0.355   3.309   2.119  0.7757 -0.4933  0.3560
10648TIP3    H153359   0.271   3.349   2.142  0.3820 -0.1531 -1.5238
10648TIP3    H253360   0.412   3.382   2.099  0.4706 -0.7729 -1.7298
10649TIP3   OH253361   6.357   4.474  17.278  0.1474 -0.2737 -0.9694
10649TIP3    H153362   6.364   4.380  17.294  0.3751 -0.3670 -1.6023
10649TIP3    H253363   6.438   4.497  17.233  0.1658  0.2589 -0.6768
10650TIP3   OH253364   6.507   0.150  16.824 -0.2253  0.4390 -0.0732
10650TIP3    H153365   6.432   0.208  16.838 -2.1567 -1.8598 -0.2271
10650TIP3    H253366   6.529   0.161  16.732 -1.3878  0.0506 -0.4190
10651TIP3   OH253367   3.468   6.722   3.795 -0.4014 -0.3097  0.1502
10651TIP3    H153368   3.414   6.736   3.717  1.2689  2.8519 -0.5900
10651TIP3    H253369   3.558   6.717   3.762  0.4713  2.2254  1.8468
10652TIP3   OH253370   0.810   6.061  12.636  0.0680  0.0001 -0.3464
10652TIP3    H153371   0.775   6.147  12.611  1.5661  0.5028 -0.8225
10652TIP3    H253372   0.903   6.076  12.652 -0.0383 -1.1268  1.6815
10653TIP3   OH253373   6.530   6.607  15.523  0.1367  0.4479 -0.0017
10653TIP3    H153374   6.499   6.580  15.609 -0.3854 -0.4961 -0.4747
10653TIP3    H253375   6.618   6.568  15.516 -0.2723 -0.4257 -0.3395
10654TIP3   OH253376   3.943   5.747  13.572 -1.0062 -0.0565 -0.1970
10654TIP3    H153377   3.909   5.825  13.529  0.3047 -0.8396 -2.8261
10654TIP3    H253378   3.874   5.681  13.560 -0.9422 -0.0773 -0.4465
10655TIP3   OH253379   6.422   0.911   5.701  0.0085 -0.2596  0.1887
10655TIP3    H153380   6.430   0.836   5.759 -0.8205  0.7099  1.6148
10655TIP3    H253381   6.485   0.894   5.631  0.0852 -2.0961  0.6547
10656TIP3   OH253382   0.524   4.575   2.638  0.9238 -0.1380 -0.1521
10656TIP3    H153383   0.572   4.656   2.653  0.8045  0.2302 -1.6903
10656TIP3    H253384   0.451   4.600   2.582  0.1234 -1.0828  0.4299
10657TIP3   OH253385   3.976   4.042   5.430 -0.4993  0.5404  0.0630
10657TIP3    H153386   3.918   4.005   5.363  1.9083 -1.9545 -0.8499
10657TIP3    H253387   3.950   3.998   5.511 -0.5239  0.1918 -0.1344
10658TIP3   OH253388   3.489   1.755  16.576 -0.0468  0.5436  0.1265
10658TIP3    H153389   3.585   1.757  16.576 -0.0420  0.8164 -0.8524
10658TIP3    H253390   3.467   1.687  16.640  0.8530 -0.8247 -0.9412
10659TIP3   OH253391   3.598   5.754  13.739 -0.7371 -0.4124  0.1014
10659TIP3    H153392   3.519   5.779  13.787 -0.7487  0.2404 -0.2536
10659TIP3    H253393   3.567   5.722  13.655 -0.5641  1.0892 -0.5592
10660TIP3   OH253394   0.832   4.066  10.996  0.2057 -0.3168 -0.2633
10660TIP3    H153395   0.914   4.018  10.985 -0.0051 -0.4967 -1.1419
10660TIP3    H253396   0.765   3.998  10.999 -0.1944 -0.0833 -2.4777
10661TIP3   OH253397   1.851   0.235   6.345 -0.2584 -0.0248 -0.6804
10661TIP3    H153398   1.901   0.296   6.398  2.4894 -0.8444 -2.1239
10661TIP3    H253399   1.830   0.162   6.404 -0.9041  0.9202  0.2774
10662TIP3   OH253400   4.339   2.433  17.014  0.4543  0.7094 -0.0710
10662TIP3    H153401   4.304   2.508  17.063 -0.8014 -0.6247  1.1639
10662TIP3    H253402   4.399   2.390  17.075 -0.4490 -0.4711  0.0168
10663TIP3   OH253403   6.564   6.100   1.661 -0.3910  0.1939  0.4433
10663TIP3    H153404   6.513   6.181   1.661 -1.1756 -0.2763  1.2852
10663TIP3    H253405   6.514   6.041   1.717  0.4756 -0.6821  0.3142
10664TIP3   OH253406   2.532   3.815  14.570 -0.0776  0.1247  0.0060
10664TIP3    H153407   2.587   3.746  14.607 -0.0561  0.1100 -0.0542
10664TIP3    H253408   2.511   3.871  14.644 -0.0987  0.0512  0.0553
10665TIP3   OH253409   3.267   6.292   5.207  0.4065 -0.2875  0.3477
10665TIP3    H153410   3.192   6.282   5.265  0.4195 -2.1886  0.1127
10665TIP3    H253411   3.234   6.270   5.120  0.9197  0.2334  0.0099
10666TIP3   OH253412   6.263   0.179  13.883 -0.3137  0.2460 -0.0501
10666TIP3    H153413   6.271   0.202  13.975  1.8961  0.9072 -0.3267
10666TIP3    H253414   6.169   0.168  13.868 -0.6698 -0.4621  2.3859
10667TIP3   OH253415   3.123   3.679  10.972  0.2705  0.8589  0.2519
10667TIP3    H153416   3.132   3.736  11.049  0.6401 -0.4979  1.2552
10667TIP3    H253417   3.183   3.606  10.989 -0.6284 -0.1420 -0.6880
10668TIP3   OH253418   5.536   6.511   0.820  0.0520  0.5724  0.1073
10668TIP3    H153419   5.604   6.573   0.794 -0.5153  1.4273  0.6147
10668TIP3    H253420   5.554   6.492   0.912  0.9182 -0.9512 -0.3478
10669TIP3   OH253421   3.946   5.093  13.814  0.5812  1.1768 -0.2551
10669TIP3    H153422   3.876   5.144  13.774 -0.0863  1.0876  0.7431
10669TIP3    H253423   3.979   5.148  13.884  0.4144  0.5945  0.2994
10670TIP3   OH253424   0.958   2.621   3.747 -0.4072 -0.1557  0.0720
10670TIP3    H153425   1.025   2.684   3.719 -0.6332 -0.1756 -0.5159
10670TIP3    H253426   1.002   2.537   3.744 -0.2070 -0.0696  0.5202
10671TIP3   OH253427   3.231   4.708   4.060 -0.6174 -0.2135  0.3767
10671TIP3    H153428   3.262   4.624   4.095 -1.7689 -0.6530  0.3878
10671TIP3    H253429   3.202   4.756   4.137 -0.6600 -0.1090  0.2951
10672TIP3   OH253430   1.853   0.118   3.822  0.3165  0.4995  0.3685
10672TIP3    H153431   1.829   0.154   3.908 -1.1698  1.0667 -0.2477
10672TIP3    H253432   1.769   0.100   3.780  0.9697 -2.7450  0.2017
10673TIP3   OH253433   0.355   6.459  11.507  0.1756  0.5075  0.5078
10673TIP3    H153434   0.278   6.492  11.460  0.6796 -1.0623 -1.5479
10673TIP3    H253435   0.427   6.515  11.479  0.1801  0.5962  0.6961
10674TIP3   OH253436   3.316   2.268  14.131 -0.3636  0.5747 -0.0570
10674TIP3    H153437   3.348   2.287  14.219 -1.5439  0.7279  0.3619
10674TIP3    H253438   3.393   2.241  14.082  0.1260 -0.5997  1.3208
10675TIP3   OH253439   3.426   1.211   6.380  0.1049 -0.4441  0.5131
10675TIP3    H153440   3.488   1.174   6.316  0.2194 -1.6401  1.2740
10675TIP3    H253441   3.428   1.305   6.364 -1.5845 -0.7916 -2.8135
10676TIP3   OH253442   3.827   6.109  12.093 -0.4941 -0.7131  0.1567
10676TIP3    H153443   3.824   6.110  12.188 -2.8481  0.1313  0.1390
10676TIP3    H253444   3.764   6.175  12.066  2.5909  1.6888 -2.0397
10677TIP3   OH253445   2.883   0.275   0.451  0.0850  0.2269  0.0601
10677TIP3    H153446   2.796   0.314   0.452  0.6008  1.4007  0.9498
10677TIP3    H253447   2.915   0.283   0.541  1.2778  0.2096 -0.3357
10678TIP3   OH253448   2.820   2.741   3.943  0.1972 -0.2968  0.4783
10678TIP3    H153449   2.904   2.733   3.897  0.4836  0.3947  0.8690
10678TIP3    H253450   2.769   2.801   3.888  0.9551  1.4639  1.5992
10679TIP3   OH253451   1.438   5.762   2.877 -0.1274  0.2981 -0.2215
10679TIP3    H153452   1.490   5.781   2.955 -0.5445 -0.8921  0.3748
10679TIP3    H253453   1.404   5.847   2.849  1.4856  0.9872 -0.1729
10680TIP3   OH253454   3.302   3.006  10.792  0.1275  0.4572  0.0912
10680TIP3    H153455   3.236   2.938  10.781 -0.9123  1.3202  0.6982
10680TIP3    H253456   3.385   2.959  10.795 -0.5647 -0.7896  0.5545
10681TIP3   OH253457   4.575   2.464  17.157 -0.2808 -1.2790 -0.1791
10681TIP3    H153458   4.517   2.527  17.201 -0.3486 -1.2626 -0.2922
10681TIP3    H253459   4.619   2.418  17.229  1.7144  0.6534 -0.0462
10682TIP3   OH253460   2.698   5.316   5.060 -0.1249  0.6637 -0.5749
10682TIP3    H153461   2.781   5.299   5.015 -0.8080 -2.2165 -0.9073
10682TIP3    H253462   2.635   5.330   4.990 -1.1811 -3.7867 -0.8142
10683TIP3   OH253463   0.738   3.767  11.888  0.4226 -0.2703 -0.7116
10683TIP3    H153464   0.744   3.784  11.794 -0.0345 -1.0645 -0.8912
10683TIP3    H253465   0.649   3.733  11.901  0.8087 -1.1131 -0.1599
10684TIP3   OH253466   2.335   0.260  12.073 -0.1002 -0.1534 -0.0629
10684TIP3    H153467   2.251   0.304  12.065 -1.5033 -2.5559  0.5317
10684TIP3    H253468   2.373   0.265  11.985 -1.1127  0.4995 -0.4831
10685TIP3   OH253469   3.680   0.729   4.307 -0.3610 -0.2548 -0.1603
10685TIP3    H153470   3.748   0.778   4.262 -1.2941  1.3690  0.1105
10685TIP3    H253471   3.704   0.637   4.296  1.3262  0.2510 -0.8825
10686TIP3   OH253472   4.335   2.087   0.333 -0.6693 -0.1601  0.2283
10686TIP3    H153473   4.359   2.178   0.315  1.8716 -0.9125 -0.5433
10686TIP3    H253474   4.363   2.073   0.424  0.1258 -0.5051 -0.0619
10687TIP3   OH253475   3.562   4.163   4.869  0.0240 -0.4752  0.4514
10687TIP3    H153476   3.521   4.076   4.870  0.7795 -0.8351  1.0453
10687TIP3    H253477   3.655   4.145   4.859  0.2678  0.2264  1.3099
10688TIP3   OH253478   3.083   2.838  10.751 -0.0151 -0.1967  0.1139
10688TIP3    H153479   3.037   2.899  10.693  1.0671  1.6779  1.1146
10688TIP3    H253480   3.015   2.782  10.787 -0.8744 -0.5978 -1.9676
10689TIP3   OH253481   1.969   3.428  15.595 -0.3052  0.1404  0.1062
10689TIP3    H153482   1.997   3.452  15.507  0.2913 -1.7466 -0.2448
10689TIP3    H253483   2.043   3.451  15.651 -1.5863  3.7023  0.5891
10690TIP3   OH253484   2.054   5.721   2.667  0.3046  0.1231 -0.5406
10690TIP3    H153485   1.986   5.737   2.732  0.8898 -0.3666  0.2069
10690TIP3    H253486   2.135   5.713   2.717  0.6810 -0.8634 -1.2606
10691TIP3   OH253487   6.451   4.753  15.982 -0.7880  0.8665  0.5201
10691TIP3    H153488   6.539   4.763  15.945 -0.8680 -1.2875 -0.4264
10691TIP3    H253489   6.450   4.664  16.017 -2.3806  1.0881  1.1007
10692TIP3   OH253490   5.605   1.354   2.650  0.5171  0.5965 -0.4935
10692TIP3    H153491   5.572   1.321   2.733 -1.7476  1.3434 -1.0337
10692TIP3    H253492   5.697   1.373   2.667  0.0883  0.8582  1.8861
10693TIP3   OH253493   0.750   2.882  13.166  0.1375  0.0509  0.3716
10693TIP3    H153494   0.728   2.883  13.073  0.3560 -0.2273  0.3148
10693TIP3    H253495   0.846   2.882  13.168  0.1797 -1.7166  0.5447
10694TIP3   OH253496   0.849   3.955   0.070  0.2766  0.7032 -0.3116
10694TIP3    H153497   0.815   3.925  -0.014  0.1972  2.1452 -0.8298
10694TIP3    H253498   0.776   3.943   0.131  0.0093  0.5596 -0.6573
10695TIP3   OH253499   5.904   2.965   0.159  0.1753 -0.4708 -0.5409
10695TIP3    H153500   5.948   3.042   0.124 -0.2189 -0.7943 -1.8227
10695TIP3    H253501   5.854   2.998   0.234  1.3711  0.1694  0.0035
10696TIP3   OH253502   2.099   0.936   5.488  0.1297 -0.2987 -0.0016
10696TIP3    H153503   2.164   0.938   5.559 -1.1014  0.4617  1.1341
10696TIP3    H253504   2.059   0.849   5.495  1.1627 -0.8845 -0.8889
10697TIP3   OH253505   5.997   2.698  15.849  0.3141  0.1252  0.0003
10697TIP3    H153506   6.064   2.750  15.804 -0.7997  1.3594 -0.3137
10697TIP3    H253507   5.955   2.761  15.909  0.3793 -0.9769  1.2484
10698TIP3   OH253508   0.583   1.617   1.694  0.1478  0.4240  0.0039
10698TIP3    H153509   0.501   1.665   1.683 -0.3675 -0.2653  0.7488
10698TIP3    H253510   0.650   1.686   1.698 -0.6159  1.1448  1.4280
10699TIP3   OH253511   3.381   5.843   0.553  0.3714 -0.3568 -0.7856
10699TIP3    H153512   3.403   5.883   0.469  0.7543  0.2289 -0.4161
10699TIP3    H253513   3.459   5.857   0.606  0.3756 -1.2989 -0.5385
10700TIP3   OH253514   2.418   6.521  15.799 -0.3466  0.3023  0.1833
10700TIP3    H153515   2.340   6.577  15.807  0.3089  1.2141  0.4088
10700TIP3    H253516   2.467   6.559  15.726  0.7272  0.8169  1.1385
10701TIP3   OH253517   1.873   4.814   2.797 -0.3992 -0.7157 -0.1737
10701TIP3    H153518   1.819   4.739   2.821  0.2490 -0.6294  1.7199
10701TIP3    H253519   1.961   4.790   2.826  0.4762 -0.5308 -2.5039
10702TIP3   OH253520   0.800   6.445   5.252  0.1059  0.2100 -0.2511
10702TIP3    H153521   0.882   6.403   5.279 -0.6137  0.0319  1.8105
10702TIP3    H253522   0.819   6.539   5.258 -0.6610  0.2847  3.4333
10703TIP3   OH253523   4.426   4.298   4.523 -0.0537 -0.1535  0.5715
10703TIP3    H153524   4.497   4.235   4.512 -0.4265 -0.2106 -2.5483
10703TIP3    H253525   4.462   4.367   4.579  0.9583 -2.1759  2.5723
10704TIP3   OH253526   4.972   3.451   2.379 -0.2304 -0.2753  0.1227
10704TIP3    H153527   4.965   3.453   2.283  0.5554  1.8668  0.0590
10704TIP3    H253528   4.885   3.475   2.410 -0.0348  0.8214 -0.1234
10705TIP3   OH253529   1.475   3.647   0.318  0.1227  0.5581  0.0715
10705TIP3    H153530   1.422   3.723   0.344 -0.4020  0.3308 -0.3172
10705TIP3    H253531   1.554   3.654   0.371 -0.3905  0.7807  0.8282
10706TIP3   OH253532   0.900   4.105   1.684  0.0862  0.1795 -0.4538
10706TIP3    H153533   0.946   4.021   1.680 -2.6273 -1.3880 -1.7972
10706TIP3    H253534   0.953   4.164   1.630  1.4984 -0.9393 -0.3553
10707TIP3   OH253535   0.164   3.859  11.404 -1.1419 -0.5446 -0.1174
10707TIP3    H153536   0.108   3.791  11.440 -0.9848 -0.4630  0.2885
10707TIP3    H253537   0.134   3.940  11.447  0.4059 -0.7468  1.4174
10708TIP3   OH253538   2.410   0.889   6.405  0.1991 -0.2670 -0.5098
10708TIP3    H153539   2.408   0.983   6.422  0.4680  0.1427 -2.4613
10708TIP3    H253540   2.472   0.854   6.468 -0.1915  0.7965  0.4931
10709TIP3   OH253541   4.572   0.043  15.971 -0.9631  0.1718  0.2303
10709TIP3    H153542   4.661   0.015  15.951 -0.9678  0.5985 -0.4347
10709TIP3    H253543   4.517  -0.011  15.914 -1.1539 -0.3521  0.9102
10710TIP3   OH253544   5.615   3.004  16.945 -0.3226 -0.5050  0.3835
10710TIP3    H153545   5.541   2.944  16.957 -0.5154 -0.1007  1.2619
10710TIP3    H253546   5.619   3.054  17.026 -0.6279  1.2111 -0.6242
10711TIP3   OH253547   1.443   0.344  17.157  0.3262  0.4183  0.0951
10711TIP3    H153548   1.531   0.352  17.119 -0.0342  2.6100 -0.3979
10711TIP3    H253549   1.412   0.258  17.128  3.3358 -1.7554  2.5982
10712TIP3   OH253550   1.141   4.493  11.790 -0.2126 -0.7310 -0.0711
10712TIP3    H153551   1.116   4.414  11.742 -0.1998 -0.9245  0.2369
10712TIP3    H253552   1.189   4.461  11.866  0.7186 -0.3727 -0.4880
10713TIP3   OH253553   3.004   2.164   5.151  1.0474  0.1007 -0.2612
10713TIP3    H153554   3.064   2.103   5.195  1.4111  0.1930 -0.6216
10713TIP3    H253555   2.987   2.123   5.065  0.2956 -0.1105 -0.0207
10714TIP3   OH253556   0.443   0.389  16.365 -0.2037  0.6111 -0.0830
10714TIP3    H153557   0.441   0.357  16.275  0.6054 -1.0693  0.4656
10714TIP3    H253558   0.355   0.425  16.379 -0.6225  0.0906 -1.2558
10715TIP3   OH253559   4.109   0.955   2.778 -0.5344  0.0112  0.1979
10715TIP3    H153560   4.050   1.026   2.803  0.0127  0.9628 -1.1060
10715TIP3    H253561   4.057   0.875   2.789 -1.1653  0.5945  1.6527
10716TIP3   OH253562   0.112   6.247   1.887  0.4644  0.3803 -0.0778
10716TIP3    H153563   0.171   6.306   1.934  0.5306  0.3493 -0.1214
10716TIP3    H253564   0.133   6.160   1.922  0.4628  0.3660 -0.1128
10717TIP3   OH253565   3.579   5.700  16.413  0.7175  0.0942  0.7540
10717TIP3    H153566   3.647   5.754  16.452  0.2698 -0.0501  1.7574
10717TIP3    H253567   3.530   5.664  16.487 -0.0271 -0.3565  0.0698
10718TIP3   OH253568   4.913   0.851  16.713 -0.5253 -0.0477  0.1188
10718TIP3    H153569   4.852   0.848  16.787  0.0568  0.4316  0.6266
10718TIP3    H253570   4.866   0.899  16.644 -0.8286  0.0674  0.4037
10719TIP3   OH253571   4.520   1.376  13.472 -1.0603  0.2009  0.5716
10719TIP3    H153572   4.492   1.301  13.526  0.0483 -0.1991  0.6212
10719TIP3    H253573   4.536   1.338  13.386  0.6601  0.1317  0.8984
10720TIP3   OH253574   1.383   2.863   4.382  0.0580 -0.1634  0.1887
10720TIP3    H153575   1.328   2.793   4.347  0.3609 -0.3669  0.1203
10720TIP3    H253576   1.441   2.887   4.309 -0.0512  0.1659  0.2075
10721TIP3   OH253577   3.693   3.807   1.133  0.4940 -0.0202  0.4224
10721TIP3    H153578   3.658   3.888   1.170  1.9415  0.5203  0.6886
10721TIP3    H253579   3.621   3.744   1.140 -0.5284  1.1327  0.5711
10722TIP3   OH253580   5.863   4.078   2.405 -0.0309 -0.7319 -0.3183
10722TIP3    H153581   5.800   4.072   2.334  1.0884  0.1408 -1.4431
10722TIP3    H253582   5.872   4.172   2.421  0.1826 -0.8950  0.5697
10723TIP3   OH253583   1.240   5.761  14.115 -0.4481  0.4006 -0.1021
10723TIP3    H153584   1.328   5.758  14.150 -0.7665 -1.1880  0.6186
10723TIP3    H253585   1.202   5.841  14.151  0.4748  0.7606  0.0824
10724TIP3   OH253586   3.487   0.077   1.292 -0.1473 -0.7053 -0.2966
10724TIP3    H153587   3.528  -0.003   1.325  1.2215  0.3235  0.6119
10724TIP3    H253588   3.465   0.058   1.201 -1.7916 -2.8115  0.4562
10725TIP3   OH253589   1.522   2.971   3.576  0.6215 -0.7287 -0.1099
10725TIP3    H153590   1.508   2.893   3.629 -1.6871 -1.2275 -1.3219
10725TIP3    H253591   1.534   2.938   3.487 -1.3285  0.2770 -0.7994
10726TIP3   OH253592   5.983   5.846   4.868 -0.5155  0.2285 -0.5375
10726TIP3    H153593   5.893   5.866   4.842 -1.5448 -0.6494  2.0448
10726TIP3    H253594   6.032   5.924   4.845 -2.1664  1.2054 -0.9288
10727TIP3   OH253595   1.660   2.959  15.914  0.2554 -0.0654  0.4727
10727TIP3    H153596   1.677   3.008  15.995 -2.1101  0.8388  0.4800
10727TIP3    H253597   1.592   3.008  15.869 -0.5360 -2.0777 -0.6873
10728TIP3   OH253598   1.884   3.132   6.003  0.6384  0.2620  0.2046
10728TIP3    H153599   1.822   3.158   6.072  0.8458  1.5180 -0.0642
10728TIP3    H253600   1.866   3.192   5.931  0.4452 -1.0192 -0.8545
10729TIP3   OH253601   6.016   0.363  16.487  0.0346  0.0320  0.0118
10729TIP3    H153602   5.937   0.314  16.466  0.0380 -0.8371  1.8347
10729TIP3    H253603   6.067   0.363  16.406 -1.6430  0.3048 -1.0822
10730TIP3   OH253604   0.890   6.215  12.994 -0.3136  0.1079  0.3317
10730TIP3    H153605   0.967   6.181  12.948 -1.2796 -2.8380  0.6650
10730TIP3    H253606   0.926   6.274  13.060  1.5625 -0.3597 -0.2040
10731TIP3   OH253607   6.647   0.261   3.163 -0.4562 -0.6979  0.5971
10731TIP3    H153608   6.736   0.225   3.164 -1.3403 -3.1117 -0.4369
10731TIP3    H253609   6.627   0.272   3.070 -0.9088  0.8481  0.8403
10732TIP3   OH253610   4.474   6.167   5.275  0.2547 -0.0811 -0.3129
10732TIP3    H153611   4.500   6.093   5.220 -0.0253  0.2474 -0.9011
10732TIP3    H253612   4.501   6.245   5.226  0.4361  0.2138  0.2398
10733TIP3   OH253613   0.280   0.915   4.929 -0.4424 -0.3020  0.2711
10733TIP3    H153614   0.211   0.958   4.878  1.3178  1.0189 -1.1148
10733TIP3    H253615   0.272   0.952   5.016 -1.9590 -0.7674  0.3622
10734TIP3   OH253616   2.431   6.232   4.114  0.2424  0.6918  0.1553
10734TIP3    H153617   2.385   6.185   4.045 -1.0188  1.2005  0.6228
10734TIP3    H253618   2.401   6.322   4.107  0.0129  0.7333  1.4263
10735TIP3   OH253619   5.734   3.802   0.476 -0.5573 -0.5311  0.3489
10735TIP3    H153620   5.740   3.895   0.501  1.1564 -0.1074 -1.3044
10735TIP3    H253621   5.804   3.791   0.412 -3.3075 -1.9587 -2.6855
10736TIP3   OH253622   1.250   3.838   5.137  0.1382 -0.1313 -0.1190
10736TIP3    H153623   1.214   3.750   5.124 -0.8911 -0.0558  1.8143
10736TIP3    H253624   1.183   3.896   5.100 -0.3159 -0.0980  0.7336
10737TIP3   OH253625   1.322   4.560  14.482  0.7709  0.4915 -0.2802
10737TIP3    H153626   1.257   4.631  14.488  0.4903  0.1999  0.2264
10737TIP3    H253627   1.406   4.603  14.502  0.4624  0.4862  1.1430
10738TIP3   OH253628   5.588   1.250  12.130  0.0744  0.3349  0.4313
10738TIP3    H153629   5.628   1.336  12.139  3.2818 -0.6596 -2.0709
10738TIP3    H253630   5.531   1.258  12.053  0.1379  0.3217  0.3826
10739TIP3   OH253631   5.505   3.128   1.444  0.4428  0.0260 -0.7137
10739TIP3    H153632   5.545   3.198   1.393 -0.0556  0.4156 -0.5770
10739TIP3    H253633   5.540   3.047   1.405  1.5416  0.3524 -0.4376
10740TIP3   OH253634   6.227   4.253   4.443  0.3421 -0.2380 -0.2304
10740TIP3    H153635   6.189   4.337   4.468 -2.2360 -1.4455  0.2279
10740TIP3    H253636   6.266   4.219   4.524 -5.3476 -2.7648  1.9989
10741TIP3   OH253637   3.805   1.759  12.496 -0.0492 -0.4757  0.4616
10741TIP3    H153638   3.848   1.831  12.541 -0.5590 -0.4207  0.8662
10741TIP3    H253639   3.843   1.680  12.535 -0.4134 -0.4283  0.9130
10742TIP3   OH253640   3.215   0.785  11.674  0.1050  0.3214  0.2185
10742TIP3    H153641   3.201   0.705  11.623  1.6143 -0.5561  1.1029
10742TIP3    H253642   3.244   0.850  11.609 -3.1399  0.8710 -0.8690
10743TIP3   OH253643   1.127   3.434  16.207  0.3192 -0.1575 -0.0301
10743TIP3    H153644   1.088   3.352  16.236 -0.1832  0.7708  2.0572
10743TIP3    H253645   1.221   3.419  16.212  0.2329 -0.4994  0.7046
10744TIP3   OH253646   5.865   2.417  11.087  0.0559  0.0205 -0.4964
10744TIP3    H153647   5.932   2.443  11.151 -0.7338  2.2683 -0.4868
10744TIP3    H253648   5.784   2.413  11.138  0.2151 -4.1308 -0.1732
10745TIP3   OH253649   5.678   6.442  11.089 -0.4057  0.0151  0.3626
10745TIP3    H153650   5.625   6.410  11.016  0.5706 -0.9960  0.0608
10745TIP3    H253651   5.728   6.365  11.118  0.2934  0.7430  1.1495
10746TIP3   OH253652   0.324   0.519  12.112 -0.5624 -0.7728 -0.8831
10746TIP3    H153653   0.364   0.562  12.187 -0.4062 -3.9643  1.0558
10746TIP3    H253654   0.394   0.467  12.073 -1.1377 -0.7452 -2.0117
10747TIP3   OH253655   2.214   6.479   4.225  0.2390  0.3373 -0.4434
10747TIP3    H153656   2.215   6.550   4.290 -2.8775  1.3025 -1.2844
10747TIP3    H253657   2.237   6.523   4.143  0.7051 -0.1451 -0.5714
10748TIP3   OH253658   0.030   6.103  14.739  0.2123  0.8989 -0.1583
10748TIP3    H153659   0.024   6.198  14.744  0.4933  1.0068 -1.5543
10748TIP3    H253660  -0.054   6.075  14.702 -1.1787  0.2790  3.0816
10749TIP3   OH253661   1.919   5.167  14.526  0.4172 -0.2618  0.1315
10749TIP3    H153662   1.967   5.107  14.469  2.7916  0.9225  0.7472
10749TIP3    H253663   1.945   5.141  14.615 -1.2282 -0.4583  0.5857
10750TIP3   OH253664   1.267   6.483   2.214 -0.0671 -0.1692 -0.0597
10750TIP3    H153665   1.191   6.541   2.207  0.0184  0.1030  1.1204
10750TIP3    H253666   1.294   6.467   2.123  0.1978  2.0145 -0.4082
10751TIP3   OH253667   3.030   2.713   3.743 -0.4988 -0.2744 -0.4515
10751TIP3    H153668   3.090   2.715   3.668 -1.4385  0.5124 -1.2048
10751TIP3    H253669   2.975   2.790   3.732  0.0086  0.4508  1.6276
10752TIP3   OH253670   5.088   4.247   4.496  0.1893 -0.4460 -0.5571
10752TIP3    H153671   5.019   4.276   4.436  1.1792  1.3354 -0.8990
10752TIP3    H253672   5.167   4.241   4.442  0.3241 -2.6664 -0.2177
10753TIP3   OH253673   5.522   2.699  14.297 -1.0362  0.1257 -0.3989
10753TIP3    H153674   5.473   2.750  14.362  0.7760  0.4487  0.7827
10753TIP3    H253675   5.564   2.630  14.348  0.0712  0.1181 -1.2982
10754TIP3   OH253676   6.601   4.373   4.836 -0.2773 -0.2249  0.2308
10754TIP3    H153677   6.596   4.308   4.906  0.2677  0.7259  1.1895
10754TIP3    H253678   6.528   4.432   4.852  0.0080  0.1514  0.1698
10755TIP3   OH253679   6.032   4.167   6.224  0.5655  0.0429 -0.6357
10755TIP3    H153680   5.975   4.236   6.190  0.6113  0.0327 -0.7357
10755TIP3    H253681   6.050   4.111   6.148 -1.1057 -1.2480 -0.1599
10756TIP3   OH253682   0.630   3.898  11.049  0.1548  0.1619  0.2216
10756TIP3    H153683   0.622   3.878  11.142  0.3439  1.4752  0.5356
10756TIP3    H253684   0.586   3.825  11.005 -0.9056  0.0750  1.3694
10757TIP3   OH253685   3.200   4.606   2.390 -0.3933  0.0942 -0.1167
10757TIP3    H153686   3.179   4.700   2.394  1.9254  0.6518  1.2486
10757TIP3    H253687   3.294   4.604   2.369 -0.3314 -1.9342  0.1680
10758TIP3   OH253688   2.792   2.300   4.906 -0.5977  0.4419  0.6603
10758TIP3    H153689   2.775   2.388   4.872  1.1290 -0.0065 -1.7261
10758TIP3    H253690   2.884   2.303   4.934  0.5516 -1.2722 -2.4075
10759TIP3   OH253691   3.031   2.290  15.692  0.3993  0.1154  0.2198
10759TIP3    H153692   2.990   2.225  15.634 -1.0721  0.8059  0.4362
10759TIP3    H253693   3.061   2.240  15.767 -1.7893 -0.2048  0.9443
10760TIP3   OH253694   1.512   4.702  15.748 -0.2059 -0.1111 -0.4138
10760TIP3    H153695   1.522   4.636  15.680 -0.8738 -1.0696  0.3994
10760TIP3    H253696   1.600   4.739  15.758  0.0006 -0.2756 -1.4551
10761TIP3   OH253697   1.338   2.179   0.358  0.3737 -0.4112 -0.1971
10761TIP3    H153698   1.370   2.184   0.448 -1.4270 -1.6448  0.5920
10761TIP3    H253699   1.416   2.161   0.305  1.2211 -1.5485  1.3655
10762TIP3   OH253700   2.256   4.531  15.577 -0.5044 -0.0915  0.2107
10762TIP3    H153701   2.274   4.588  15.502 -1.1314 -0.5294 -0.2873
10762TIP3    H253702   2.164   4.547  15.598 -0.2802  0.1795  1.0290
10763TIP3   OH253703   4.923   2.257  13.230 -0.1543 -0.0413  0.0031
10763TIP3    H153704   4.901   2.300  13.313 -0.6789 -0.6964  0.2233
10763TIP3    H253705   5.010   2.289  13.208 -0.0163  0.1600  0.8062
10764TIP3   OH253706   4.651   0.697   4.693 -0.3378 -0.5816 -0.3849
10764TIP3    H153707   4.613   0.718   4.778 -1.7367 -1.4066 -0.7725
10764TIP3    H253708   4.743   0.677   4.712 -0.2858  0.5649  0.7107
10765TIP3   OH253709   1.050   5.037   0.828 -0.0122 -0.0750 -0.0933
10765TIP3    H153710   0.962   5.059   0.859  0.0583  1.9200 -1.1522
10765TIP3    H253711   1.038   5.016   0.735  0.6471  0.3788 -0.2869
10766TIP3   OH253712   4.922   6.058   2.424 -0.0627  0.0522  0.1418
10766TIP3    H153713   5.018   6.058   2.430  0.0328  0.9881 -0.9901
10766TIP3    H253714   4.901   5.971   2.390  0.5323  0.3639 -1.1054
10767TIP3   OH253715   5.141   5.479  14.089  0.1659  0.0269  0.3995
10767TIP3    H153716   5.084   5.553  14.111  1.6790  0.7348  2.2257
10767TIP3    H253717   5.150   5.483  13.994 -1.6592  0.7372  0.2098
10768TIP3   OH253718   2.207   3.327  13.650  0.5538  0.1448  0.5559
10768TIP3    H153719   2.141   3.298  13.713  1.5557 -1.5539  0.8669
10768TIP3    H253720   2.289   3.290  13.682  1.5347  1.4444 -0.3290
10769TIP3   OH253721   6.404   5.815   3.526  0.6856  0.1520 -0.5239
10769TIP3    H153722   6.417   5.753   3.455 -1.6142 -0.1608 -0.7253
10769TIP3    H253723   6.335   5.776   3.580  1.0058  1.3186  0.7790
10770TIP3   OH253724   2.167   5.995  10.637  0.0803  0.1359 -0.7387
10770TIP3    H153725   2.125   5.915  10.669 -0.3182  0.5788 -0.1332
10770TIP3    H253726   2.258   5.970  10.623 -0.0988 -0.4967 -0.8115
10771TIP3   OH253727   3.765   6.687  12.707  0.2324 -0.2616  0.0238
10771TIP3    H153728   3.710   6.628  12.757  1.3070 -2.2762 -1.0365
10771TIP3    H253729   3.841   6.703  12.764 -0.4145  0.7755  0.6222
10772TIP3   OH253730   4.374   6.523   0.150  0.4676  0.5668  0.3804
10772TIP3    H153731   4.369   6.576   0.071 -0.3969  0.2604  0.2146
10772TIP3    H253732   4.301   6.553   0.204 -0.2585 -0.6580  0.1327
10773TIP3   OH253733   2.508   0.665  13.286  0.6092  0.2332 -0.1286
10773TIP3    H153734   2.470   0.706  13.364  1.0793  0.7909 -0.1847
10773TIP3    H253735   2.513   0.572  13.307  0.0930  0.2843  0.2418
10774TIP3   OH253736   0.385   2.053  15.016  0.1149  0.2094  0.2675
10774TIP3    H153737   0.413   2.141  15.041  0.0658  0.8847 -1.7964
10774TIP3    H253738   0.398   1.999  15.094  1.8151  1.6806  1.0499
10775TIP3   OH253739   5.573   1.993   2.983 -0.3087 -0.2622 -0.4220
10775TIP3    H153740   5.478   1.997   2.975 -0.2100 -1.0025 -3.1070
10775TIP3    H253741   5.600   2.083   3.001 -1.5242 -0.2160  1.4215
10776TIP3   OH253742   0.481   0.453  15.233 -0.4902 -0.0300 -0.3010
10776TIP3    H153743   0.488   0.399  15.312 -2.6434 -0.6424 -0.4576
10776TIP3    H253744   0.479   0.543  15.266  0.4364 -0.1661  0.1718
10777TIP3   OH253745   5.770   0.300   0.863 -0.6131  0.1448  0.3703
10777TIP3    H153746   5.693   0.280   0.917 -2.2193 -1.1255 -2.1715
10777TIP3    H253747   5.770   0.232   0.795  2.3560  0.5631 -0.1948
10778TIP3   OH253748   5.959   2.065  11.551 -0.0150  0.2281  0.1314
10778TIP3    H153749   5.898   2.102  11.487  0.8773 -0.0563 -0.9177
10778TIP3    H253750   5.945   1.970  11.545  0.5081  0.1628 -0.1036
10779TIP3   OH253751   6.700   1.306   2.111  0.2847  0.0067 -0.4871
10779TIP3    H153752   6.666   1.359   2.038  0.1659  0.1285 -0.3445
10779TIP3    H253753   6.665   1.219   2.096 -1.9428  0.5974  0.8506
10780TIP3   OH253754   3.742   3.527   1.720 -0.3549  0.2216  0.6738
10780TIP3    H153755   3.692   3.606   1.701 -0.7957 -0.0437  0.7242
10780TIP3    H253756   3.833   3.551   1.702 -0.3879  0.9794  1.4449
10781TIP3   OH253757   0.230   3.094  14.518  0.1285 -0.2003  0.0805
10781TIP3    H153758   0.290   3.041  14.465  1.4637 -0.0592  1.3921
10781TIP3    H253759   0.266   3.183  14.513 -1.1753  0.3130 -0.7759
10782TIP3   OH253760   2.779   3.582  15.662  0.5191  0.5641  0.2067
10782TIP3    H153761   2.743   3.575  15.751 -1.0709  0.2907 -0.4165
10782TIP3    H253762   2.726   3.650  15.621 -0.2598 -0.8298 -1.1884
10783TIP3   OH253763   5.276   1.231  12.556 -0.0319  0.4859 -0.0242
10783TIP3    H153764   5.260   1.263  12.467  1.9681  1.2928 -0.1499
10783TIP3    H253765   5.306   1.141  12.544  1.8748  1.1242 -0.3614
10784TIP3   OH253766   5.780   0.181   3.333  0.0320  0.3737 -0.3655
10784TIP3    H153767   5.783   0.132   3.415 -2.4459 -1.7817 -1.4007
10784TIP3    H253768   5.868   0.173   3.296  0.5722 -0.5106  1.0439
10785TIP3   OH253769   4.557   4.629  12.057 -0.2910  0.5859 -0.3398
10785TIP3    H153770   4.574   4.579  12.136  0.9178  0.0319 -0.9183
10785TIP3    H253771   4.546   4.719  12.087  0.0256  0.3588  0.4708
10786TIP3   OH253772   4.380   3.634   2.727  0.0688 -0.8653 -0.3721
10786TIP3    H153773   4.359   3.693   2.799  0.2135  1.0362 -1.7974
10786TIP3    H253774   4.455   3.583   2.758  0.5890  0.4238  0.5743
10787TIP3   OH253775   1.479   2.490  13.472 -0.1822 -0.4332  0.2098
10787TIP3    H153776   1.404   2.533  13.514 -1.4093  0.8198 -2.8911
10787TIP3    H253777   1.525   2.561  13.428  0.9137 -1.6276 -0.6371
10788TIP3   OH253778   5.063   2.423   5.864  0.1064  0.0939  0.0648
10788TIP3    H153779   5.085   2.512   5.836  1.0340  0.0460  0.6170
10788TIP3    H253780   5.104   2.366   5.799  1.0772  0.0258  0.7171
10789TIP3   OH253781   4.321   4.299  16.981  0.5160  0.3945 -0.0744
10789TIP3    H153782   4.326   4.370  16.917  0.5739  0.8829  0.4677
10789TIP3    H253783   4.349   4.221  16.933  0.5717  0.7589 -0.6386
10790TIP3   OH253784   5.668   6.107  14.851  0.4792  0.2074  0.4956
10790TIP3    H153785   5.704   6.195  14.861  0.3331  0.3887 -0.4481
10790TIP3    H253786   5.618   6.111  14.769 -0.0393 -0.5819  0.7610
10791TIP3   OH253787   1.839   2.838   2.446  0.3408 -0.2190 -0.0169
10791TIP3    H153788   1.904   2.771   2.468 -0.8444 -1.0304  1.1284
10791TIP3    H253789   1.837   2.896   2.522  1.5709  1.3599 -1.1158
10792TIP3   OH253790   1.757   6.326   0.216 -0.3229 -0.3252 -0.3535
10792TIP3    H153791   1.826   6.361   0.272 -1.6878  1.2049  0.4661
10792TIP3    H253792   1.770   6.231   0.217  0.3637 -0.2536  1.6519
10793TIP3   OH253793   5.835   0.518  17.287 -0.5585 -0.5475 -0.2094
10793TIP3    H153794   5.910   0.512  17.228  0.2630 -0.2403  0.7774
10793TIP3    H253795   5.799   0.606  17.272 -0.9908 -0.8465 -0.9802
10794TIP3   OH253796   6.235   5.040   2.269 -0.3579 -0.2822 -0.3807
10794TIP3    H153797   6.160   4.990   2.238 -0.1836 -0.8317  0.0630
10794TIP3    H253798   6.309   5.003   2.220 -0.1715 -0.7411  0.2254
10795TIP3   OH253799   1.158   6.098  12.955  0.5474 -0.1302 -0.3391
10795TIP3    H153800   1.134   6.051  12.876 -0.6011  1.0015 -0.7000
10795TIP3    H253801   1.247   6.129  12.938  0.7293 -0.8416 -0.7188
10796TIP3   OH253802   1.821   2.923  13.999  0.2828  0.8316 -0.5127
10796TIP3    H153803   1.778   2.840  13.975  1.1238 -0.2588  1.5169
10796TIP3    H253804   1.908   2.916  13.960  0.5032  0.5387  0.0155
10797TIP3   OH253805   2.879   3.756  14.700 -0.2753  0.4235  0.0992
10797TIP3    H153806   2.888   3.839  14.747 -0.8761  0.4874  0.1088
10797TIP3    H253807   2.896   3.690  14.767 -0.0515  0.5310  0.1519
10798TIP3   OH253808   2.259   1.311  16.563  0.7976 -0.7609  0.2225
10798TIP3    H153809   2.210   1.353  16.492 -0.8580 -0.3632  1.5320
10798TIP3    H253810   2.303   1.383  16.608  0.2604 -0.7708  0.7675
10799TIP3   OH253811   6.144   4.035  11.617 -0.3339  0.3274  0.0851
10799TIP3    H153812   6.117   3.968  11.679 -0.3607 -0.3836 -0.6780
10799TIP3    H253813   6.098   4.013  11.536 -0.0167  1.0249 -0.2967
10800TIP3   OH253814   1.775   6.413   3.980 -0.2897  0.5435 -0.0037
10800TIP3    H153815   1.823   6.354   4.038 -0.6253  1.0848  0.8413
10800TIP3    H253816   1.765   6.364   3.899  1.5389  0.3442 -0.1564
10801TIP3   OH253817   1.671   5.565  14.059 -0.0244 -0.1552 -0.0103
10801TIP3    H153818   1.601   5.631  14.061  1.3948  1.4196  1.3437
10801TIP3    H253819   1.697   5.562  13.967  0.0767  1.4450 -0.0743
10802TIP3   OH253820   0.470   0.108  14.470 -0.1424  0.3625 -0.2403
10802TIP3    H153821   0.558   0.134  14.441 -0.9927  1.4941 -1.9972
10802TIP3    H253822   0.482   0.082  14.561  2.3467 -1.2746 -0.8993
10803TIP3   OH253823   4.143   5.685  17.249  0.4030 -0.4486  0.2704
10803TIP3    H153824   4.114   5.768  17.288  0.3692 -0.3322  0.0008
10803TIP3    H253825   4.072   5.624  17.268 -0.3749  0.0197 -1.0195
10804TIP3   OH253826   5.884   0.429   1.758 -0.0872 -0.1651  0.0825
10804TIP3    H153827   5.831   0.435   1.838  0.1952  0.2351  0.2447
10804TIP3    H253828   5.822   0.445   1.687 -0.4895 -1.2704  0.1726
10805TIP3   OH253829   0.633   2.737  14.845 -0.3747 -0.0298 -0.0206
10805TIP3    H153830   0.693   2.714  14.916 -1.0143 -2.6263 -0.2044
10805TIP3    H253831   0.662   2.824  14.816  3.6384 -1.2772 -0.4143
10806TIP3   OH253832   4.086   4.282   5.394  0.1762 -0.3956  0.0157
10806TIP3    H153833   4.106   4.272   5.301 -1.5809 -1.0744 -0.3211
10806TIP3    H253834   4.063   4.193   5.423 -0.6195  0.0450  0.7609
10807TIP3   OH253835   6.687   4.836   2.799  0.2364  0.1614  0.2564
10807TIP3    H153836   6.686   4.766   2.864 -0.4090  0.5990  0.7381
10807TIP3    H253837   6.608   4.822   2.747  0.0033  0.6244  0.4747
10808TIP3   OH253838   1.619   5.641  12.687 -0.2414  0.3830 -0.0091
10808TIP3    H153839   1.703   5.655  12.643 -0.1652  0.6863  0.2230
10808TIP3    H253840   1.554   5.678  12.627 -0.2344 -0.0540 -0.2905
10809TIP3   OH253841   3.334   0.923   0.334 -0.0651 -0.2067  0.4770
10809TIP3    H153842   3.318   0.865   0.260  0.0231 -0.8792  0.9811
10809TIP3    H253843   3.403   0.982   0.303 -0.5489  0.0004 -0.2317
10810TIP3   OH253844   4.656   0.441  12.274 -0.3531 -0.6121  0.2496
10810TIP3    H153845   4.678   0.458  12.182 -1.2487 -4.2670 -0.8281
10810TIP3    H253846   4.569   0.480  12.285 -0.0479  0.2570 -0.2771
10811TIP3   OH253847   3.180   6.634  12.046  0.5816 -0.4851  0.2400
10811TIP3    H153848   3.109   6.586  12.089 -1.1381 -0.5155 -2.3724
10811TIP3    H253849   3.260   6.599  12.085 -0.7420 -2.7371  1.1467
10812TIP3   OH253850   4.001   3.862   4.684  0.2256  0.4530 -0.0387
10812TIP3    H153851   4.023   3.889   4.595 -0.4902 -0.0961 -0.3887
10812TIP3    H253852   3.990   3.767   4.678  2.2541  0.0975  1.0715
10813TIP3   OH253853   4.831   2.871   4.826 -0.3521 -0.1400  0.2522
10813TIP3    H153854   4.878   2.951   4.804  0.8384 -0.0203  2.8421
10813TIP3    H253855   4.745   2.900   4.854 -0.2519  0.1478  0.2572
10814TIP3   OH253856   0.399   1.721  11.819  0.0892 -0.4723  0.0682
10814TIP3    H153857   0.348   1.777  11.760 -0.4060 -1.3658 -0.3635
10814TIP3    H253858   0.466   1.682  11.764  1.7763  1.2485  0.7621
10815TIP3   OH253859   2.689   6.375  14.884 -0.3425 -0.3099  0.1837
10815TIP3    H153860   2.731   6.379  14.797  1.9688  1.9890  1.2413
10815TIP3    H253861   2.629   6.450  14.884 -0.7288 -0.6178  0.4060
10816TIP3   OH253862   3.564   5.645  13.208 -0.1470  0.0144  0.8530
10816TIP3    H153863   3.590   5.617  13.120  2.7669  0.2233  1.5331
10816TIP3    H253864   3.584   5.738  13.211 -0.4461  0.0622  1.6450
10817TIP3   OH253865   1.375   4.124   4.612 -0.5202  0.0276 -0.4789
10817TIP3    H153866   1.393   4.043   4.562 -1.8672 -0.1235 -0.7496
10817TIP3    H253867   1.325   4.094   4.688 -0.2595  0.5163 -0.1122
10818TIP3   OH253868   5.922   1.816   0.768 -0.4545 -0.0149 -0.5385
10818TIP3    H153869   5.950   1.903   0.796  0.1979 -0.2297 -0.5142
10818TIP3    H253870   5.913   1.822   0.673  1.2929 -0.3793 -0.7568
10819TIP3   OH253871   6.721   4.304  12.286 -0.2039 -0.4814 -0.0148
10819TIP3    H153872   6.703   4.209  12.287 -0.0956 -0.5778 -2.3855
10819TIP3    H253873   6.708   4.331  12.377  1.0685 -3.0042  1.0205
10820TIP3   OH253874   1.662   2.487   2.253 -0.5414  0.4579  0.7620
10820TIP3    H153875   1.578   2.478   2.208 -0.9986 -0.5590  1.7726
10820TIP3    H253876   1.659   2.573   2.293 -0.3627  1.1484 -0.6328
10821TIP3   OH253877   3.547   4.682  11.184 -0.7655 -0.2032  0.1070
10821TIP3    H153878   3.568   4.749  11.118 -0.0333 -0.5706 -0.0343
10821TIP3    H253879   3.453   4.667  11.172 -0.3856 -1.3785 -1.9422
10822TIP3   OH253880   5.459   1.045   4.243 -0.2178 -0.4318 -0.0939
10822TIP3    H153881   5.412   1.093   4.312  0.9722  1.1333 -0.3021
10822TIP3    H253882   5.390   1.013   4.185 -1.0912  2.4091 -0.7895
10823TIP3   OH253883   2.227   3.721  13.962  0.2244 -0.0882  0.1803
10823TIP3    H153884   2.270   3.666  13.896  1.9250  1.3129  0.0772
10823TIP3    H253885   2.240   3.674  14.045 -0.1081 -0.8141 -0.1650
10824TIP3   OH253886   1.200   3.700  16.712  0.4480  0.3206  0.2723
10824TIP3    H153887   1.118   3.718  16.668  0.1590  0.2262  0.7612
10824TIP3    H253888   1.222   3.782  16.756  0.7122  0.4020 -0.0095
10825TIP3   OH253889   2.216   1.413   3.569 -0.1715  0.1372 -0.0260
10825TIP3    H153890   2.169   1.476   3.624 -0.5132 -0.8899  0.8960
10825TIP3    H253891   2.280   1.373   3.627  0.3208 -0.0772 -0.7076
10826TIP3   OH253892   6.408   3.909   2.664  0.5453  0.2901 -0.0369
10826TIP3    H153893   6.470   3.973   2.700  0.3880  0.0622  0.6417
10826TIP3    H253894   6.368   3.869   2.740  0.0667 -0.0644 -0.4719
10827TIP3   OH253895   1.522   2.528  12.934 -0.3606  0.2159 -0.3016
10827TIP3    H153896   1.464   2.543  12.859 -1.3781  0.6804  0.5671
10827TIP3    H253897   1.465   2.532  13.010  0.3313 -2.0853  0.4214
10828TIP3   OH253898   6.109   4.951  14.208  0.2935  0.6470  0.2422
10828TIP3    H153899   6.069   4.889  14.268 -0.2371 -0.8798 -1.5722
10828TIP3    H253900   6.045   5.022  14.200  0.2279  0.7057  1.1961
10829TIP3   OH253901   0.634   4.790   3.595 -0.0843  0.1188 -0.1472
10829TIP3    H153902   0.633   4.822   3.505 -2.5959  2.1600  0.4948
10829TIP3    H253903   0.673   4.861   3.646 -0.5187 -0.1933  0.6363
10830TIP3   OH253904   0.306   0.924   4.485  0.0826  0.5912 -0.6923
10830TIP3    H153905   0.345   0.844   4.519 -1.9162 -0.8588 -1.5778
10830TIP3    H253906   0.377   0.967   4.438  0.9827 -1.2006 -1.0905
10831TIP3   OH253907   2.805   5.410  15.835 -0.6896  0.3497  0.1159
10831TIP3    H153908   2.877   5.472  15.824  0.4124 -0.9729 -0.4946
10831TIP3    H253909   2.847   5.324  15.832 -2.3531 -0.4889 -0.8603
10832TIP3   OH253910   3.577   2.814   3.244  0.5096 -0.2493 -0.2088
10832TIP3    H153911   3.585   2.770   3.329 -0.9763  0.3030  0.2393
10832TIP3    H253912   3.656   2.868   3.238  0.7780 -0.5201  0.6752
10833TIP3   OH253913   5.357   5.256   2.355  0.6325 -0.2868  0.5833
10833TIP3    H153914   5.281   5.230   2.408  0.0915 -1.4546 -0.7197
10833TIP3    H253915   5.320   5.293   2.275  1.4512  0.6291  0.5978
10834TIP3   OH253916   5.753   3.817  14.741 -0.3289 -0.1448  0.6402
10834TIP3    H153917   5.679   3.862  14.701  0.7649  2.0495  0.8998
10834TIP3    H253918   5.798   3.776  14.667 -0.7406  0.1577  0.2101
10835TIP3   OH253919   5.840   1.185  11.585 -0.5892  0.1708  0.3017
10835TIP3    H153920   5.846   1.227  11.670  2.2185 -1.7177  1.1786
10835TIP3    H253921   5.930   1.158  11.565 -1.2783 -0.1725 -2.9013
10836TIP3   OH253922   4.119   3.020  14.353 -0.0549  0.3587 -0.4021
10836TIP3    H153923   4.086   3.106  14.330 -1.5599 -0.2828 -0.7853
10836TIP3    H253924   4.153   3.030  14.442 -2.0457  0.9216  0.3584
10837TIP3   OH253925   1.750   6.655   1.916 -0.5100  0.9808  0.2922
10837TIP3    H153926   1.760   6.595   1.989  0.6919  0.0800 -0.5665
10837TIP3    H253927   1.834   6.650   1.869 -0.9815  2.0819 -0.7276
10838TIP3   OH253928   1.818   2.152  15.331 -0.0778 -0.0850 -0.3028
10838TIP3    H153929   1.793   2.160  15.423  0.6843 -0.1909 -0.0799
10838TIP3    H253930   1.881   2.080  15.329 -0.1917 -0.1721 -0.9272
10839TIP3   OH253931   4.456   2.908   5.878 -0.1397  0.0762 -0.0307
10839TIP3    H153932   4.456   2.968   5.953 -1.3887 -1.0631  0.9293
10839TIP3    H253933   4.430   2.963   5.804  0.8104  1.1608  0.4083
10840TIP3   OH253934   3.837   2.835   0.679 -0.0984  0.3254  0.1724
10840TIP3    H153935   3.842   2.759   0.621  0.0773  1.7721 -1.7795
10840TIP3    H253936   3.780   2.806   0.750 -1.3175 -1.1466 -1.3241
10841TIP3   OH253937   1.829   4.693   4.544  0.4398 -0.1587  0.6958
10841TIP3    H153938   1.837   4.777   4.589 -0.8705  1.0037 -1.1260
10841TIP3    H253939   1.735   4.679   4.535  0.6551 -0.7757 -0.8589
10842TIP3   OH253940   2.889   2.949   3.755  0.5557 -0.7735  0.2686
10842TIP3    H153941   2.839   2.996   3.688 -2.4774 -2.0388  1.4484
10842TIP3    H253942   2.891   3.010   3.830 -0.1756 -1.0782  0.5529
10843TIP3   OH253943   4.028   5.176  14.761  0.2561 -0.0212 -0.2431
10843TIP3    H153944   4.053   5.139  14.676 -3.1069 -2.3055 -0.4616
10843TIP3    H253945   3.947   5.224  14.743  0.8287  1.6148  1.2897
10844TIP3   OH253946   0.811   5.107  10.716 -0.3660  0.0189 -0.2275
10844TIP3    H153947   0.902   5.126  10.691 -0.8052  0.0916 -1.8625
10844TIP3    H253948   0.789   5.027  10.668 -2.2499  1.8700 -2.6685
10845TIP3   OH253949   3.813   0.662   1.825 -0.3232  0.2040  0.4383
10845TIP3    H153950   3.762   0.585   1.799 -0.4309  0.3425  0.2425
10845TIP3    H253951   3.882   0.626   1.881 -0.9651  0.0855  1.1646
10846TIP3   OH253952   0.328   0.964  16.322 -0.0357 -0.2296  0.0639
10846TIP3    H153953   0.395   0.984  16.256  1.0532 -0.3734  1.0797
10846TIP3    H253954   0.338   1.033  16.387  0.0903 -1.0433  0.9253
10847TIP3   OH253955   1.992   4.452   2.000  0.2695  0.7451  0.0151
10847TIP3    H153956   2.040   4.443   1.918 -0.0557  0.3613 -0.1309
10847TIP3    H253957   1.989   4.547   2.015  0.2298  0.8231 -0.4713
10848TIP3   OH253958   6.427   4.997   1.204 -0.5264  0.1214  0.2174
10848TIP3    H153959   6.366   5.057   1.247 -1.7241 -1.9029  1.5248
10848TIP3    H253960   6.380   4.966   1.127  0.0511  0.7347 -0.4006
10849TIP3   OH253961   3.371   5.403  11.829 -0.6106 -0.7110  0.3917
10849TIP3    H153962   3.359   5.491  11.865 -2.3237  0.0250 -1.7700
10849TIP3    H253963   3.461   5.380  11.850 -0.4092  1.1574  1.8175
10850TIP3   OH253964   1.041   4.171  14.974 -0.1272 -0.4101 -0.0229
10850TIP3    H153965   1.050   4.191  15.067  0.2250  0.0881 -0.1583
10850TIP3    H253966   1.125   4.197  14.936 -0.4333 -0.1842 -0.5568
10851TIP3   OH253967   0.542   1.673  15.974  0.0183  0.2249 -0.1637
10851TIP3    H153968   0.566   1.596  15.923 -0.6460  1.5254 -2.5886
10851TIP3    H253969   0.625   1.705  16.010  0.8948  0.4568 -2.2714
10852TIP3   OH253970   5.275   3.283   0.534 -0.1703 -0.5220  0.2058
10852TIP3    H153971   5.264   3.189   0.521 -1.4777 -0.5995  1.4822
10852TIP3    H253972   5.340   3.290   0.604 -1.6868 -0.6193  1.6963
10853TIP3   OH253973   1.229   3.463   4.355 -0.2569  0.2472  0.2443
10853TIP3    H153974   1.227   3.404   4.280  0.4900  0.5032  0.0097
10853TIP3    H253975   1.195   3.546   4.321 -0.9914  0.0499  0.4876
10854TIP3   OH253976   3.600   0.888  16.664 -0.0946 -0.4829  0.5686
10854TIP3    H153977   3.631   0.979  16.661 -0.4991 -0.3599 -0.8981
10854TIP3    H253978   3.595   0.867  16.757  0.8615  0.6968  0.9102
10855TIP3   OH253979   3.510   0.409   0.143 -0.0042  0.1760  0.2656
10855TIP3    H153980   3.534   0.452   0.225 -0.0215  1.1431 -0.2277
10855TIP3    H253981   3.537   0.470   0.074 -2.6718  0.7872 -0.3695
10856TIP3   OH253982   0.953   1.621  14.343  0.3883 -0.0109  0.7676
10856TIP3    H153983   0.915   1.534  14.358  1.1053 -0.1869  1.6380
10856TIP3    H253984   0.906   1.678  14.404 -0.0658  0.2154  0.2134
10857TIP3   OH253985   0.537   6.434   0.496  0.0254 -0.1618  0.1973
10857TIP3    H153986   0.575   6.500   0.439 -0.0535 -1.1102 -0.9896
10857TIP3    H253987   0.443   6.449   0.491  0.0869  0.8330  1.4599
10858TIP3   OH253988   0.132   0.393   5.084  0.0378 -0.3019  0.0766
10858TIP3    H153989   0.109   0.456   5.152 -1.2127  0.3033 -0.8505
10858TIP3    H253990   0.061   0.329   5.084 -0.4819  0.2264 -1.2330
10859TIP3   OH253991   5.520   5.623  12.992  0.5240  0.2854  1.0383
10859TIP3    H153992   5.587   5.556  13.007  1.1399  0.6072 -0.1533
10859TIP3    H253993   5.438   5.574  12.986  1.2552 -0.7356 -2.3472
10860TIP3   OH253994   0.648   6.588  13.894 -0.5681 -0.2858 -0.2247
10860TIP3    H153995   0.732   6.616  13.931 -0.4148 -0.6122 -0.3261
10860TIP3    H253996   0.667   6.573  13.801 -1.4428  2.7671 -1.0184
10861TIP3   OH253997   0.188   5.551   1.240 -0.5957 -0.4250 -0.0763
10861TIP3    H153998   0.208   5.579   1.151 -1.1262  0.8540  0.1849
10861TIP3    H253999   0.093   5.552   1.246 -0.5828  1.5755  1.0677
10862TIP3   OH254000   6.072   4.925   3.282 -0.3967 -0.1431  0.1197
10862TIP3    H154001   6.026   4.887   3.207 -2.3280  1.1584  0.5730
10862TIP3    H254002   6.157   4.953   3.246 -0.8501 -0.5134 -1.3299
10863TIP3   OH254003   6.003   1.594  13.048  0.1157 -0.2288 -0.1086
10863TIP3    H154004   5.948   1.651  12.994 -0.9695 -0.9549  0.1963
10863TIP3    H254005   6.021   1.519  12.993 -0.7421 -0.8310  0.4028
10864TIP3   OH254006   4.719   3.740  12.889  0.1182  0.1884  0.1269
10864TIP3    H154007   4.665   3.661  12.888 -1.1997  1.0560  0.8012
10864TIP3    H254008   4.772   3.733  12.810 -0.3235 -1.1241 -0.0858
10865TIP3   OH254009   4.709   5.116  15.827  0.6115  0.2527  0.3101
10865TIP3    H154010   4.620   5.143  15.806  0.4489 -0.5338 -0.0706
10865TIP3    H254011   4.753   5.196  15.856 -0.2907  0.5954  0.7659
10866TIP3   OH254012   3.961   1.646   6.695  0.1860  0.5221  0.0880
10866TIP3    H154013   3.891   1.584   6.718  0.2914  0.3208 -0.1318
10866TIP3    H254014   4.034   1.622   6.752  0.6002 -0.2669 -0.7573
10867TIP3   OH254015   2.179   0.853  13.674  0.1608 -0.0132  0.5461
10867TIP3    H154016   2.262   0.817  13.706  1.0114  0.6654 -0.7826
10867TIP3    H254017   2.132   0.778  13.638  0.7876 -0.2034  0.1140
10868TIP3   OH254018   3.847   4.684   2.475  0.0419 -0.8168  0.2131
10868TIP3    H154019   3.941   4.669   2.474  0.5477  1.8749 -0.0463
10868TIP3    H254020   3.810   4.611   2.425  2.1827 -0.8203 -1.4719
10869TIP3   OH254021   6.182   4.777  11.752 -0.0613  0.5716  0.0309
10869TIP3    H154022   6.239   4.702  11.738  0.3311  0.9778 -0.5894
10869TIP3    H254023   6.104   4.759  11.700 -0.6170 -0.0990  1.0724
10870TIP3   OH254024   4.998   2.617  16.761  0.1060 -0.5344  0.1581
10870TIP3    H154025   4.964   2.706  16.772 -1.9682 -1.3370  0.7738
10870TIP3    H254026   4.958   2.586  16.679  0.7463 -0.9446 -0.0119
10871TIP3   OH254027   0.169   0.724  15.503  0.0962  0.5453 -0.2219
10871TIP3    H154028   0.220   0.795  15.465  0.3068  0.6689  0.2874
10871TIP3    H254029   0.141   0.672  15.428  0.3849  0.8663 -0.5563
10872TIP3   OH254030   6.479   2.555   1.609  0.4675 -0.4697 -0.0577
10872TIP3    H154031   6.454   2.472   1.568 -1.4233 -0.5096  1.0238
10872TIP3    H254032   6.458   2.542   1.702 -1.2540  1.6726 -0.0747
10873TIP3   OH254033   2.344   3.910  11.496 -0.4810  0.5854 -0.2205
10873TIP3    H154034   2.390   3.946  11.572 -0.2708 -2.4276  1.1964
10873TIP3    H254035   2.403   3.843  11.461 -1.0972  1.0781 -2.3881
10874TIP3   OH254036   1.010   2.393   6.591 -0.3642  0.3801 -0.3028
10874TIP3    H154037   0.921   2.416   6.615 -0.2470  1.2097 -0.6195
10874TIP3    H254038   1.001   2.320   6.530 -0.9429  1.5728 -1.7026
10875TIP3   OH254039   5.998   3.253  14.331 -0.1381 -0.7236  0.2458
10875TIP3    H154040   5.953   3.186  14.280 -0.7495  0.2148 -0.4747
10875TIP3    H254041   5.941   3.268  14.406 -0.9516  0.2928 -0.5443
10876TIP3   OH254042   5.741   2.303  15.844 -0.3571 -0.4863  0.2537
10876TIP3    H154043   5.713   2.394  15.835  0.5033 -0.0237  1.7387
10876TIP3    H254044   5.684   2.267  15.912  0.9071 -0.2648  1.4957
10877TIP3   OH254045   3.099   4.320  14.433  0.0612  0.1817  0.0408
10877TIP3    H154046   3.172   4.263  14.411  0.8292  0.5524  1.5230
10877TIP3    H254047   3.025   4.284  14.384  0.6077 -1.8552  0.6393
10878TIP3   OH254048   5.508   5.010   2.385  0.6340  0.4482  0.2009
10878TIP3    H154049   5.551   5.068   2.448 -1.5828  0.7326  1.5552
10878TIP3    H254050   5.436   5.063   2.350 -1.3608 -1.3535  1.3515
10879TIP3   OH254051   2.816   5.038   0.745  0.0323  0.1537 -0.0152
10879TIP3    H154052   2.739   5.024   0.690  0.1887  0.9547 -0.4641
10879TIP3    H254053   2.801   5.124   0.785  1.6098  1.3043 -1.7384
10880TIP3   OH254054   4.547   4.864   0.591 -0.3986 -0.0574 -0.2689
10880TIP3    H154055   4.637   4.863   0.623 -1.2518 -0.7271  2.4375
10880TIP3    H254056   4.518   4.954   0.606 -0.2783  0.0749 -0.8315
10881TIP3   OH254057   5.475   4.650   0.947  0.8620 -0.5142 -0.0634
10881TIP3    H154058   5.461   4.557   0.968 -0.1455 -0.6455 -1.2257
10881TIP3    H254059   5.558   4.651   0.900 -0.3171 -1.2192 -2.2803
10882TIP3   OH254060   3.145   2.759   3.180  0.2411  0.0607  0.1554
10882TIP3    H154061   3.192   2.678   3.203  2.9861  1.9096  1.7191
10882TIP3    H254062   3.195   2.795   3.106  1.1660  1.8950  1.5964
10883TIP3   OH254063   1.162   5.036  15.940  0.3267 -0.2053 -0.0889
10883TIP3    H154064   1.236   5.002  15.889 -0.2489  0.3948 -1.3711
10883TIP3    H254065   1.087   5.025  15.882 -0.4393  0.0347  0.8480
10884TIP3   OH254066   2.276   4.879   3.325  0.2708 -0.0354  0.1422
10884TIP3    H154067   2.335   4.920   3.261 -0.3170  0.5576 -0.0292
10884TIP3    H254068   2.320   4.798   3.349  0.6468 -0.1243 -0.8014
10885TIP3   OH254069   0.164   4.764   4.482  0.3466  0.7541  0.3315
10885TIP3    H154070   0.224   4.752   4.409 -0.2144  2.3246 -0.4234
10885TIP3    H254071   0.217   4.807   4.549  0.1608  1.8943 -0.2339
10886TIP3   OH254072   5.157   2.769   4.439 -0.3010  0.3611  0.0535
10886TIP3    H154073   5.198   2.813   4.365 -0.0513  0.1548  0.0713
10886TIP3    H254074   5.191   2.814   4.516  0.2118 -0.0731  0.0880
10887TIP3   OH254075   3.209   4.054  17.096 -0.1612  0.1900  0.1681
10887TIP3    H154076   3.133   4.006  17.130 -0.6106  0.7519 -0.0313
10887TIP3    H254077   3.240   4.001  17.023 -0.6864  0.2309 -0.0835
10888TIP3   OH254078   2.314   1.920   5.432  0.4382  0.1245  0.1737
10888TIP3    H154079   2.246   1.868   5.476 -0.6571  0.6667 -0.8161
10888TIP3    H254080   2.338   1.986   5.498 -2.2481  1.8630 -0.3951
10889TIP3   OH254081   1.683   4.683  15.362 -0.1003  0.2192 -0.1853
10889TIP3    H154082   1.687   4.611  15.299  1.9176 -1.4901  1.6952
10889TIP3    H254083   1.650   4.642  15.442 -2.9591  2.3839 -0.1035
10890TIP3   OH254084   2.330   1.163   5.790  0.1144  0.0146  0.3583
10890TIP3    H154085   2.283   1.202   5.716  1.0899 -0.2397 -0.4149
10890TIP3    H254086   2.349   1.074   5.762 -1.1604 -0.6979  1.6926
10891TIP3   OH254087   0.528   5.494  11.510 -0.6542 -0.4318  0.2212
10891TIP3    H154088   0.514   5.566  11.449 -1.3723 -0.5725  0.2105
10891TIP3    H254089   0.582   5.531  11.580 -2.2750  0.5652  1.0030
10892TIP3   OH254090   5.721   4.548   2.278  0.1497  0.2356  0.2757
10892TIP3    H154091   5.690   4.518   2.192  0.4528  0.3444  0.1268
10892TIP3    H254092   5.691   4.639   2.284 -1.0308 -0.1768  0.8544
10893TIP3   OH254093   0.928   3.585   3.049  0.5385  0.5759 -0.2817
10893TIP3    H154094   0.935   3.679   3.067  0.3682  0.4901  0.2612
10893TIP3    H254095   0.862   3.578   2.981  1.2739  0.9240 -1.0510
10894TIP3   OH254096   3.409   1.102  10.920 -0.4638  0.4221 -0.3864
10894TIP3    H154097   3.501   1.076  10.931 -0.4707 -0.0191 -1.3159
10894TIP3    H254098   3.362   1.019  10.908 -0.6643  0.7610 -2.1493
10895TIP3   OH254099   3.145   1.880  10.471  0.2402  0.0415 -0.5966
10895TIP3    H154100   3.084   1.950  10.494  1.0360  0.4739  0.2318
10895TIP3    H254101   3.131   1.813  10.538  1.4506  0.6264  0.2687
10896TIP3   OH254102   2.025   5.369  13.372 -0.4069 -0.3210  0.0039
10896TIP3    H154103   2.095   5.372  13.307  1.4740 -0.5418  1.9271
10896TIP3    H254104   2.042   5.288  13.421 -3.3138 -1.5502 -0.8012
10897TIP3   OH254105   1.303   1.627   4.949  0.5724  0.1752 -0.6454
10897TIP3    H154106   1.258   1.543   4.958 -0.3307  0.8390  1.7906
10897TIP3    H254107   1.389   1.604   4.912  0.8592 -2.0230  1.1829
10898TIP3   OH254108   4.366   0.389   5.044 -0.9448 -0.5196 -0.4319
10898TIP3    H154109   4.363   0.311   4.988 -1.4776 -0.6587 -0.2135
10898TIP3    H254110   4.460   0.405   5.057 -0.8226 -0.8193 -0.8938
10899TIP3   OH254111   2.458   2.510   6.329 -0.1714 -0.1537  0.1153
10899TIP3    H154112   2.398   2.512   6.404  1.1623  0.9566  1.1877
10899TIP3    H254113   2.517   2.437   6.348 -1.9307 -2.1893 -1.6319
10900TIP3   OH254114   0.114   4.562  11.824  0.3302  0.0335 -0.4639
10900TIP3    H154115   0.196   4.608  11.808  0.4140 -0.2663 -0.9135
10900TIP3    H254116   0.139   4.482  11.870  0.4233 -0.6284 -1.6367
10901TIP3   OH254117   3.187   1.984   5.312  0.5041  0.1654 -0.5311
10901TIP3    H154118   3.174   2.053   5.378  0.0618 -0.1610 -0.2692
10901TIP3    H254119   3.211   1.907   5.363 -1.0106 -0.4065 -0.6235
10902TIP3   OH254120   2.512   5.145  13.484 -0.2075  0.1601 -0.3575
10902TIP3    H154121   2.566   5.193  13.422  1.3495  0.6511  1.3074
10902TIP3    H254122   2.552   5.058  13.489 -1.4906 -0.5467 -1.4254
10903TIP3   OH254123   0.062   5.531   5.216  0.2009 -0.3512 -0.3141
10903TIP3    H154124  -0.013   5.546   5.274 -0.6283  0.2760 -1.5330
10903TIP3    H254125   0.024   5.502   5.134  1.2783  0.2374 -1.0441
10904TIP3   OH254126   6.269   4.564   5.141  0.0132  0.1726  0.0179
10904TIP3    H154127   6.233   4.647   5.173 -1.3106  0.3771 -1.8687
10904TIP3    H254128   6.229   4.498   5.197 -0.8842  0.6412 -0.0523
10905TIP3   OH254129   3.991   0.436   4.739  0.3637 -0.0735  0.2120
10905TIP3    H154130   3.903   0.410   4.765 -0.4275  2.0198 -0.2181
10905TIP3    H254131   4.013   0.375   4.668 -1.6354  0.6940 -1.1641
10906TIP3   OH254132   0.126   5.537   0.846 -0.4324 -0.8440 -0.4149
10906TIP3    H154133   0.171   5.602   0.901 -0.2200 -0.7421 -0.7036
10906TIP3    H254134   0.033   5.559   0.854 -0.5990 -2.0190  1.4368
10907TIP3   OH254135   3.898   2.033   1.694 -0.1590  0.2951 -0.3637
10907TIP3    H154136   3.899   2.058   1.787 -0.7735  1.1841 -0.5853
10907TIP3    H254137   3.961   1.960   1.689 -0.2164  0.1365  0.7679
10908TIP3   OH254138   1.763   2.170   0.404 -0.5494  0.2188 -0.6087
10908TIP3    H154139   1.739   2.261   0.383 -0.8112  0.5481  0.9822
10908TIP3    H254140   1.698   2.142   0.468 -0.4430 -1.0973 -1.0452
10909TIP3   OH254141   1.436   6.213   6.151 -0.9089  0.5807  0.0990
10909TIP3    H154142   1.447   6.149   6.221  0.7755  1.1267  0.3713
10909TIP3    H254143   1.387   6.284   6.192 -1.9184 -0.0687  0.0651
10910TIP3   OH254144   1.444   2.170   4.187 -0.2844 -0.0279  0.7957
10910TIP3    H154145   1.387   2.115   4.241 -1.3255 -0.1319 -0.3574
10910TIP3    H254146   1.435   2.258   4.225  0.8076 -0.4840  2.1842
10911TIP3   OH254147   6.431   5.635   3.297  0.4467 -0.4350 -0.3425
10911TIP3    H154148   6.468   5.640   3.209 -1.6876  2.2750 -1.2007
10911TIP3    H254149   6.338   5.622   3.284  0.1552 -0.5715  1.5626
10912TIP3   OH254150   6.570   3.133   3.721 -0.0409 -0.1235 -0.2699
10912TIP3    H154151   6.490   3.161   3.677  0.2465 -0.1394 -0.8132
10912TIP3    H254152   6.603   3.060   3.669  0.7682  0.4139 -0.5405
10913TIP3   OH254153   2.134   4.910   3.830  0.1089 -0.0982 -0.1665
10913TIP3    H154154   2.227   4.927   3.848  0.4094 -1.8398  0.1041
10913TIP3    H254155   2.120   4.946   3.742  0.6846  1.3417  0.2942
10914TIP3   OH254156   0.730   2.147   2.520 -0.0636  0.2717 -0.2643
10914TIP3    H154157   0.752   2.133   2.428 -0.3342 -0.3722 -0.2372
10914TIP3    H254158   0.654   2.091   2.535  0.5278 -0.3227  0.5890
10915TIP3   OH254159   4.727   1.464  16.677 -0.1446 -0.3931  0.5731
10915TIP3    H154160   4.783   1.482  16.602  0.8988  0.0454  1.4347
10915TIP3    H254161   4.672   1.391  16.649  0.9005 -0.8773 -0.2898
10916TIP3   OH254162   0.804   4.137  14.537  0.1740 -0.1184 -0.2310
10916TIP3    H154163   0.858   4.166  14.463 -0.6318 -0.7604 -1.1030
10916TIP3    H254164   0.760   4.058  14.504 -0.0929 -0.4952  0.9949
10917TIP3   OH254165   4.463   0.529   2.176  0.2668  0.7391 -0.3826
10917TIP3    H154166   4.410   0.494   2.105 -2.5058  3.6115  0.0530
10917TIP3    H254167   4.522   0.591   2.134 -0.8866  1.9150 -0.3156
10918TIP3   OH254168   2.758   2.118  14.737  0.0054  0.3307 -0.2285
10918TIP3    H154169   2.794   2.077  14.815 -2.2369 -0.2529  0.5721
10918TIP3    H254170   2.757   2.211  14.757 -0.9340  0.1502  0.6378
10919TIP3   OH254171   5.011   3.983   1.579 -0.3635  0.3441 -0.2262
10919TIP3    H154172   4.950   3.910   1.567 -0.9029  0.7031  0.2563
10919TIP3    H254173   4.973   4.054   1.528 -0.3755  0.5813  0.1086
10920TIP3   OH254174   2.400   6.481  11.785  0.2046 -0.4020 -0.1312
10920TIP3    H154175   2.364   6.477  11.873 -0.2748 -1.4287 -0.3550
10920TIP3    H254176   2.363   6.560  11.747 -1.4246 -1.1484 -0.1725
10921TIP3   OH254177   5.998   6.001   0.451  0.7642  0.2385  0.6174
10921TIP3    H154178   6.071   5.995   0.390  1.2811  1.5230  1.0694
10921TIP3    H254179   5.939   5.930   0.426  1.0242  0.6491 -1.2642
10922TIP3   OH254180   4.220   2.756  13.782  0.2237  0.1268 -0.3599
10922TIP3    H154181   4.224   2.818  13.855  0.1038  0.6135 -0.7632
10922TIP3    H254182   4.126   2.743  13.768  0.2479 -0.0642 -0.3514
10923TIP3   OH254183   5.944   5.470  12.475  0.0109  0.2445 -0.6891
10923TIP3    H154184   6.011   5.413  12.514 -0.8339 -0.7065 -0.5931
10923TIP3    H254185   5.951   5.551  12.525 -1.9619 -1.3716  2.5498
10924TIP3   OH254186   6.210   5.433  12.826 -0.1258 -0.4222 -0.8297
10924TIP3    H154187   6.276   5.496  12.799 -1.2961  1.2587  0.0967
10924TIP3    H254188   6.156   5.421  12.747 -0.5949  0.6727 -0.6964
10925TIP3   OH254189   5.823   2.889  16.022 -0.1616  0.6374  0.0671
10925TIP3    H154190   5.833   2.975  16.062 -1.9435  0.7812  0.2711
10925TIP3    H254191   5.766   2.841  16.082 -2.1491  0.5533 -1.7659
10926TIP3   OH254192   2.637   5.360  15.252  0.1385  0.2569 -0.1840
10926TIP3    H154193   2.597   5.364  15.338  1.1531  0.8690  0.2739
10926TIP3    H254194   2.720   5.406  15.261  0.5681 -0.2410 -1.3203
10927TIP3   OH254195   2.873   4.894   2.486  0.3689  0.3070  0.3109
10927TIP3    H154196   2.817   4.838   2.432  1.5832 -0.0109 -0.6690
10927TIP3    H254197   2.962   4.862   2.469  1.0959  2.4305 -0.1433
10928TIP3   OH254198   6.019   0.983  15.269  0.2894 -0.0617  0.0056
10928TIP3    H154199   6.042   1.075  15.263 -0.4047  0.2241  1.3008
10928TIP3    H254200   5.992   0.971  15.360 -1.5000 -1.0903 -0.6114
10929TIP3   OH254201   5.038   6.558  13.732 -0.5014 -0.2993  0.3911
10929TIP3    H154202   5.099   6.488  13.752  0.1593  0.2899  0.4921
10929TIP3    H254203   5.024   6.603  13.816  0.3781  0.6895  0.0323
10930TIP3   OH254204   4.733   0.126   2.794 -0.2089 -0.4715  0.7222
10930TIP3    H154205   4.705   0.217   2.778  2.7418  0.2735 -1.2702
10930TIP3    H254206   4.793   0.132   2.868 -0.1647 -0.8066  0.7153
10931TIP3   OH254207   3.597   4.446  15.538  0.0098 -0.1299 -0.0567
10931TIP3    H154208   3.601   4.415  15.448 -1.5479  1.0286 -0.5637
10931TIP3    H254209   3.509   4.483  15.547  0.1739 -0.1281  1.9101
10932TIP3   OH254210   0.200   3.425   0.827 -0.4935  0.3063  0.7934
10932TIP3    H154211   0.125   3.389   0.779  1.0133 -0.0112 -1.4211
10932TIP3    H254212   0.213   3.364   0.900 -2.0441  0.1029  0.9422
10933TIP3   OH254213   2.048   5.794   1.042 -0.3603  0.2297 -0.4919
10933TIP3    H154214   2.006   5.709   1.057  0.0498  0.5038  3.1153
10933TIP3    H254215   1.988   5.858   1.082  0.3512  1.4010 -1.2205
10934TIP3   OH254216   0.642   6.201  14.040 -0.5920 -0.8474 -0.2898
10934TIP3    H154217   0.592   6.283  14.037 -0.4827 -0.5856  2.3217
10934TIP3    H254218   0.728   6.224  14.004 -0.4227  0.3378  0.7765
10935TIP3   OH254219   0.238   2.312  16.845 -0.1987  0.1891 -0.1190
10935TIP3    H154220   0.150   2.350  16.843  0.9106  3.0152 -0.2934
10935TIP3    H254221   0.273   2.336  16.930  0.1228 -1.7706  0.3569
10936TIP3   OH254222   1.491   2.948   5.930  0.0026 -0.3360 -0.4636
10936TIP3    H154223   1.504   3.039   5.958  0.4901 -0.6455  0.3540
10936TIP3    H254224   1.418   2.917   5.984  1.9586 -1.4245  1.7311
10937TIP3   OH254225   2.898   0.039  12.710  0.1842  0.3446  0.5696
10937TIP3    H154226   2.869   0.072  12.625  1.8021 -0.7700 -0.4816
10937TIP3    H254227   2.870  -0.053  12.712 -0.9214  0.6743  1.8075
10938TIP3   OH254228   0.713   4.910  10.533  0.2413 -0.2424 -0.3993
10938TIP3    H154229   0.798   4.867  10.535  0.2011 -0.3273 -0.5067
10938TIP3    H254230   0.679   4.892  10.445  0.7633  1.0340 -0.8954
10939TIP3   OH254231   0.405   2.301  13.219 -0.0764 -0.4250 -0.4301
10939TIP3    H154232   0.486   2.261  13.250 -0.0422  0.2052  0.3355
10939TIP3    H254233   0.426   2.332  13.131  0.6021 -0.0268 -0.1362
10940TIP3   OH254234   4.080   2.412  15.977 -0.1816 -0.0960 -0.5246
10940TIP3    H154235   4.066   2.500  16.013  1.1331 -0.1697  0.2389
10940TIP3    H254236   4.078   2.354  16.053 -2.7133 -0.9955 -1.1884
10941TIP3   OH254237   1.678   6.083  13.525  0.5111 -0.0248 -0.0279
10941TIP3    H154238   1.609   6.085  13.458 -0.1666  0.0146  0.6481
10941TIP3    H254239   1.660   6.003  13.576  0.3893  0.4702  0.7313
10942TIP3   OH254240   5.249   2.605  15.768 -0.6657 -0.1784  0.0157
10942TIP3    H154241   5.342   2.600  15.746 -1.0282  0.4553 -1.8119
10942TIP3    H254242   5.230   2.521  15.808  0.3555 -0.9823 -1.1001
10943TIP3   OH254243   2.017   3.402   6.279  0.4058 -0.1899 -0.1509
10943TIP3    H154244   2.013   3.463   6.353  0.4419  0.9372 -1.0376
10943TIP3    H254245   1.929   3.403   6.242  0.8594  0.7959 -1.2778
10944TIP3   OH254246   5.312   5.730   5.492  0.6011 -0.1790 -0.0589
10944TIP3    H154247   5.401   5.760   5.474  0.4526 -0.2043 -0.8716
10944TIP3    H254248   5.262   5.811   5.507  0.6792 -0.1448  0.0175
10945TIP3   OH254249   1.201   6.687  12.503  0.6656  0.0332 -0.2389
10945TIP3    H154250   1.268   6.699  12.436  0.6606  1.8950  0.0372
10945TIP3    H254251   1.238   6.728  12.582 -0.4167  0.2952  0.1568
10946TIP3   OH254252   0.248   3.055   0.774  0.0553  0.4473  0.2363
10946TIP3    H154253   0.247   3.043   0.679 -0.7568  0.6103  0.2165
10946TIP3    H254254   0.322   3.002   0.804 -0.4317 -0.5953 -0.3627
10947TIP3   OH254255   4.293   1.295  11.694  0.1956  0.1966  0.0972
10947TIP3    H154256   4.226   1.352  11.731  0.2433  0.3123  0.0076
10947TIP3    H254257   4.338   1.258  11.769  1.3136  1.6284  0.1756
10948TIP3   OH254258   1.626   3.216   5.320  0.8149  0.2033  0.2895
10948TIP3    H154259   1.669   3.226   5.405  0.2184 -0.8285  0.7311
10948TIP3    H254260   1.697   3.195   5.259  1.1819  0.4425  0.6321
10949TIP3   OH254261   3.126   3.125  13.990 -0.0405  0.3458  0.4751
10949TIP3    H154262   3.041   3.130  13.945 -0.4163 -1.6005  0.8782
10949TIP3    H254263   3.189   3.106  13.920  0.1014  1.7521  0.1812
10950TIP3   OH254264   6.751   3.036   2.588 -0.2466 -0.0749 -0.1325
10950TIP3    H154265   6.711   2.993   2.663  1.9704  0.3181  1.3781
10950TIP3    H254266   6.835   2.992   2.577 -0.2068  0.3865 -1.9244
10951TIP3   OH254267   0.248   6.096  16.095  0.4135 -0.1410  0.0848
10951TIP3    H154268   0.186   6.044  16.146 -0.2349  0.4751 -0.0600
10951TIP3    H254269   0.193   6.146  16.035  1.1571 -0.7829 -1.1756
10952TIP3   OH254270   4.878   3.825  14.011  0.5525 -0.2477 -0.4202
10952TIP3    H154271   4.964   3.853  14.045 -0.2322  1.1961  0.4642
10952TIP3    H254272   4.876   3.731  14.027  1.1222  0.0275  1.6181
10953TIP3   OH254273   5.263   6.604   5.211 -0.1172  0.2680 -0.0671
10953TIP3    H154274   5.344   6.628   5.166 -0.3812 -0.7088 -1.1066
10953TIP3    H254275   5.213   6.686   5.215  0.2757  0.5551 -0.8006
10954TIP3   OH254276   4.789   1.138  11.984  0.2435  0.3786 -0.0308
10954TIP3    H154277   4.750   1.074  11.923  1.0422  0.5185 -0.6988
10954TIP3    H254278   4.833   1.085  12.050  2.1187  0.2048 -1.3652
10955TIP3   OH254279   6.250   5.148  10.946 -0.0040 -0.2978 -0.0067
10955TIP3    H154280   6.254   5.123  10.854 -0.5580 -2.2238  0.4515
10955TIP3    H254281   6.292   5.234  10.949 -1.2641  0.4931 -2.2675
10956TIP3   OH254282   1.340   6.201  11.637 -0.0803 -0.2813  0.3756
10956TIP3    H154283   1.351   6.240  11.724  0.2307  0.0470  0.1916
10956TIP3    H254284   1.421   6.153  11.622 -0.0436 -0.1598  0.1783
10957TIP3   OH254285   2.701   5.652  13.628 -0.1556 -0.3962  0.6178
10957TIP3    H154286   2.609   5.677  13.637 -0.6201 -1.6501 -0.2406
10957TIP3    H254287   2.720   5.665  13.535 -0.3279 -2.7413  0.1982
10958TIP3   OH254288   3.542   2.287  12.120  0.1205  0.5520  0.2068
10958TIP3    H154289   3.625   2.269  12.076  0.4024 -0.7711  1.2285
10958TIP3    H254290   3.490   2.208  12.107 -1.2070  1.5458 -0.8396
10959TIP3   OH254291   1.721   3.260   0.115 -0.2492 -0.4551  0.4574
10959TIP3    H154292   1.758   3.340   0.151  0.1824 -0.9824  1.2148
10959TIP3    H254293   1.770   3.245   0.034  0.2286 -0.3849  0.7279
10960TIP3   OH254294   5.532   3.966   6.188 -0.1580 -0.6430 -0.1785
10960TIP3    H154295   5.589   3.973   6.265  0.3722  0.1801 -0.6357
10960TIP3    H254296   5.516   3.872   6.179 -0.2142 -0.7525  0.9223
10961TIP3   OH254297   2.176   2.081   0.728  0.1906 -0.2553  0.5192
10961TIP3    H154298   2.145   2.075   0.819  2.1655  1.6011  1.4063
10961TIP3    H254299   2.242   2.150   0.730 -1.7500  1.9950 -2.9436
10962TIP3   OH254300   4.039   0.263  13.071 -0.3288 -0.3029 -0.0399
10962TIP3    H154301   3.971   0.312  13.025  1.0020  2.4105  0.6025
10962TIP3    H254302   4.026   0.285  13.164  1.5770  0.6236  0.0664
10963TIP3   OH254303   1.364   1.371   6.647 -0.4430 -0.5377  0.2035
10963TIP3    H154304   1.390   1.455   6.684 -1.6597 -0.5665  1.1937
10963TIP3    H254305   1.429   1.309   6.680 -1.0473 -0.4190  1.6827
10964TIP3   OH254306   4.386   0.134  11.676  0.5509  0.0026  0.8829
10964TIP3    H154307   4.398   0.060  11.616  1.1648 -0.3240  1.3970
10964TIP3    H254308   4.412   0.211  11.625 -0.5727 -0.0479  0.1759
10965TIP3   OH254309   1.097   6.757  14.639  0.0993  0.7069  0.5874
10965TIP3    H154310   1.151   6.739  14.716  0.2398  0.0207  0.3380
10965TIP3    H254311   1.113   6.682  14.581  0.6622  1.6265 -0.4747
10966TIP3   OH254312   2.668   3.125   5.227  0.3081  0.2275  0.3240
10966TIP3    H154313   2.606   3.123   5.301 -0.9055  1.9041 -0.5722
10966TIP3    H254314   2.749   3.089   5.263 -1.2113 -2.3707  1.4889
10967TIP3   OH254315   4.681   6.282  12.818  0.2303 -0.2046  0.6416
10967TIP3    H154316   4.736   6.257  12.744 -0.0770  0.7865  0.0617
10967TIP3    H254317   4.655   6.199  12.858 -1.1975 -0.8583 -1.5134
10968TIP3   OH254318   5.172   1.102   3.496 -0.0869 -0.1259  0.4542
10968TIP3    H154319   5.131   1.024   3.459 -0.8375 -0.3400  1.6671
10968TIP3    H254320   5.121   1.121   3.575  0.8463  0.8670  0.8497
10969TIP3   OH254321   3.341   5.429   3.498  0.5441 -0.2043  0.2635
10969TIP3    H154322   3.367   5.455   3.586  0.7380  0.9310 -0.1205
10969TIP3    H254323   3.344   5.509   3.447  0.0272 -0.7715 -0.6902
10970TIP3   OH254324   6.286   6.403  13.726  0.2723 -0.7193  0.3105
10970TIP3    H154325   6.220   6.397  13.795  1.3323  0.1991  1.4431
10970TIP3    H254326   6.298   6.313  13.697 -0.3625 -1.0880  1.1507
10971TIP3   OH254327   4.273   0.354  12.778 -0.2715 -0.3860 -0.7062
10971TIP3    H154328   4.254   0.349  12.684 -0.2115  2.3149 -0.9504
10971TIP3    H254329   4.231   0.436  12.806 -1.3491 -1.7202  1.9289
10972TIP3   OH254330   4.994   2.884   6.473  0.3926 -0.1536  0.3440
10972TIP3    H154331   5.039   2.937   6.407  0.4437 -0.9027 -0.2434
10972TIP3    H254332   4.910   2.929   6.486  1.3801  1.4242  1.6810
10973TIP3   OH254333   3.520   3.251   0.869  0.3315 -0.1318 -0.2342
10973TIP3    H154334   3.553   3.336   0.840 -0.5623 -0.2887 -1.8672
10973TIP3    H254335   3.567   3.188   0.814 -1.8810 -0.4071 -1.9398
10974TIP3   OH254336   0.524   5.222   2.352  0.3372 -0.0542  0.5075
10974TIP3    H154337   0.569   5.259   2.428 -1.3764 -0.4482  1.7996
10974TIP3    H254338   0.531   5.127   2.364  2.4754 -0.2021 -1.3916
10975TIP3   OH254339   3.821   0.568   1.124  0.5357 -0.1838  0.2489
10975TIP3    H154340   3.906   0.605   1.148  0.5585 -0.2564  0.2798
10975TIP3    H254341   3.820   0.482   1.165 -0.3341  0.5588  1.8849
10976TIP3   OH254342   4.001   3.467   1.104 -0.0078  0.4843  0.7655
10976TIP3    H154343   4.046   3.428   1.029  0.4411  0.7833  0.8810
10976TIP3    H254344   3.983   3.557   1.077 -1.8059 -0.0148  0.1626
10977TIP3   OH254345   5.233   0.649   3.345 -0.0393  0.3603 -0.2810
10977TIP3    H154346   5.259   0.697   3.267  0.4260 -0.5589 -0.7096
10977TIP3    H254347   5.212   0.561   3.314 -1.4382  0.4253  0.4023
10978TIP3   OH254348   5.719   3.723  14.352 -0.1389 -0.1950 -0.2638
10978TIP3    H154349   5.790   3.767  14.306  2.2838  0.6003  3.7024
10978TIP3    H254350   5.751   3.634  14.366 -1.0300 -0.5639 -0.5071
10979TIP3   OH254351   5.066   0.248   2.851 -0.4560  0.1358  0.2849
10979TIP3    H154352   5.129   0.294   2.907  0.5689  0.3395 -0.9639
10979TIP3    H254353   5.060   0.303   2.773 -0.7572 -0.8449 -0.3932
10980TIP3   OH254354   2.645   2.374  16.051 -0.7890  0.5853 -0.0167
10980TIP3    H154355   2.593   2.426  15.989 -0.6565  0.1005 -0.5470
10980TIP3    H254356   2.587   2.363  16.127 -1.4112  0.1912 -0.5322
10981TIP3   OH254357   5.591   3.452   0.202  1.0488 -0.6663  0.0561
10981TIP3    H154358   5.573   3.455   0.296 -1.2284 -0.6596 -0.3282
10981TIP3    H254359   5.681   3.483   0.194  0.9811  0.2277  2.1461
10982TIP3   OH254360   1.970   5.356  15.245  0.0251 -0.5000  0.4314
10982TIP3    H154361   1.885   5.379  15.208 -0.7679 -0.1651  2.3508
10982TIP3    H254362   1.969   5.261  15.251 -0.0132 -0.5274  0.0252
10983TIP3   OH254363   0.686   4.122  11.605 -0.4838 -0.1953  0.0667
10983TIP3    H154364   0.673   4.217  11.616  0.0456 -0.2432  1.1892
10983TIP3    H254365   0.611   4.082  11.650  0.7986 -0.3502  2.2014
10984TIP3   OH254366   3.772   5.997  12.651 -0.5519 -0.0512  0.2281
10984TIP3    H154367   3.739   5.933  12.714 -1.6564 -0.9446 -1.2093
10984TIP3    H254368   3.837   5.950  12.599  0.5248  0.7458  0.8080
10985TIP3   OH254369   5.168   2.760   4.978  0.7853  0.8234 -0.2284
10985TIP3    H154370   5.110   2.706   5.032  0.1031  1.4992 -0.2737
10985TIP3    H254371   5.255   2.721   4.990  0.1122 -1.2026 -1.4037
10986TIP3   OH254372   6.454   5.105   0.796  0.1460 -0.1838 -0.0720
10986TIP3    H154373   6.487   5.036   0.853 -0.9339  0.2135  1.0940
10986TIP3    H254374   6.532   5.154   0.769  0.7851 -1.0665  0.1444
10987TIP3   OH254375   3.639   1.414  14.952 -0.3688 -0.0606 -0.8315
10987TIP3    H154376   3.622   1.434  14.860 -2.4458  0.6046 -0.3432
10987TIP3    H254377   3.553   1.416  14.994  0.2687 -2.3237  0.7793
10988TIP3   OH254378   0.751   4.566  11.343 -0.6646 -0.7670  0.2954
10988TIP3    H154379   0.684   4.538  11.405 -0.5283  1.5101  1.5499
10988TIP3    H254380   0.721   4.651  11.310  1.1140 -0.1297  0.1709
10989TIP3   OH254381   5.443   3.516   4.691  0.6565  0.0885 -0.0915
10989TIP3    H154382   5.502   3.569   4.638  2.0180 -0.4551  0.8036
10989TIP3    H254383   5.457   3.548   4.781 -1.0924  0.5396  0.0568
10990TIP3   OH254384   0.862   3.447  16.510 -0.2687  0.4770 -0.4667
10990TIP3    H154385   0.933   3.393  16.473 -1.2053 -1.4565  0.4181
10990TIP3    H254386   0.794   3.445  16.443  0.1624  1.6411 -0.9610
10991TIP3   OH254387   6.687   2.598  12.548  0.3214 -0.8300  0.0720
10991TIP3    H154388   6.680   2.536  12.620  0.6348  0.4087  1.2115
10991TIP3    H254389   6.770   2.643  12.563 -0.6046  0.9433  0.2077
10992TIP3   OH254390   3.732   5.467   1.002 -0.8436  0.1301  0.0017
10992TIP3    H154391   3.656   5.418   1.034 -1.7993  1.0681 -0.7545
10992TIP3    H254392   3.791   5.400   0.967 -1.7438 -0.5541 -0.2484
10993TIP3   OH254393   5.907   1.323   0.716 -0.0560  0.2237 -0.2315
10993TIP3    H154394   5.820   1.347   0.686 -0.2978 -0.9675 -0.5176
10993TIP3    H254395   5.915   1.230   0.696  0.8985  0.0824  0.7236
10994TIP3   OH254396   3.504   4.865  15.274 -0.6515  0.3718 -0.0183
10994TIP3    H154397   3.571   4.912  15.325  0.7339  0.1405 -1.5562
10994TIP3    H254398   3.442   4.933  15.248 -0.0977  0.9013  0.0082
10995TIP3   OH254399   5.554   6.490  11.648 -0.0964 -0.4787  0.2522
10995TIP3    H154400   5.595   6.576  11.639 -0.0022 -0.5459  0.0409
10995TIP3    H254401   5.577   6.444  11.568 -1.0525 -0.3268 -0.1209
10996TIP3   OH254402   3.897   2.785  16.974 -0.1925  0.6417 -0.1820
10996TIP3    H154403   3.855   2.838  16.906 -0.6431 -0.0888 -0.4960
10996TIP3    H254404   3.879   2.695  16.947  3.0145  0.2018 -1.2647
10997TIP3   OH254405   4.735   2.402  14.739 -0.6166 -0.1258 -0.1118
10997TIP3    H154406   4.781   2.485  14.752 -1.2408 -0.0030  1.6849
10997TIP3    H254407   4.788   2.354  14.675  1.1254  0.6461  0.6851
10998TIP3   OH254408   0.661   4.607   1.056  0.2059  0.4043 -0.0491
10998TIP3    H154409   0.664   4.530   1.000 -1.1378  0.0343  0.3396
10998TIP3    H254410   0.749   4.614   1.094 -0.1387 -2.1075  1.4214
10999TIP3   OH254411   0.732   2.536  12.701  0.0492  0.1001  0.1837
10999TIP3    H154412   0.776   2.557  12.783  0.9635  1.8483 -0.6825
10999TIP3    H254413   0.800   2.546  12.634 -0.8474 -0.5549 -0.8652
11000TIP3   OH254414   2.827   5.043  15.085 -0.0959  0.3290  0.9241
11000TIP3    H154415   2.791   5.010  15.167  0.0781  0.5323  1.0814
11000TIP3    H254416   2.850   5.135  15.103  1.8083 -0.1598  1.2539
11001TIP3   OH254417   4.601   2.503  16.522  0.2996 -0.1299 -0.3203
11001TIP3    H154418   4.539   2.500  16.595  1.7802  0.0031  0.9828
11001TIP3    H254419   4.570   2.434  16.462 -0.0147 -1.3608  1.2012
11002TIP3   OH254420   5.442   0.817   4.571 -0.1637 -0.2411  0.8030
11002TIP3    H154421   5.513   0.788   4.515 -0.9646  1.7126 -1.4220
11002TIP3    H254422   5.362   0.788   4.526 -0.8202  0.6787  1.3262
11003TIP3   OH254423   3.955   6.690   6.246  0.2538  0.0233  0.0811
11003TIP3    H154424   3.984   6.771   6.203 -0.3381  1.7392  2.6375
11003TIP3    H254425   3.882   6.660   6.193  1.9669 -0.2669 -2.2856
11004TIP3   OH254426   6.736   5.708   6.103 -0.6485 -0.2062  0.0376
11004TIP3    H154427   6.813   5.731   6.156  0.2910 -2.2183 -0.3462
11004TIP3    H254428   6.730   5.779   6.039 -0.1446  0.8447  1.0935
11005TIP3   OH254429   3.958   2.287  14.936  0.2916 -0.6229  0.0276
11005TIP3    H154430   3.990   2.374  14.960 -1.0309 -0.5076  1.5892
11005TIP3    H254431   4.037   2.238  14.914  1.1031  0.8471 -0.5094
11006TIP3   OH254432   2.245   6.073   1.512  0.3576  0.1852 -0.8748
11006TIP3    H154433   2.332   6.071   1.553 -0.5616 -1.1136  1.1904
11006TIP3    H254434   2.252   6.010   1.439  0.5923 -1.6444  0.6397
11007TIP3   OH254435   0.204   5.274   4.020  0.2851 -0.1708 -0.3414
11007TIP3    H154436   0.298   5.287   4.032  0.6085 -3.9150  3.0549
11007TIP3    H254437   0.182   5.201   4.077 -4.0852 -1.9451 -3.7353
11008TIP3   OH254438   5.408   4.368  13.136 -0.0355  0.0057 -0.5737
11008TIP3    H154439   5.388   4.461  13.141  0.7961  0.2705 -1.6656
11008TIP3    H254440   5.370   4.339  13.053  1.3576 -0.1577 -1.1938
11009TIP3   OH254441   3.765   5.315   5.691  0.2324 -0.2002 -0.5318
11009TIP3    H154442   3.814   5.316   5.608 -1.0984 -0.2379 -1.3461
11009TIP3    H254443   3.733   5.404   5.701 -2.1479 -0.8332 -1.6747
11010TIP3   OH254444   5.621   5.420   1.407 -0.1360 -0.1507  0.0079
11010TIP3    H154445   5.547   5.367   1.438  0.1846 -0.6519 -0.0621
11010TIP3    H254446   5.698   5.381   1.450  0.0471  0.5980  0.3682
11011TIP3   OH254447   2.491   2.599  14.780  0.0017 -0.4590 -0.0384
11011TIP3    H154448   2.533   2.610  14.866  1.5009  0.5953 -0.8499
11011TIP3    H254449   2.442   2.681  14.768 -0.0376 -0.5191 -0.2773
11012TIP3   OH254450   6.664   4.687  14.709 -0.2915 -0.6965 -0.0226
11012TIP3    H154451   6.617   4.757  14.754  0.7071 -0.0277  0.0197
11012TIP3    H254452   6.700   4.633  14.780  1.3270  0.3878  0.0472
11013TIP3   OH254453   1.554   2.376  14.696  0.4145 -0.3687 -0.0819
11013TIP3    H154454   1.488   2.364  14.627  0.1500  0.2825  0.0467
11013TIP3    H254455   1.587   2.465  14.681  0.0039 -0.0323  0.9276
11014TIP3   OH254456   1.623   1.893   1.773  0.2259 -0.9934 -0.2379
11014TIP3    H154457   1.676   1.869   1.697  2.0224  0.7378  0.4183
11014TIP3    H254458   1.548   1.834   1.768  1.8992 -3.1616 -1.5111
11015TIP3   OH254459   4.733   4.986   3.748 -0.3108  0.1531 -0.2465
11015TIP3    H154460   4.643   4.992   3.779  0.0825 -1.0254  1.2391
11015TIP3    H254461   4.728   4.934   3.667 -0.8139 -1.3654  0.7230
11016TIP3   OH254462   0.965   4.866   5.390  0.7401  0.4771 -0.1634
11016TIP3    H154463   0.893   4.930   5.393  0.7675  0.5839 -1.3309
11016TIP3    H254464   0.921   4.781   5.389  0.6173  0.5391 -0.7409
11017TIP3   OH254465   1.154   5.604   6.421 -0.3132  0.1145 -0.1497
11017TIP3    H154466   1.231   5.555   6.450 -0.3677 -0.0381 -0.2663
11017TIP3    H254467   1.100   5.612   6.499  0.9559  2.3790  0.6007
11018TIP3   OH254468   4.616   2.985  14.665 -0.0853  0.2247 -0.3167
11018TIP3    H154469   4.590   3.025  14.582  1.1877 -0.3701 -1.0332
11018TIP3    H254470   4.650   3.058  14.717 -2.7815  0.9740  0.5516
11019TIP3   OH254471   1.848   5.465  13.072  0.2896 -0.8018  0.3524
11019TIP3    H154472   1.799   5.525  13.015  2.9823  0.1973 -1.1087
11019TIP3    H254473   1.907   5.521  13.121  0.9283 -2.0402  1.0498
11020TIP3   OH254474   2.264   5.774  11.816 -0.0191  0.0574 -0.2393
11020TIP3    H154475   2.234   5.736  11.733  2.4319 -0.4847 -0.9413
11020TIP3    H254476   2.229   5.716  11.883  0.6532 -1.3706 -1.0913
11021TIP3   OH254477   5.931   5.322  11.304  0.0775  0.0435  0.0972
11021TIP3    H154478   6.012   5.301  11.351 -0.1960  0.8323  0.9583
11021TIP3    H254479   5.960   5.377  11.231  0.4739 -0.9134 -0.4696
11022TIP3   OH254480   4.336   2.866  10.543  0.0116 -0.0622 -0.4248
11022TIP3    H154481   4.266   2.909  10.591  0.8122  0.0414  0.6958
11022TIP3    H254482   4.404   2.849  10.609  1.7302  1.2975 -1.7354
11023TIP3   OH254483   1.100   4.421  12.464  0.0007 -0.0311 -0.5315
11023TIP3    H154484   1.029   4.485  12.469  1.0988  1.1475  2.0314
11023TIP3    H254485   1.148   4.445  12.385 -2.6051 -1.1404 -2.5625
11024TIP3   OH254486   1.668   4.811   2.015  0.0153  0.6323  0.4341
11024TIP3    H154487   1.646   4.848   1.930  0.2060  1.9387  0.9233
11024TIP3    H254488   1.619   4.729   2.019  0.4678  0.2433 -1.1598
11025TIP3   OH254489   5.972   4.336  16.713  0.1073  0.2024 -0.1548
11025TIP3    H154490   5.945   4.428  16.703 -3.2599 -0.4877  1.3722
11025TIP3    H254491   6.008   4.313  16.627  1.9097  3.1107 -0.3302
11026TIP3   OH254492   4.713   6.693   1.484  0.2133 -0.0124 -0.0135
11026TIP3    H154493   4.732   6.611   1.437  0.9535  0.1605 -0.0388
11026TIP3    H254494   4.685   6.754   1.417 -1.3389 -0.5190  0.1326
11027TIP3   OH254495   5.605   4.477   2.986  0.3177 -0.8843  0.2020
11027TIP3    H154496   5.693   4.467   2.950  1.0739  1.1726  1.3369
11027TIP3    H254497   5.610   4.439   3.074  1.0911  2.0262  1.5514
11028TIP3   OH254498   3.737   5.286   0.285 -0.0043  0.0919 -0.4810
11028TIP3    H154499   3.740   5.225   0.212 -0.4569  1.1083 -1.3714
11028TIP3    H254500   3.720   5.231   0.362  0.5114 -0.9878 -1.1237
11029TIP3   OH254501   0.607   3.013  14.842 -0.2050 -0.8388  0.5742
11029TIP3    H154502   0.528   3.058  14.874  0.5391  2.0467 -1.2322
11029TIP3    H254503   0.675   3.035  14.905  0.1237  0.5779 -0.2310
11030TIP3   OH254504   3.051   2.732  14.564  0.6981 -0.3742 -0.2149
11030TIP3    H154505   3.102   2.663  14.522 -0.1902 -0.7518 -0.7125
11030TIP3    H254506   3.036   2.796  14.495  0.7263 -0.1343  0.0001
11031TIP3   OH254507   1.586   2.922  14.162  0.4461 -0.5525 -0.9014
11031TIP3    H154508   1.667   2.942  14.116  0.7655  0.3927  0.0250
11031TIP3    H254509   1.614   2.894  14.249 -0.2181  2.0608  0.2719
11032TIP3   OH254510   3.613   5.530   6.493 -0.6018 -0.7168 -0.1232
11032TIP3    H154511   3.706   5.540   6.475 -0.7896  2.5852  0.1782
11032TIP3    H254512   3.569   5.569   6.417 -1.6848 -0.6518  0.5121
11033TIP3   OH254513   0.652   5.479   3.160 -0.0157  0.0225  0.5356
11033TIP3    H154514   0.600   5.555   3.136  0.1506 -0.8329 -3.0439
11033TIP3    H254515   0.591   5.406   3.159  0.2318 -0.2299  1.8606
11034TIP3   OH254516   5.576   4.871  10.602 -0.1223 -0.2282  0.4229
11034TIP3    H154517   5.538   4.918  10.528  0.3301  0.2418  0.4847
11034TIP3    H254518   5.503   4.823  10.641 -0.4574 -0.0820 -0.0287
11035TIP3   OH254519   2.352   2.566  11.646 -0.5153 -0.1369 -0.6358
11035TIP3    H154520   2.263   2.586  11.675 -0.5699  0.8975 -1.4594
11035TIP3    H254521   2.341   2.531  11.557 -0.2488 -2.0608  0.0378
11036TIP3   OH254522   3.456   1.617   4.925 -0.7262  0.2751  0.4929
11036TIP3    H154523   3.404   1.633   5.003 -1.1104  1.0896  0.0828
11036TIP3    H254524   3.461   1.522   4.919  1.6761  0.1379  3.0388
11037TIP3   OH254525   3.356   1.763   4.231 -0.3395  0.0132  0.3167
11037TIP3    H154526   3.449   1.742   4.225 -0.5966 -0.9471 -0.3743
11037TIP3    H254527   3.340   1.776   4.325  0.4297 -0.0736  0.4584
11038TIP3   OH254528   1.704   0.418   3.026  0.6875 -0.7646  0.2999
11038TIP3    H154529   1.744   0.445   2.943  1.0033  0.0873  0.7154
11038TIP3    H254530   1.779   0.399   3.083  0.4757 -2.6277  0.0071
11039TIP3   OH254531   6.573   1.973  10.932  0.2971 -0.3298  0.5502
11039TIP3    H154532   6.520   2.044  10.895  0.5831 -1.1145 -1.5343
11039TIP3    H254533   6.660   1.987  10.896  0.1915 -2.1150 -0.5326
11040TIP3   OH254534   6.756   2.541  14.101  0.1088 -0.1887  0.4532
11040TIP3    H154535   6.828   2.518  14.042  0.0836 -1.6692  0.9597
11040TIP3    H254536   6.693   2.469  14.092 -1.9002  1.5975 -0.8356
11041TIP3   OH254537   6.636   4.152   6.128  0.0784 -0.2854 -0.0237
11041TIP3    H154538   6.724   4.151   6.167  0.2237 -0.6220 -0.3442
11041TIP3    H254539   6.592   4.076   6.166  0.3031 -0.7592 -0.6777
11042TIP3   OH254540   6.437   3.344   1.545  0.1153 -0.4892 -0.2434
11042TIP3    H154541   6.405   3.278   1.606 -1.8285  0.0111 -0.6363
11042TIP3    H254542   6.420   3.428   1.589 -1.0855 -0.1356 -1.3155
11043TIP3   OH254543   4.764   2.860   2.427 -0.2221  0.2143 -0.4483
11043TIP3    H154544   4.773   2.944   2.471 -1.9307  0.4959 -0.5496
11043TIP3    H254545   4.775   2.879   2.334  1.0873  0.0160 -0.3461
11044TIP3   OH254546   3.382   4.559  11.633 -0.0972  0.1307 -0.1830
11044TIP3    H154547   3.447   4.609  11.585  1.7114 -3.0370 -1.3067
11044TIP3    H254548   3.303   4.565  11.580  0.3314  0.9977 -0.7440
11045TIP3   OH254549   2.064   5.313  17.136 -0.0704  0.1812  0.2171
11045TIP3    H154550   2.047   5.293  17.228 -0.9761 -1.2375 -0.2219
11045TIP3    H254551   2.113   5.237  17.104 -3.9630 -1.8615 -1.6249
11046TIP3   OH254552   6.449   4.134  16.805 -0.1801  0.4654 -0.2929
11046TIP3    H154553   6.423   4.198  16.871  0.4075  0.6349 -0.2231
11046TIP3    H254554   6.539   4.158  16.782  0.6584 -1.3013  0.9218
11047TIP3   OH254555   1.623   3.735  14.249  0.0910  0.4349  0.9434
11047TIP3    H154556   1.598   3.800  14.183 -0.2705 -0.6061  0.0247
11047TIP3    H254557   1.545   3.728  14.305 -0.6113 -0.6002 -0.1187
11048TIP3   OH254558   2.392   3.009  13.870  0.1173 -0.5405 -0.3591
11048TIP3    H154559   2.324   3.037  13.932 -0.1405 -2.4520  0.2743
11048TIP3    H254560   2.473   3.045  13.906 -0.4339  1.2355 -0.7864
11049TIP3   OH254561   0.575   1.466   5.581 -0.1975  0.2854 -0.7241
11049TIP3    H154562   0.489   1.451   5.621  0.0098 -0.0643 -0.3984
11049TIP3    H254563   0.561   1.538   5.519 -0.8324 -0.0898 -1.0257
11050TIP3   OH254564   1.446   2.260   2.386 -0.0232  0.0703 -0.2606
11050TIP3    H154565   1.490   2.335   2.345 -0.4299 -0.8073 -2.3843
11050TIP3    H254566   1.358   2.292   2.407  0.3793  0.7017  0.5616
11051TIP3   OH254567   5.655   3.469  16.107 -0.1184  0.1974  0.0443
11051TIP3    H154568   5.705   3.392  16.081  0.4116  0.4020  0.4378
11051TIP3    H254569   5.612   3.498  16.027 -0.3469 -0.5234 -0.1001
11052TIP3   OH254570   2.254   0.375   3.654  0.1313  0.2574 -0.6066
11052TIP3    H154571   2.317   0.447   3.663  0.1986  0.4742 -2.3815
11052TIP3    H254572   2.218   0.387   3.566 -1.2397 -0.7981 -0.2129
11053TIP3   OH254573   0.835   4.537  17.171  0.5475 -0.1307 -0.2111
11053TIP3    H154574   0.793   4.451  17.179  0.5083 -0.1583 -0.6921
11053TIP3    H254575   0.874   4.537  17.084  0.7518  0.2512 -0.1222
11054TIP3   OH254576   3.970   2.794   1.812 -0.0226 -0.2239  0.2084
11054TIP3    H154577   3.980   2.797   1.717  0.6603 -1.3735  0.2218
11054TIP3    H254578   3.896   2.852   1.831 -1.0689 -1.0531 -1.1689
11055TIP3   OH254579   1.762   3.813   4.433  0.0791  0.2993  0.1804
11055TIP3    H154580   1.713   3.746   4.481  0.9979  0.8000  1.9212
11055TIP3    H254581   1.852   3.780   4.431  0.9008  2.0558  2.4506
11056TIP3   OH254582   5.452   2.059   5.249 -0.7693  0.7169  0.6153
11056TIP3    H154583   5.514   2.012   5.305 -0.2244  1.5296  0.7196
11056TIP3    H254584   5.366   2.039   5.286 -0.5168  0.1421  0.9031
11057TIP3   OH254585   2.496   1.114  13.784  0.1002  0.2910 -0.1859
11057TIP3    H154586   2.531   1.080  13.867 -0.0941  0.1432 -0.1650
11057TIP3    H254587   2.565   1.095  13.720 -0.4773 -1.2121 -0.4118
11058TIP3   OH254588   6.595   2.971  10.587 -0.5825 -0.1078  0.1028
11058TIP3    H154589   6.645   2.889  10.589 -0.1722  0.0813 -1.2390
11058TIP3    H254590   6.507   2.946  10.615  0.3055 -0.3624  2.9941
11059TIP3   OH254591   2.016   4.566  12.735  0.0261  0.0106  0.3630
11059TIP3    H154592   2.069   4.525  12.803 -0.5457  0.4888  1.1194
11059TIP3    H254593   1.974   4.494  12.689  0.5501 -0.3252  0.4147
11060TIP3   OH254594   5.916   4.143  14.819  0.2109 -0.0897 -0.2587
11060TIP3    H154595   6.010   4.130  14.828  0.0613 -0.2637  1.5174
11060TIP3    H254596   5.904   4.238  14.824  0.2406 -0.1109  0.2460
11061TIP3   OH254597   3.260   5.437   1.499  0.0404  0.0303 -0.4730
11061TIP3    H154598   3.250   5.520   1.451  1.8605 -0.2132 -1.3983
11061TIP3    H254599   3.303   5.379   1.436 -2.2460 -2.0540 -0.2580
11062TIP3   OH254600   4.608   4.012   1.683 -0.2676 -0.3315 -0.4036
11062TIP3    H154601   4.631   4.102   1.708  0.3844 -0.7716  0.6792
11062TIP3    H254602   4.533   4.022   1.624 -1.4526  0.8494  1.2024
11063TIP3   OH254603   1.631   5.829  16.066  0.3023 -0.0496 -0.0561
11063TIP3    H154604   1.696   5.761  16.050  1.4310  0.9688  0.0363
11063TIP3    H254605   1.676   5.911  16.043 -0.8043  0.7229  0.4361
11064TIP3   OH254606   5.118   6.526  16.646  0.0591 -0.2100  0.3831
11064TIP3    H154607   5.139   6.436  16.623 -5.3154 -1.9381  0.8568
11064TIP3    H254608   5.163   6.541  16.729  1.2244 -2.3726  0.2113
11065TIP3   OH254609   0.399   3.986   3.826  0.2231 -0.3433  0.2478
11065TIP3    H154610   0.406   4.008   3.733  0.6754 -1.4066  0.0079
11065TIP3    H254611   0.371   3.894   3.827  0.1818 -0.3334  1.1631
11066TIP3   OH254612   5.256   0.581  15.006  0.1344 -0.0863 -0.2118
11066TIP3    H154613   5.341   0.542  15.028 -0.7251 -1.8193  0.2629
11066TIP3    H254614   5.236   0.637  15.081  1.5930  1.6946 -1.0978
11067TIP3   OH254615   4.234   3.035  15.901  0.2517  0.1760  0.0262
11067TIP3    H154616   4.239   2.940  15.911  0.9157  0.2910  0.8281
11067TIP3    H254617   4.140   3.054  15.897  0.1263 -0.5816 -0.8916
11068TIP3   OH254618   0.374   6.098   3.352 -0.5093 -0.1663  0.3436
11068TIP3    H154619   0.450   6.142   3.390 -0.1547  0.5242 -1.0950
11068TIP3    H254620   0.314   6.085   3.426  0.5271  0.2733  1.2938
11069TIP3   OH254621   0.732   6.381   1.110  0.2189 -0.2770 -0.6338
11069TIP3    H154622   0.647   6.346   1.135  0.6693 -0.2863  0.9791
11069TIP3    H254623   0.713   6.470   1.079 -0.1108  0.8545  2.5205
11070TIP3   OH254624   2.742   1.378  11.671  0.1505 -0.8400 -0.2225
11070TIP3    H154625   2.693   1.366  11.590 -0.0776 -0.4384 -0.1494
11070TIP3    H254626   2.675   1.375  11.740  0.2724 -0.6448 -0.0953
11071TIP3   OH254627   0.274   1.464  13.404 -0.0763  0.7543 -0.1017
11071TIP3    H154628   0.358   1.491  13.442 -0.5865  2.1402  0.0595
11071TIP3    H254629   0.226   1.426  13.477  1.1414 -2.0165 -0.5806
11072TIP3   OH254630   2.166   5.398  13.110 -1.0915 -0.1119 -0.0446
11072TIP3    H154631   2.203   5.440  13.032  0.5914 -1.8837 -0.2657
11072TIP3    H254632   2.220   5.320  13.124 -1.6749 -0.1408  2.6134
11073TIP3   OH254633   4.834   3.194  17.026 -0.3249  0.5586  0.6229
11073TIP3    H154634   4.868   3.263  16.969  0.8507 -0.7998 -0.4179
11073TIP3    H254635   4.906   3.131  17.032 -1.2589 -0.4448  1.7725
11074TIP3   OH254636   0.530   3.851  15.267  0.2508 -0.2928 -0.3845
11074TIP3    H154637   0.465   3.820  15.204  0.5779 -0.5560 -0.5933
11074TIP3    H254638   0.595   3.897  15.213  0.2258 -0.0082 -0.1733
11075TIP3   OH254639   4.243   0.970   3.089  0.1774 -0.5895 -0.1864
11075TIP3    H154640   4.163   0.958   3.140 -0.7715 -0.7507 -1.6631
11075TIP3    H254641   4.253   1.065   3.083 -0.6023 -0.5407 -1.0014
11076TIP3   OH254642   2.360   1.441   0.016 -0.0554  0.1742  0.4067
11076TIP3    H154643   2.392   1.494  -0.058  1.5041 -0.4419  0.6061
11076TIP3    H254644   2.329   1.506   0.079 -1.1612  0.7256 -0.6372
11077TIP3   OH254645   5.979   4.644   2.840 -0.0582  0.2636 -0.9420
11077TIP3    H154646   5.904   4.669   2.786 -0.3011 -0.6077 -1.0318
11077TIP3    H254647   5.951   4.563   2.883 -0.3287  1.5195  1.4327
11078TIP3   OH254648   0.670   5.034  17.216 -0.3777  0.0829 -0.4805
11078TIP3    H154649   0.748   5.075  17.253 -0.3797 -0.3558  0.0386
11078TIP3    H254650   0.678   4.942  17.242 -0.7619 -0.0823 -0.9466
11079TIP3   OH254651   1.353   4.299   2.111 -0.5183  0.1410 -0.0902
11079TIP3    H154652   1.282   4.355   2.141 -2.6227 -2.2955 -0.2103
11079TIP3    H254653   1.377   4.334   2.025 -0.1642  2.1454  0.7563
11080TIP3   OH254654   2.870   2.667  16.077  0.2041 -0.4186 -0.2097
11080TIP3    H154655   2.948   2.637  16.029  0.1404 -0.4455 -0.2973
11080TIP3    H254656   2.801   2.668  16.011  0.1437 -0.3345 -0.1448
11081TIP3   OH254657   0.358   4.804  17.283  0.1894  0.5318 -0.0203
11081TIP3    H154658   0.383   4.729  17.229  1.8863  2.6508 -2.4237
11081TIP3    H254659   0.427   4.810  17.349  0.1107  0.0686  0.1070
11082TIP3   OH254660   2.694   2.834  13.916  0.0887 -0.3287 -0.2781
11082TIP3    H154661   2.660   2.746  13.930 -1.3454  0.4910  1.9288
11082TIP3    H254662   2.746   2.852  13.994 -0.8373  1.2946 -0.0070
11083TIP3   OH254663   3.679   4.050   0.928 -0.1918  0.1449  0.5930
11083TIP3    H154664   3.698   4.142   0.909  0.3086 -0.0122  0.2989
11083TIP3    H254665   3.764   4.007   0.921 -0.8018 -0.8171 -2.1428
11084TIP3   OH254666   1.843   6.691   0.756 -0.3243 -0.0015  0.0650
11084TIP3    H154667   1.839   6.780   0.791  1.7243 -0.0233  0.4543
11084TIP3    H254668   1.917   6.650   0.802  0.6282 -0.9549 -2.1772
11085TIP3   OH254669   5.223   1.141  17.128 -0.2569  0.0608  0.8176
11085TIP3    H154670   5.203   1.069  17.188  0.0801  2.0841  3.5225
11085TIP3    H254671   5.318   1.150  17.132  0.0545 -1.0862 -1.7810
11086TIP3   OH254672   2.916   1.462   6.897 -0.2878  0.1197  0.3093
11086TIP3    H154673   2.981   1.392   6.908  0.3459  0.8430  1.3174
11086TIP3    H254674   2.948   1.513   6.823 -0.8917 -0.7763 -0.6049
11087TIP3   OH254675   0.105   0.849   5.506 -0.0103 -0.2065 -0.4250
11087TIP3    H154676   0.143   0.922   5.555  0.5074  0.0997 -1.2645
11087TIP3    H254677   0.180   0.805   5.467 -0.4547 -0.0254 -1.5158
11088TIP3   OH254678   4.534   1.194  14.386 -0.1969 -0.7596 -0.5076
11088TIP3    H154679   4.534   1.153  14.473 -1.6809 -1.1321 -0.6538
11088TIP3    H254680   4.594   1.268  14.395 -0.6396 -0.5333  0.9633
11089TIP3   OH254681   1.588   3.691   4.648 -0.0848 -0.2715 -0.2833
11089TIP3    H154682   1.647   3.643   4.706 -1.8595  0.2113  2.1067
11089TIP3    H254683   1.530   3.623   4.612  0.3638 -0.4523 -0.6697
11090TIP3   OH254684   6.133   1.480  10.979 -0.2795  0.6020  0.3018
11090TIP3    H154685   6.043   1.505  11.000 -0.5858 -0.4303  0.2601
11090TIP3    H254686   6.124   1.399  10.929  0.6512  0.7650 -0.1459
11091TIP3   OH254687   2.731   1.888   1.910  0.8955 -0.2451 -0.5846
11091TIP3    H154688   2.731   1.929   1.997 -2.4207 -0.4903 -0.3337
11091TIP3    H254689   2.769   1.802   1.925 -1.4548 -1.0922  1.2005
11092TIP3   OH254690   2.736   4.993  14.495 -0.2413 -0.1890  0.4670
11092TIP3    H154691   2.658   4.971  14.546 -0.1471 -1.4442  0.1212
11092TIP3    H254692   2.722   4.950  14.411  0.4591  0.2611  0.1105
11093TIP3   OH254693   5.700   4.105   5.931 -0.1509  0.2641  0.4474
11093TIP3    H154694   5.774   4.152   5.971  0.7999 -1.5969  1.0331
11093TIP3    H254695   5.658   4.061   6.005 -1.0022  0.1893 -0.0756
11094TIP3   OH254696   2.813   6.536  12.702  0.2684  0.6611 -0.3567
11094TIP3    H154697   2.734   6.480  12.704 -0.2070  1.3147  0.9209
11094TIP3    H254698   2.852   6.520  12.617  0.0197 -1.4545 -0.1249
11095TIP3   OH254699   5.266   3.206   5.720  0.4607 -0.2411 -0.0522
11095TIP3    H154700   5.225   3.137   5.772 -1.6882  0.7260 -0.3497
11095TIP3    H254701   5.231   3.287   5.756  1.9839  0.6581 -0.5098
11096TIP3   OH254702   5.562   4.867   3.735  0.1633 -0.3532  0.1362
11096TIP3    H154703   5.606   4.791   3.772 -2.6611 -1.0936  2.3259
11096TIP3    H254704   5.594   4.941   3.786  1.1774 -0.3582 -0.4559
11097TIP3   OH254705   2.974   2.691   2.186 -0.3665 -0.5778  0.4924
11097TIP3    H154706   2.986   2.617   2.126  0.0005 -0.2871  0.2064
11097TIP3    H254707   3.056   2.740   2.181 -1.9154  2.1025 -2.3870
11098TIP3   OH254708   2.571   0.035   5.662 -1.0208 -0.6197 -0.2130
11098TIP3    H154709   2.501  -0.021   5.694 -2.0373  1.1513  0.8561
11098TIP3    H254710   2.544   0.124   5.688 -0.2634  0.5885 -3.1162
11099TIP3   OH254711   5.085   3.621   3.519 -0.4678  0.2722  0.2119
11099TIP3    H154712   5.137   3.632   3.439  0.5164  0.3893  0.8600
11099TIP3    H254713   5.126   3.547   3.564 -1.0947  0.1291  0.5564
11100TIP3   OH254714   3.731   6.726  11.576  0.8742  0.5113  0.2470
11100TIP3    H154715   3.680   6.657  11.533  0.4499  0.5094  0.7478
11100TIP3    H254716   3.792   6.679  11.633 -0.9794  0.5609  2.3761
11101TIP3   OH254717   4.467   3.026  14.185 -0.0040 -0.6530  0.2437
11101TIP3    H154718   4.475   3.061  14.096  1.2791 -1.2238  0.1168
11101TIP3    H254719   4.415   2.947  14.174  0.6345 -1.0307 -0.0867
11102TIP3   OH254720   6.661   0.910  15.793  1.1536  0.1525 -0.2214
11102TIP3    H154721   6.598   0.938  15.727 -0.1501  0.5146  1.1247
11102TIP3    H254722   6.746   0.938  15.758  0.4371  0.9469 -1.4106
11103TIP3   OH254723   6.318   6.410   5.429  0.1103 -0.1695  1.0092
11103TIP3    H154724   6.226   6.436   5.431 -0.0513 -0.4487 -0.8318
11103TIP3    H254725   6.316   6.314   5.439  0.0134 -0.4073 -0.9349
11104TIP3   OH254726   0.899   4.994  14.891 -0.3437 -0.3924 -0.1998
11104TIP3    H154727   0.883   4.901  14.874  0.5488 -0.5415 -0.2641
11104TIP3    H254728   0.908   5.000  14.986  1.1866 -0.6594 -0.2949
11105TIP3   OH254729   1.464   0.654   2.307 -0.9811 -0.1738  0.0615
11105TIP3    H154730   1.493   0.664   2.216 -0.3215 -0.5275  0.2245
11105TIP3    H254731   1.377   0.694   2.309 -0.4201  1.1238 -0.3903
11106TIP3   OH254732   2.699   2.022   5.495 -0.2424  0.3009  0.7224
11106TIP3    H154733   2.614   1.994   5.529 -1.1889 -0.9388 -2.3036
11106TIP3    H254734   2.748   1.941   5.480  0.0676  0.7303 -0.8195
11107TIP3   OH254735   4.346   0.334   1.527  0.3634  0.2825  0.0432
11107TIP3    H154736   4.376   0.406   1.583 -1.3343  0.4533  0.7867
11107TIP3    H254737   4.346   0.257   1.584  1.5018 -0.1930 -0.5636
11108TIP3   OH254738   0.980   3.547   4.093 -0.7315 -0.4878 -0.0151
11108TIP3    H154739   0.960   3.632   4.133 -0.3247 -0.2055 -0.4020
11108TIP3    H254740   1.014   3.569   4.006  0.9875 -0.9271  0.4999
11109TIP3   OH254741   6.464   0.131   5.721 -0.4266 -0.1035  0.6091
11109TIP3    H154742   6.466   0.211   5.774  0.3460 -0.9396  1.8721
11109TIP3    H254743   6.491   0.062   5.780  0.7935 -1.0334 -0.9644
11110TIP3   OH254744   3.749   1.513  14.297 -0.0574  0.4595  0.2413
11110TIP3    H154745   3.665   1.485  14.259  0.0182  0.3364  0.1658
11110TIP3    H254746   3.758   1.604  14.270  0.5920  0.0302 -1.1039
11111TIP3   OH254747   6.419   0.885   1.212 -0.2267  0.7719 -0.2825
11111TIP3    H154748   6.434   0.860   1.121  0.0436  0.1049 -0.0619
11111TIP3    H254749   6.327   0.864   1.228 -0.0247 -0.0056 -0.1261
11112TIP3   OH254750   1.074   5.043  17.017 -0.3853  0.1645  0.0424
11112TIP3    H154751   0.999   4.989  17.042 -0.5231  0.9618  1.4217
11112TIP3    H254752   1.121   4.990  16.952 -1.0679 -1.1665  0.5958
11113TIP3   OH254753   2.387   6.356   0.508  0.0662 -0.3037 -0.1760
11113TIP3    H154754   2.454   6.295   0.539  1.9801  1.8749  0.3046
11113TIP3    H254755   2.304   6.311   0.523  1.1884 -1.6150  2.9547
11114TIP3   OH254756   1.501   4.402  13.002  0.2953  0.2559  0.0316
11114TIP3    H154757   1.555   4.324  12.987  1.7059  1.0291  0.9587
11114TIP3    H254758   1.434   4.373  13.064  0.8648 -0.2051  0.4447
11115TIP3   OH254759   3.277   4.107   5.759 -0.1213  0.6828 -0.0320
11115TIP3    H154760   3.183   4.086   5.764 -0.2451  1.5026  1.6931
11115TIP3    H254761   3.280   4.201   5.742  0.4284  0.3131 -2.2445
11116TIP3   OH254762   6.606   1.946  16.483 -0.1073 -0.7836  0.5473
11116TIP3    H154763   6.682   1.938  16.425  0.1834 -0.4135  0.8668
11116TIP3    H254764   6.553   2.015  16.444 -0.8792 -1.8547 -0.3258
11117TIP3   OH254765   4.411   0.543   0.569 -0.3020  0.4040 -0.0697
11117TIP3    H154766   4.400   0.628   0.613 -1.0266  0.0313  0.4911
11117TIP3    H254767   4.374   0.480   0.630 -0.3643 -0.2478 -0.7708
11118TIP3   OH254768   0.555   5.586  13.749  0.0091  0.0209  0.0640
11118TIP3    H154769   0.622   5.642  13.788 -0.5771  1.7213 -1.2598
11118TIP3    H254770   0.487   5.646  13.720 -1.2901 -1.5133 -0.2127
11119TIP3   OH254771   1.695   4.803  11.645 -0.1712 -0.2067 -0.7556
11119TIP3    H154772   1.680   4.865  11.716  0.5759  0.1929 -0.9331
11119TIP3    H254773   1.613   4.803  11.595 -1.0150 -1.1159  0.5483
11120TIP3   OH254774   1.853   5.590   4.243  0.3344 -0.4973  0.6860
11120TIP3    H154775   1.916   5.619   4.310  0.4614  1.1998 -0.1075
11120TIP3    H254776   1.907   5.578   4.165 -0.0523 -0.9905  0.4917
11121TIP3   OH254777   3.521   4.844   4.257 -0.0907 -0.1312 -0.1664
11121TIP3    H154778   3.542   4.846   4.164  0.0446 -1.9547 -0.2087
11121TIP3    H254779   3.604   4.863   4.301  0.3552 -1.4506 -0.4076
11122TIP3   OH254780   5.988   0.568   1.993 -0.4628  0.0679 -0.2879
11122TIP3    H154781   5.894   0.555   2.009  0.0571 -1.2094  2.1498
11122TIP3    H254782   6.020   0.482   1.968  0.5858 -0.3656  2.2450
11123TIP3   OH254783   2.891   5.670   0.562  0.0266 -0.2588 -0.1831
11123TIP3    H154784   2.974   5.683   0.608  0.1966 -1.1906 -0.2046
11123TIP3    H254785   2.866   5.580   0.584 -0.7218 -0.1534 -0.5868
11124TIP3   OH254786   5.060   1.918  14.682 -0.6874  0.1680 -0.1344
11124TIP3    H154787   5.127   1.985  14.691 -0.8863  0.5178 -1.1203
11124TIP3    H254788   4.994   1.940  14.748 -0.6379  0.8056 -0.2972
11125TIP3   OH254789   0.108   5.230  12.779 -0.0554 -0.7197  0.0720
11125TIP3    H154790   0.122   5.237  12.874 -0.5383 -3.4667  0.4437
11125TIP3    H254791   0.188   5.189  12.746  0.2560  0.5419 -0.8026
11126TIP3   OH254792   5.031   2.474  13.378 -0.3325 -0.4324  0.0195
11126TIP3    H154793   4.969   2.445  13.445 -2.0300 -0.7105 -1.5855
11126TIP3    H254794   5.025   2.569  13.380  0.0345 -0.4148  0.6083
11127TIP3   OH254795   0.874   3.152  11.709 -0.6498  0.0982  0.2054
11127TIP3    H154796   0.842   3.084  11.649  0.1797  0.1714 -0.3444
11127TIP3    H254797   0.935   3.106  11.767 -1.2021  0.0931  0.7901
11128TIP3   OH254798   2.590   0.983  11.370  0.1948 -0.4460 -0.1856
11128TIP3    H154799   2.574   0.982  11.275  1.6856  0.0006 -0.4607
11128TIP3    H254800   2.676   1.023  11.379 -0.4688  0.6745  1.4514
11129TIP3   OH254801   2.452   0.733   1.392  0.5646  0.0284 -0.0179
11129TIP3    H154802   2.488   0.644   1.387  0.2506 -0.0421 -3.0763
11129TIP3    H254803   2.456   0.765   1.302  0.5271  3.1055  0.9758
11130TIP3   OH254804   1.852   1.996   6.176  0.4987  0.0390 -1.0204
11130TIP3    H154805   1.926   1.946   6.143  1.4699  0.4117  0.4615
11130TIP3    H254806   1.877   2.019   6.266 -0.9652  1.0835 -0.8392
11131TIP3   OH254807   3.255   6.293   3.112 -0.0694 -0.1535 -0.1787
11131TIP3    H154808   3.310   6.221   3.084  0.8694  0.0845  0.9684
11131TIP3    H254809   3.216   6.326   3.031 -1.1198 -2.3869 -0.6537
11132TIP3   OH254810   3.401   1.404  17.185 -0.0088 -0.1587  0.7338
11132TIP3    H154811   3.496   1.410  17.192  0.0920 -0.6373 -0.1383
11132TIP3    H254812   3.370   1.421  17.274  0.9076 -0.4450  1.1244
11133TIP3   OH254813   4.526   2.200  11.675 -0.0843 -0.1436 -0.5477
11133TIP3    H154814   4.565   2.278  11.636  0.3824  1.5658  2.9818
11133TIP3    H254815   4.453   2.233  11.727  0.6799 -1.8903  1.7799
11134TIP3   OH254816   5.303   4.653   0.414 -0.1575 -0.0033  0.1707
11134TIP3    H154817   5.288   4.560   0.428  0.5871 -0.0441  0.8053
11134TIP3    H254818   5.225   4.696   0.449 -1.6729 -0.4798 -2.4035
11135TIP3   OH254819   4.629   5.892  14.686 -0.3046 -0.4794 -0.0999
11135TIP3    H154820   4.643   5.836  14.610 -0.1963  1.4516 -1.5800
11135TIP3    H254821   4.547   5.939  14.667  0.8532  1.6546 -0.1287
11136TIP3   OH254822   3.204   0.594  15.690  0.2867 -0.3372  0.0275
11136TIP3    H154823   3.163   0.543  15.760  1.9232 -0.6181  0.8371
11136TIP3    H254824   3.297   0.598  15.714  0.4337  1.9708 -0.6732
11137TIP3   OH254825   0.894   6.500  15.325  0.0041  0.3627 -0.5644
11137TIP3    H154826   0.925   6.457  15.246  0.1291  1.9110 -1.4089
11137TIP3    H254827   0.802   6.476  15.331 -0.0976  0.5182 -1.3983
11138TIP3   OH254828   1.737   0.872  14.483 -0.8243 -0.1937 -0.3205
11138TIP3    H154829   1.780   0.956  14.497  0.5519 -0.6458 -1.4687
11138TIP3    H254830   1.646   0.893  14.463 -0.1534  1.1777 -2.2403
11139TIP3   OH254831   2.086   4.822   3.133 -0.0619  0.4894 -0.3064
11139TIP3    H154832   2.106   4.885   3.063 -0.0582 -0.5667 -1.2834
11139TIP3    H254833   2.153   4.838   3.199 -0.8005  2.3518  0.0580
11140TIP3   OH254834   6.017   0.096  16.728  0.3680 -0.0410 -0.1156
11140TIP3    H154835   6.090   0.038  16.706 -1.3649 -1.6609 -2.0454
11140TIP3    H254836   5.967   0.047  16.794  0.4430  0.6004  0.4277
11141TIP3   OH254837   5.292   3.726  13.913  0.4850  0.0360  0.8819
11141TIP3    H154838   5.324   3.748  14.001 -0.2500 -2.5931  1.9158
11141TIP3    H254839   5.370   3.729  13.858  0.9353  1.9128  1.5397
11142TIP3   OH254840   2.230   6.715  15.868 -0.7319 -0.3375 -0.2365
11142TIP3    H154841   2.182   6.656  15.926 -0.8875 -1.1410 -1.1612
11142TIP3    H254842   2.309   6.739  15.917 -1.1421 -0.5234  0.5325
11143TIP3   OH254843   0.689   6.073   4.823  0.4276 -0.3176  0.0674
11143TIP3    H154844   0.657   6.013   4.891 -1.5729  0.3926 -0.1714
11143TIP3    H254845   0.678   6.024   4.741  1.8908 -0.7988  0.1335
11144TIP3   OH254846   5.843   2.526  12.514 -0.1936 -0.0663 -0.0675
11144TIP3    H154847   5.885   2.476  12.584  1.3925  0.8544 -0.3188
11144TIP3    H254848   5.756   2.546  12.548 -0.6632 -2.4106  0.2992
11145TIP3   OH254849   1.500   2.707   3.652  0.5181 -0.4846  0.2685
11145TIP3    H154850   1.463   2.619   3.659 -0.0775 -0.3136 -0.6231
11145TIP3    H254851   1.505   2.738   3.742  1.4950 -1.7358  0.6774
11146TIP3   OH254852   5.780   2.051   5.681  0.6599 -0.2805  0.1187
11146TIP3    H154853   5.768   1.956   5.669  0.4170 -0.1370 -0.8988
11146TIP3    H254854   5.704   2.079   5.730 -0.3123 -0.3024 -1.3247
11147TIP3   OH254855   1.296   1.887   0.851 -0.2753 -0.5247 -0.2266
11147TIP3    H154856   1.276   1.804   0.894 -1.5453 -0.3751 -0.4767
11147TIP3    H254857   1.317   1.863   0.760 -0.2062 -0.6081 -0.1888
11148TIP3   OH254858   2.639   0.286   4.937 -0.1889 -0.0877 -0.2680
11148TIP3    H154859   2.620   0.236   5.017  1.1285 -0.6817 -0.3031
11148TIP3    H254860   2.680   0.223   4.879  0.7831  0.8388 -0.6208
11149TIP3   OH254861   2.970   1.936  14.662  0.1340  0.1477 -0.2106
11149TIP3    H154862   3.053   1.983  14.673  0.3111 -0.3849  0.8472
11149TIP3    H254863   2.903   2.005  14.665  0.5526  0.7249 -2.1994
11150TIP3   OH254864   6.681   5.984   3.559  0.3549 -0.0425  0.1357
11150TIP3    H154865   6.609   5.920   3.555 -0.1525  0.5340 -3.3761
11150TIP3    H254866   6.638   6.068   3.543  1.4488  0.7770  1.3600
11151TIP3   OH254867   4.817   1.993  12.089 -0.2506  0.2261 -0.2139
11151TIP3    H154868   4.840   1.908  12.052 -0.0415  0.5726 -0.8938
11151TIP3    H254869   4.896   2.047  12.077 -0.1140  0.3003  0.8966
11152TIP3   OH254870   5.050   2.181   6.516  0.5153  0.5045  0.0304
11152TIP3    H154871   4.968   2.147   6.479  0.6169 -0.1521  0.3915
11152TIP3    H254872   5.022   2.246   6.580  0.0121 -2.5049  3.1230
11153TIP3   OH254873   5.826   0.219  15.006 -0.0399 -0.0427 -0.1601
11153TIP3    H154874   5.841   0.210  15.100  1.1954 -1.1640 -0.4349
11153TIP3    H254875   5.825   0.314  14.991 -0.9084  0.1753  1.0519
11154TIP3   OH254876   4.058   6.125   0.623 -0.2346  0.2732 -0.5270
11154TIP3    H154877   4.028   6.112   0.534 -0.1879  1.9944 -0.8308
11154TIP3    H254878   4.148   6.157   0.614  0.5528 -1.5723  0.2427
11155TIP3   OH254879   1.203   3.897   3.297  0.5905  0.3867 -0.2443
11155TIP3    H154880   1.186   3.986   3.329 -0.1889  0.0032  0.4475
11155TIP3    H254881   1.298   3.893   3.289  0.5686  1.6408 -1.3798
11156TIP3   OH254882   3.407   0.530   6.057  0.3299  0.1177  0.8152
11156TIP3    H154883   3.380   0.443   6.088  0.7505 -1.0623 -1.8163
11156TIP3    H254884   3.345   0.550   5.986  1.2382  1.1949  0.3024
11157TIP3   OH254885   0.716   2.791  12.616 -0.2447 -0.4294  0.6909
11157TIP3    H154886   0.687   2.798  12.525  1.4560  0.4525  0.1768
11157TIP3    H254887   0.702   2.699  12.638 -0.0852 -0.8030 -0.6721
11158TIP3   OH254888   4.118   3.162   5.494  0.1171  0.1009  0.2399
11158TIP3    H154889   4.177   3.225   5.453 -0.5050  1.4185  1.3177
11158TIP3    H254890   4.147   3.156   5.584 -0.0459 -0.9243  0.2367
11159TIP3   OH254891   1.812   5.755  13.500  0.2984 -0.0562 -0.2177
11159TIP3    H154892   1.872   5.810  13.550 -0.3715  1.6758 -1.2253
11159TIP3    H254893   1.728   5.763  13.545  0.1601 -0.1282 -0.4621
11160TIP3   OH254894   6.677   6.180   5.309 -0.0874 -0.1117  0.1668
11160TIP3    H154895   6.657   6.135   5.391  1.3758 -0.9077  0.1069
11160TIP3    H254896   6.750   6.131   5.271 -0.2523  0.6859 -1.2583
11161TIP3   OH254897   1.416   3.410   3.964 -0.1612  0.3854 -0.0536
11161TIP3    H154898   1.344   3.356   3.997 -0.5594 -1.1617 -3.1224
11161TIP3    H254899   1.494   3.357   3.981 -0.4962 -1.0691 -2.5236
11162TIP3   OH254900   5.892   0.694   0.331 -0.3296  0.2252 -0.0995
11162TIP3    H154901   5.974   0.670   0.288 -1.1869 -0.9118 -1.2035
11162TIP3    H254902   5.827   0.689   0.261 -1.3020  1.3813  0.6924
11163TIP3   OH254903   1.410   2.138  11.932  0.0099 -0.4560  0.2847
11163TIP3    H154904   1.455   2.054  11.935 -0.0131 -0.5435 -0.9760
11163TIP3    H254905   1.459   2.194  11.992  0.4906 -1.1515  0.5527
11164TIP3   OH254906   1.378   6.143  14.044  0.1599  0.2249 -0.2759
11164TIP3    H154907   1.419   6.083  13.982 -0.1904 -0.9361  0.5840
11164TIP3    H254908   1.451   6.181  14.092  0.3132 -0.9515  0.4548
11165TIP3   OH254909   6.196   6.585   3.190 -0.2437  0.2616 -0.4695
11165TIP3    H154910   6.203   6.599   3.285 -0.8041  1.2146 -0.5608
11165TIP3    H254911   6.123   6.524   3.181  1.2805 -1.7225 -0.1658
11166TIP3   OH254912   0.635   5.715  11.301  0.9347  0.0729 -0.2986
11166TIP3    H154913   0.673   5.789  11.253  0.0772  1.3090  0.8671
11166TIP3    H254914   0.708   5.681  11.354  1.2883  0.1911 -0.7032
11167TIP3   OH254915   0.081   0.059  14.763 -0.2138  0.4050  0.2486
11167TIP3    H154916   0.050   0.116  14.833 -1.4138  0.1999 -0.0968
11167TIP3    H254917   0.113   0.119  14.696 -0.9153  0.6607  0.1380
11168TIP3   OH254918   5.843   1.717   2.646  0.5133  0.4837  0.1580
11168TIP3    H154919   5.757   1.751   2.620 -1.0104 -2.1884  1.2778
11168TIP3    H254920   5.865   1.765   2.725 -0.1881  0.8637  0.1328
11169TIP3   OH254921   1.113   0.102  11.392  0.5076  0.0716 -0.0403
11169TIP3    H154922   1.031   0.123  11.347  0.9706  1.0172 -0.4575
11169TIP3    H254923   1.181   0.135  11.334  1.1372  0.8017  1.0902
11170TIP3   OH254924   5.626   4.238  10.867  0.1456 -0.0748  0.6176
11170TIP3    H154925   5.695   4.211  10.807 -0.0325 -0.5769  0.6347
11170TIP3    H254926   5.616   4.332  10.852 -0.4404 -0.3304 -0.7130
11171TIP3   OH254927   0.769   0.163  15.827  0.7079  0.1103 -0.0479
11171TIP3    H154928   0.814   0.221  15.766  1.4820  0.3617  0.7378
11171TIP3    H254929   0.835   0.143  15.894  0.6092 -2.0348 -0.5282
11172TIP3   OH254930   3.448   4.812   5.769  0.9026 -0.3691  0.0892
11172TIP3    H154931   3.540   4.836   5.762  0.7902 -0.0546 -0.4055
11172TIP3    H254932   3.438   4.779   5.858  1.9782 -2.5417 -0.5231
11173TIP3   OH254933   2.792   4.469  11.432  0.1688  0.3065  0.1105
11173TIP3    H154934   2.884   4.494  11.436 -0.2786  2.0254  0.7726
11173TIP3    H254935   2.757   4.520  11.358 -0.4337  0.3366  0.4107
11174TIP3   OH254936   6.329   0.904   3.679  0.2516  0.2446 -0.1991
11174TIP3    H154937   6.338   0.869   3.768  1.0500  1.7669  0.3615
11174TIP3    H254938   6.331   0.827   3.622  0.2432 -0.7177  1.0599
11175TIP3   OH254939   3.226   3.598  12.646  0.2934 -0.0807 -0.1788
11175TIP3    H154940   3.132   3.607  12.634  0.3391  1.1825  0.2125
11175TIP3    H254941   3.236   3.523  12.704 -0.3663 -1.1507 -1.3849
11176TIP3   OH254942   2.022   2.539  13.038 -0.2421  0.2602  0.1329
11176TIP3    H154943   2.002   2.570  13.126  0.0420  0.7290  0.0343
11176TIP3    H254944   1.939   2.550  12.990  0.5066  3.6744 -0.6979
11177TIP3   OH254945   1.001   3.015  14.115  0.2268 -0.2774  0.1222
11177TIP3    H154946   1.010   3.110  14.117 -1.9751 -0.0261 -0.0888
11177TIP3    H254947   1.063   2.984  14.181  1.5723  1.2110 -0.3661
11178TIP3   OH254948   6.171   4.033  12.084 -0.2873 -0.1519 -0.0415
11178TIP3    H154949   6.084   4.050  12.049  0.6243  1.1264 -1.8333
11178TIP3    H254950   6.185   4.102  12.148  0.0212  0.6659 -0.9664
11179TIP3   OH254951   4.801   3.372  13.775 -0.3618  0.8072  0.1425
11179TIP3    H154952   4.793   3.357  13.869  1.2028  0.9409  0.3175
11179TIP3    H254953   4.821   3.286  13.739 -1.9848  0.5569 -0.2226
11180TIP3   OH254954   3.492   3.855  16.116 -0.0017  0.2777 -0.3653
11180TIP3    H154955   3.544   3.785  16.079 -0.4653  0.0779 -0.6510
11180TIP3    H254956   3.401   3.825  16.107 -0.1735  0.6752 -0.0027
11181TIP3   OH254957   6.166   6.713   6.639 -0.2655 -0.0295  0.1473
11181TIP3    H154958   6.254   6.748   6.627 -0.6457  0.3944 -1.5728
11181TIP3    H254959   6.167   6.678   6.729  2.1433 -1.5566 -0.3759
11182TIP3   OH254960   4.316   2.356   1.901  0.1175 -1.0102 -0.1780
11182TIP3    H154961   4.256   2.430   1.908  1.8632  0.6303 -1.5876
11182TIP3    H254962   4.293   2.313   1.819  0.3006 -0.8918 -0.2930
11183TIP3   OH254963   2.642   0.857   0.179 -0.1175 -0.4353  0.2328
11183TIP3    H154964   2.711   0.852   0.113 -0.8976  0.2626 -0.6663
11183TIP3    H254965   2.560   0.850   0.129 -0.7315 -3.3446  1.4553
11184TIP3   OH254966   2.278   0.830  16.077  0.3367  0.0410 -0.1820
11184TIP3    H154967   2.221   0.764  16.039 -0.5382  0.5015  0.3041
11184TIP3    H254968   2.256   0.911  16.031  1.4545  0.0043 -0.8295
11185TIP3   OH254969   1.558   6.616  11.932  0.1045  0.1044 -0.1274
11185TIP3    H154970   1.481   6.603  11.988  1.0025  0.4442  1.2445
11185TIP3    H254971   1.572   6.531  11.890  0.0616 -0.5135  1.0568
11186TIP3   OH254972   6.184   2.330  14.226 -0.8034  0.2276  0.2566
11186TIP3    H154973   6.222   2.399  14.280 -0.7203 -0.5660  1.2381
11186TIP3    H254974   6.106   2.301  14.274  0.3170 -1.8136  0.9861
11187TIP3   OH254975   5.746   1.289   2.009 -0.2603 -0.5864  0.0547
11187TIP3    H154976   5.756   1.201   1.973  0.1842 -1.1930  1.5892
11187TIP3    H254977   5.814   1.296   2.077  0.3646  1.3054 -0.6865
11188TIP3   OH254978   6.211   3.814  14.920  0.1849  0.1653 -0.5049
11188TIP3    H154979   6.129   3.788  14.962  0.3934  0.0812 -0.1464
11188TIP3    H254980   6.252   3.873  14.983  0.9597 -0.7334 -0.1612
11189TIP3   OH254981   3.014   2.262   2.386  0.0305 -0.0040  0.0486
11189TIP3    H154982   3.074   2.194   2.356  0.9542  1.7345 -2.4132
11189TIP3    H254983   3.069   2.323   2.434 -0.1961  0.4799 -0.2984
11190TIP3   OH254984   3.531   2.951  12.759  0.1233  0.3641 -0.2999
11190TIP3    H154985   3.568   2.888  12.697 -1.0787 -0.4650 -0.2184
11190TIP3    H254986   3.480   2.897  12.819  0.0542  1.3112  0.5134
11191TIP3   OH254987   4.515   0.991  11.327  0.6897 -0.0270 -0.4303
11191TIP3    H154988   4.427   0.959  11.312  1.1841 -2.7638  1.6760
11191TIP3    H254989   4.503   1.076  11.371 -0.8192  0.3765 -1.5551
11192TIP3   OH254990   0.292   3.881  13.408  0.0273 -0.0064 -0.2688
11192TIP3    H154991   0.264   3.953  13.464 -1.6345 -0.6309 -0.2330
11192TIP3    H254992   0.380   3.858  13.439  0.1091  1.2363  0.4657
11193TIP3   OH254993   2.782   6.709   2.787  0.3663 -0.0079 -0.1177
11193TIP3    H154994   2.696   6.698   2.828  1.1044 -4.7515  0.6969
11193TIP3    H254995   2.832   6.761   2.849 -1.0226  0.2871  0.8079
11194TIP3   OH254996   1.315   4.324  13.208 -0.4498 -0.2812 -0.0371
11194TIP3    H154997   1.350   4.248  13.163  2.2424  1.3294 -0.8946
11194TIP3    H254998   1.300   4.294  13.298 -0.4510 -2.0388 -0.5806
11195TIP3   OH254999   5.326   4.883  11.898 -0.5469  0.0507 -0.3049
11195TIP3    H155000   5.313   4.813  11.961 -1.0190 -0.7458 -1.2556
11195TIP3    H255001   5.237   4.909  11.872 -0.3677  0.6928 -0.2888
11196TIP3   OH255002   6.249   1.935  14.873 -0.3490 -0.5259 -0.1701
11196TIP3    H155003   6.210   1.982  14.946  0.4145 -0.8710  0.4704
11196TIP3    H255004   6.343   1.950  14.881 -0.2690 -0.4055 -1.2006
11197TIP3   OH255005   5.459   4.596   1.743 -0.0516 -0.1782  0.5993
11197TIP3    H155006   5.521   4.663   1.772 -1.1015  0.7212  0.8124
11197TIP3    H255007   5.412   4.636   1.670 -0.2354 -0.9382  0.2867
11198TIP3   OH255008   0.226   3.455   1.181 -0.5315  0.5333  0.2736
11198TIP3    H155009   0.237   3.374   1.131  1.5994 -0.6416  2.4357
11198TIP3    H255010   0.160   3.505   1.132 -2.2145 -2.6280 -0.9418
11199TIP3   OH255011   1.438   1.371  15.250 -0.2981 -0.5498 -0.1865
11199TIP3    H155012   1.407   1.433  15.184 -1.6409 -0.8528  0.1316
11199TIP3    H255013   1.359   1.342  15.295  0.3512 -2.2038 -0.0656
11200TIP3   OH255014   1.695   4.031  14.954  0.2160  0.6472  0.1398
11200TIP3    H155015   1.647   4.113  14.938 -0.8708 -0.0634 -0.3497
11200TIP3    H255016   1.757   4.053  15.023 -1.4171  1.3888  1.4412
11201TIP3   OH255017   6.585   4.497   5.301  1.2880  0.1695  0.1169
11201TIP3    H155018   6.628   4.459   5.378  1.5768 -1.3025 -0.7353
11201TIP3    H255019   6.500   4.526   5.333  0.9863 -1.3573  0.8113
11202TIP3   OH255020   3.609   1.098  15.481  0.5423 -0.4825  0.5694
11202TIP3    H155021   3.564   1.025  15.525  2.0974 -1.4953  0.5210
11202TIP3    H255022   3.615   1.071  15.390  0.8983 -0.1683  0.5007
11203TIP3   OH255023   2.508   5.486  16.148  0.4909 -0.3759  0.3839
11203TIP3    H155024   2.588   5.534  16.168  1.7691 -1.5374 -1.6663
11203TIP3    H255025   2.537   5.398  16.125 -1.5533 -1.3776  1.3179
11204TIP3   OH255026   4.366   5.284  11.589 -0.1158 -0.2941  0.2818
11204TIP3    H155027   4.444   5.336  11.608 -0.4085  0.3097 -0.1222
11204TIP3    H255028   4.392   5.194  11.609  0.8313 -0.1606 -0.2742
11205TIP3   OH255029   6.180   4.175   5.689 -0.1895  0.1296 -0.7219
11205TIP3    H155030   6.202   4.117   5.762 -0.1143 -0.1831 -0.9929
11205TIP3    H255031   6.098   4.217   5.715  0.7137  1.3338  0.3212
11206TIP3   OH255032   0.528   4.240   2.018 -0.0134 -0.2149 -0.2026
11206TIP3    H155033   0.578   4.319   2.039  0.6127 -0.5259 -0.4997
11206TIP3    H255034   0.584   4.192   1.957 -0.5501 -0.7124 -0.3081
11207TIP3   OH255035   5.255   3.279  15.675 -0.2263 -0.0037  0.0279
11207TIP3    H155036   5.328   3.291  15.615 -0.3800 -1.3676 -0.4624
11207TIP3    H255037   5.201   3.210  15.635 -0.4687 -0.7842  1.5900
11208TIP3   OH255038   2.155   0.667   4.356  0.5447  0.3087  0.4151
11208TIP3    H155039   2.109   0.679   4.440  1.3862  0.1015  0.9163
11208TIP3    H255040   2.235   0.719   4.365  0.9432 -0.2223 -0.0193
11209TIP3   OH255041   0.323   2.384  15.998 -0.1368 -0.2054  0.2893
11209TIP3    H155042   0.392   2.386  16.064  1.1973 -0.2797 -1.0379
11209TIP3    H255043   0.320   2.292  15.970  0.2822  0.0563 -0.6804
11210TIP3   OH255044   1.158   3.943  13.247 -0.1229 -0.1317  0.2713
11210TIP3    H155045   1.178   3.977  13.334  0.7873 -0.9579  0.3989
11210TIP3    H255046   1.139   3.850  13.261  2.2780 -0.8390 -0.6577
11211TIP3   OH255047   0.950   5.448  13.672  0.4835  0.0894 -0.2905
11211TIP3    H155048   0.966   5.377  13.609  0.5837  1.0861 -1.4420
11211TIP3    H255049   1.025   5.507  13.660 -0.2801  1.0741 -0.3653
11212TIP3   OH255050   6.023   2.923   3.800  0.2844 -0.2382 -0.4385
11212TIP3    H155051   5.996   2.858   3.736 -2.1066 -1.9737  2.1251
11212TIP3    H255052   6.088   2.878   3.854  0.0930  0.1997  0.1608
11213TIP3   OH255053   0.327   6.252   4.242 -0.3537  0.1204 -0.4945
11213TIP3    H155054   0.364   6.333   4.207  1.8369 -0.7277 -0.3173
11213TIP3    H255055   0.366   6.244   4.329 -1.1027 -0.7850 -0.2211
11214TIP3   OH255056   3.756   3.145  13.935  0.3461  0.1565  0.3852
11214TIP3    H155057   3.777   3.230  13.973  2.0305 -0.6344  1.3463
11214TIP3    H255058   3.739   3.163  13.842  2.8721  1.3064  0.0598
11215TIP3   OH255059   5.004   6.347   4.249 -0.0471 -0.1737 -0.4333
11215TIP3    H155060   4.992   6.252   4.238  1.1434 -0.2790 -0.9539
11215TIP3    H255061   5.031   6.357   4.340  0.8783 -0.4565 -0.6690
11216TIP3   OH255062   2.055   4.330   5.374  0.1786  0.7992 -0.1362
11216TIP3    H155063   2.126   4.369   5.324 -0.1452  0.8027 -0.6013
11216TIP3    H255064   2.010   4.272   5.312 -0.6831  1.3668 -0.0674
11217TIP3   OH255065   0.698   5.931   4.601 -0.1394  0.0846  0.1685
11217TIP3    H155066   0.749   5.946   4.521 -4.4481  3.6448 -2.4253
11217TIP3    H255067   0.618   5.887   4.571 -0.9034 -0.6625  2.9940
11218TIP3   OH255068   0.164   2.799  11.861  0.4073 -0.5641 -0.4647
11218TIP3    H155069   0.151   2.782  11.768 -1.1291 -1.2461 -0.1598
11218TIP3    H255070   0.112   2.878  11.878  1.1207 -0.1274 -0.2876
11219TIP3   OH255071   3.886   1.232  15.897  1.1440  0.5191 -0.2443
11219TIP3    H155072   3.818   1.212  15.960  0.7514 -1.1284 -1.1157
11219TIP3    H255073   3.847   1.296  15.837  0.4196 -0.2310 -0.5930
11220TIP3   OH255074   0.498   2.557   2.387 -0.4896  0.0256 -0.6635
11220TIP3    H155075   0.539   2.621   2.330  1.2457  0.3614  0.8594
11220TIP3    H255076   0.569   2.496   2.410 -1.2200 -0.3508  0.7299
11221TIP3   OH255077   6.457   4.916  11.072 -0.1756  0.6698  0.1284
11221TIP3    H155078   6.375   4.961  11.091 -0.5348  1.7725 -3.3814
11221TIP3    H255079   6.520   4.986  11.055  0.1736 -0.0841 -1.9427
11222TIP3   OH255080   5.395   2.304   1.579  0.0475 -0.3686  0.2327
11222TIP3    H155081   5.427   2.289   1.668 -0.0046  1.0463  0.5244
11222TIP3    H255082   5.388   2.217   1.540  1.2427 -0.9226  1.2045
11223TIP3   OH255083   4.698   5.184   3.144 -0.2663 -0.2886  0.2086
11223TIP3    H155084   4.791   5.182   3.122  0.1935 -0.5807  2.0069
11223TIP3    H255085   4.683   5.273   3.175 -0.3669 -0.4843  0.7363
11224TIP3   OH255086   3.020   4.572   2.608 -0.4857 -0.2263  0.0855
11224TIP3    H155087   3.096   4.584   2.666  0.1680 -0.6624 -0.6560
11224TIP3    H255088   3.051   4.601   2.522 -1.5729  0.8011  0.0209
11225TIP3   OH255089   6.169   4.571  15.177 -0.1225 -0.0044 -0.4084
11225TIP3    H155090   6.233   4.537  15.240 -0.0360 -2.8273 -1.8258
11225TIP3    H255091   6.103   4.615  15.230  0.6564 -1.0661  1.5436
11226TIP3   OH255092   4.872   2.561  16.511 -0.4268  0.0076 -0.9385
11226TIP3    H155093   4.899   2.470  16.501  0.1377 -0.1214  1.2585
11226TIP3    H255094   4.786   2.556  16.553  0.1820  0.4522  0.4205
11227TIP3   OH255095   0.582   3.862  13.316  0.2146  0.0051  0.6364
11227TIP3    H155096   0.617   3.783  13.274  0.3864  1.4406 -2.1544
11227TIP3    H255097   0.599   3.850  13.409  0.8925 -2.8962  0.2254
11228TIP3   OH255098   3.973   4.222   3.889  0.1900  0.0975 -0.8941
11228TIP3    H155099   3.927   4.301   3.916  1.1946  0.3054  0.2848
11228TIP3    H255100   4.009   4.243   3.802  0.4567  0.9459 -0.5817
11229TIP3   OH255101   5.247   6.228   5.892  0.3548  0.1522 -0.2755
11229TIP3    H155102   5.157   6.259   5.905 -0.1227 -1.2703 -0.0975
11229TIP3    H255103   5.271   6.187   5.975 -0.2490 -2.9180 -1.5063
11230TIP3   OH255104   2.816   1.978   2.171 -0.1665 -0.4162  0.0323
11230TIP3    H155105   2.759   2.037   2.222 -0.7768 -0.4144 -0.6361
11230TIP3    H255106   2.900   2.024   2.167  0.0829 -0.6803  1.5311
11231TIP3   OH255107   5.539   2.007  13.096 -0.5348 -0.2524 -0.8247
11231TIP3    H155108   5.548   2.069  13.169 -0.3064 -0.2536 -0.8490
11231TIP3    H255109   5.608   1.942  13.111 -0.9555 -0.6621 -0.6419
11232TIP3   OH255110   5.003   2.165   2.095  0.4413  0.4042 -0.2330
11232TIP3    H155111   4.929   2.184   2.037 -1.6243 -1.8814  1.4268
11232TIP3    H255112   5.058   2.105   2.044 -1.1934 -1.3414 -0.0797
11233TIP3   OH255113   6.375   4.582  11.778  0.0120 -0.4262 -0.4252
11233TIP3    H155114   6.347   4.498  11.740  0.2546 -0.8448  0.2892
11233TIP3    H255115   6.466   4.567  11.804 -0.1630 -0.1810  0.3629
11234TIP3   OH255116   3.246   2.321  14.814 -0.0556  0.6440  0.0225
11234TIP3    H155117   3.207   2.386  14.873  1.5646  2.0593 -0.3681
11234TIP3    H255118   3.271   2.372  14.737 -0.3996 -0.8268 -1.0941
11235TIP3   OH255119   5.990   1.463  14.516  0.0369 -0.0408  0.4885
11235TIP3    H155120   6.052   1.534  14.500 -0.0016  0.2290  1.4935
11235TIP3    H255121   6.020   1.422  14.597  0.7207 -1.9099 -0.6499
11236TIP3   OH255122   1.391   4.806  16.954  0.7397  0.5122  0.4163
11236TIP3    H155123   1.402   4.875  17.020  1.2218 -0.2403  1.1380
11236TIP3    H255124   1.303   4.821  16.919  0.2504  0.6047  1.6241
11237TIP3   OH255125   1.643   3.344   2.874 -0.0909  0.0984 -0.0862
11237TIP3    H155126   1.557   3.302   2.871  0.4841 -1.1111 -0.3818
11237TIP3    H255127   1.678   3.333   2.786  0.5580  0.1837  0.1543
11238TIP3   OH255128   2.146   4.141  14.490  0.4458  0.1617  0.1670
11238TIP3    H155129   2.108   4.181  14.412 -2.0907  0.2697  1.3564
11238TIP3    H255130   2.233   4.112  14.462 -0.0047  1.0109 -2.4058
11239TIP3   OH255131   3.761   5.860   3.065 -0.1018 -0.9299 -0.1387
11239TIP3    H155132   3.783   5.935   3.010  1.0041 -1.3750 -0.3208
11239TIP3    H255133   3.768   5.894   3.155  1.6598 -1.0912 -0.1664
11240TIP3   OH255134   2.295   0.241   4.636  0.3722 -0.2345  0.0437
11240TIP3    H155135   2.286   0.190   4.555  2.1694 -1.1370  0.3506
11240TIP3    H255136   2.329   0.178   4.700 -2.4838  0.0232  2.0282
11241TIP3   OH255137   1.898   5.801   3.219 -0.1158 -0.2558 -0.1970
11241TIP3    H155138   1.881   5.872   3.280  1.0316  0.6770 -0.9079
11241TIP3    H255139   1.992   5.783   3.228  0.4846  1.0491 -2.7692
11242TIP3   OH255140   1.750   0.558  13.787 -0.1807  0.5445 -0.0464
11242TIP3    H155141   1.802   0.567  13.867 -0.9987 -0.6589  0.6405
11242TIP3    H255142   1.689   0.486  13.805  0.4187 -0.5875 -2.1766
11243TIP3   OH255143   6.489   5.836  17.296  0.3964  0.0048  0.2004
11243TIP3    H155144   6.575   5.812  17.329  0.9593  0.5305 -0.8001
11243TIP3    H255145   6.432   5.764  17.321  1.7678 -1.9059 -1.7772
11244TIP3   OH255146   0.691   3.257   2.342 -0.0125  0.2322 -0.1503
11244TIP3    H155147   0.748   3.255   2.265  1.0628 -2.9469  0.5515
11244TIP3    H255148   0.734   3.319   2.402  1.1847 -0.0091 -0.7199
11245TIP3   OH255149   3.298   5.996  11.598  0.7167 -0.0967  0.3436
11245TIP3    H155150   3.368   5.930  11.601 -0.9179 -1.9604 -0.0847
11245TIP3    H255151   3.303   6.039  11.683  2.5754  0.0692  0.2024
11246TIP3   OH255152   1.387   2.155  12.495  0.3198 -0.0949 -0.1483
11246TIP3    H155153   1.476   2.142  12.527 -0.3084 -2.5528  0.8722
11246TIP3    H255154   1.381   2.098  12.418 -0.3421  0.1434 -0.2823
11247TIP3   OH255155   0.401   6.184  16.955  0.0225  0.8128  0.3297
11247TIP3    H155156   0.363   6.119  17.015  0.8875 -1.1943 -1.1706
11247TIP3    H255157   0.480   6.214  16.999 -0.1235  0.4689  0.8454
11248TIP3   OH255158   1.654   3.306   4.967 -0.2726  0.0835  0.7870
11248TIP3    H155159   1.590   3.240   4.938 -1.6745  1.5863  0.2914
11248TIP3    H255160   1.614   3.346   5.044  0.1536  0.9408  0.5705
11249TIP3   OH255161   3.945   3.730   1.046 -0.7954  0.5450  0.1066
11249TIP3    H155162   3.940   3.743   0.951  0.3570 -1.0990 -0.2304
11249TIP3    H255163   3.865   3.769   1.080 -1.0234  1.5562 -1.4909
11250TIP3   OH255164   0.126   5.225  12.053  0.0920 -0.3420  0.5243
11250TIP3    H155165   0.041   5.261  12.075  0.5647  0.5394  0.9355
11250TIP3    H255166   0.143   5.160  12.121  0.2014  0.2139  1.0315
11251TIP3   OH255167   5.664   3.846   3.289 -0.2929 -0.2903 -0.8462
11251TIP3    H155168   5.700   3.767   3.248  0.9163  0.5358 -1.4426
11251TIP3    H255169   5.640   3.818   3.378 -0.6873 -1.5221 -1.3093
11252TIP3   OH255170   4.319   1.416  13.876  0.1514  0.1007 -0.3425
11252TIP3    H155171   4.239   1.374  13.905  0.4272  0.9775  1.8750
11252TIP3    H255172   4.292   1.472  13.803 -0.8451 -1.1644 -0.9687
11253TIP3   OH255173   3.761   6.427   5.861 -0.0898 -0.3238  0.5537
11253TIP3    H155174   3.692   6.409   5.926 -1.5964 -1.0123 -1.1503
11253TIP3    H255175   3.825   6.357   5.874  0.2574  0.2368  2.0640
11254TIP3   OH255176   1.595   4.959  12.590  0.6638 -0.5452 -0.2772
11254TIP3    H155177   1.604   4.968  12.685  0.9854 -2.6525 -0.0542
11254TIP3    H255178   1.535   4.885  12.579  1.9484 -1.4288 -1.6963
11255TIP3   OH255179   3.313   6.013   3.515 -0.4923  0.3656 -0.0189
11255TIP3    H155180   3.301   6.095   3.563 -0.1408 -0.6419  1.8710
11255TIP3    H255181   3.251   6.019   3.442 -0.8726  2.0601  0.3880
11256TIP3   OH255182   3.554   0.002   4.955  0.1666  0.3721  0.1946
11256TIP3    H155183   3.490   0.069   4.980  0.9632  1.1361  0.2280
11256TIP3    H255184   3.581   0.026   4.866 -2.0159 -1.8390 -1.2312
11257TIP3   OH255185   4.703   2.629  10.776  0.3620  0.5107 -1.0886
11257TIP3    H155186   4.635   2.696  10.773  0.3311  0.7467  1.9930
11257TIP3    H255187   4.780   2.671  10.736 -0.6876  0.9544 -2.7298
11258TIP3   OH255188   4.849   0.716  15.253 -0.0636  0.1626  0.8749
11258TIP3    H155189   4.933   0.684  15.222  0.1146  0.7248  0.7794
11258TIP3    H255190   4.805   0.749  15.175  0.7475  2.4076  1.3143
11259TIP3   OH255191   2.557   4.989   2.888 -0.1813  0.2086 -0.2939
11259TIP3    H155192   2.589   4.914   2.838  0.1710 -0.8182  1.3845
11259TIP3    H255193   2.462   4.983   2.883 -0.2433 -1.8549  1.8213
11260TIP3   OH255194   3.590   2.419   3.181 -0.1573 -0.1110  0.1693
11260TIP3    H155195   3.675   2.434   3.140 -0.4014  0.1714 -0.2443
11260TIP3    H255196   3.533   2.391   3.109 -0.3843 -0.4125  0.4631
11261TIP3   OH255197   4.027   1.852   1.082 -0.3253 -0.0752 -0.0395
11261TIP3    H155198   4.037   1.758   1.069 -0.1298  0.1477 -1.7565
11261TIP3    H255199   3.980   1.882   1.003 -1.3657  1.1019  0.9834
11262TIP3   OH255200   4.835   0.196  10.860  0.8621 -0.0558  0.3022
11262TIP3    H155201   4.794   0.281  10.844 -0.0968 -0.7039 -0.8436
11262TIP3    H255202   4.873   0.204  10.947  0.6794  1.5028  0.2676
11263TIP3   OH255203   2.973   0.135   5.447 -0.3987 -0.5385  0.4342
11263TIP3    H155204   2.983   0.211   5.389  0.3800  0.2456  1.5436
11263TIP3    H255205   3.058   0.091   5.445 -0.9239 -1.5535 -0.3986
11264TIP3   OH255206   2.340   1.080  15.153  0.0627  0.7993 -0.4372
11264TIP3    H155207   2.372   1.119  15.072  0.5910 -1.3465 -1.3478
11264TIP3    H255208   2.246   1.069  15.139  0.0281  1.1094 -0.4507
11265TIP3   OH255209   3.019   1.599  14.441  0.1606  0.3190 -0.1982
11265TIP3    H155210   3.078   1.545  14.493 -0.3565  0.0947  0.1643
11265TIP3    H255211   3.076   1.658  14.393  1.0244 -2.4068 -2.8742
11266TIP3   OH255212   1.230   0.013   5.763  0.3576 -0.3527  0.0687
11266TIP3    H155213   1.247   0.105   5.746  0.3246  0.1065  2.2031
11266TIP3    H255214   1.146  -0.004   5.720  0.6129  0.4703 -0.7730
11267TIP3   OH255215   4.631   4.385  14.434  0.3572 -0.0160  0.4521
11267TIP3    H155216   4.544   4.410  14.466 -0.4675 -0.6252 -1.1787
11267TIP3    H255217   4.682   4.466  14.436 -0.2062  0.3288  1.5301
11268TIP3   OH255218   5.539   4.823  12.041 -0.0675 -0.1484 -1.0587
11268TIP3    H155219   5.629   4.818  12.011 -0.3079 -2.1390 -1.6429
11268TIP3    H255220   5.489   4.852  11.965  0.1686  2.1703 -0.3997
11269TIP3   OH255221   0.145   1.250   5.023  0.1646  0.0310  0.2546
11269TIP3    H155222   0.235   1.222   5.037  0.0423 -0.2821  0.4168
11269TIP3    H255223   0.091   1.174   5.046 -0.1083 -0.0390 -0.5579
11270TIP3   OH255224   2.026   5.178   4.451 -0.3255  0.1648  0.2408
11270TIP3    H155225   2.079   5.247   4.492 -1.0325  0.5022  0.6009
11270TIP3    H255226   2.023   5.203   4.358 -2.7003  2.0892  0.7368
11271TIP3   OH255227   6.464   0.545  15.428  0.1309 -0.0941  0.1631
11271TIP3    H155228   6.557   0.527  15.413  0.0614 -1.3759  1.1208
11271TIP3    H255229   6.420   0.512  15.349  0.2444 -2.0674  0.8765
11272TIP3   OH255230   3.065   0.567  16.639  0.2692 -0.1828 -0.3244
11272TIP3    H155231   3.047   0.649  16.593  2.7767 -0.1228 -1.3612
11272TIP3    H255232   3.124   0.593  16.710  3.0937 -1.2633 -2.0927
11273TIP3   OH255233   1.878   4.743   3.445  0.1667 -0.0788  0.2691
11273TIP3    H155234   1.792   4.715   3.478  0.7919  0.8320  2.9628
11273TIP3    H255235   1.867   4.836   3.427  0.3601 -0.1675 -0.3343
11274TIP3   OH255236   4.843   2.899  13.536  0.7365 -0.1137  0.5113
11274TIP3    H155237   4.773   2.906  13.601  0.8887 -0.1656  0.6820
11274TIP3    H255238   4.912   2.850  13.580  0.0564 -1.9304 -0.3561
11275TIP3   OH255239   1.218   4.271   4.179 -0.0030  0.4471 -0.3155
11275TIP3    H155240   1.263   4.282   4.262  1.0115  1.8849 -1.0079
11275TIP3    H255241   1.268   4.325   4.117 -0.0048 -1.5043 -2.1359
11276TIP3   OH255242   0.252   6.534  13.684 -0.7124 -0.0619  0.3489
11276TIP3    H155243   0.214   6.576  13.761 -1.0379  0.4683 -0.0984
11276TIP3    H255244   0.179   6.491  13.641 -1.0874  1.8721 -1.1133
11277TIP3   OH255245   3.650   1.812  17.064  0.5978 -0.1874 -0.3882
11277TIP3    H155246   3.584   1.872  17.099  1.1105  0.4644 -0.5088
11277TIP3    H255247   3.600   1.738  17.030 -0.0223 -0.0027  0.1001
11278TIP3   OH255248   1.899   5.905  11.875  0.1759 -0.6702  0.4981
11278TIP3    H155249   1.866   5.824  11.835 -1.4470 -0.2542  0.9038
11278TIP3    H255250   1.873   5.899  11.967  0.5852  0.0458  0.6690
11279TIP3   OH255251   0.247   3.335  13.307  0.5259  0.1056  0.3025
11279TIP3    H155252   0.327   3.327  13.255  1.3589  1.4582  1.3127
11279TIP3    H255253   0.178   3.304  13.248  1.8947 -2.4850 -0.1259
11280TIP3   OH255254   6.188   3.118  11.439 -0.0260 -0.0621 -0.1585
11280TIP3    H155255   6.258   3.180  11.417 -1.0352  1.2525  0.2611
11280TIP3    H255256   6.146   3.100  11.355  0.0832  0.0480 -0.2386
11281TIP3   OH255257   2.788   6.618  11.165 -0.6871  0.1782 -0.1293
11281TIP3    H155258   2.754   6.563  11.234 -0.8812 -0.0030 -0.3697
11281TIP3    H255259   2.717   6.680  11.146 -0.5529  0.3704 -0.0151
11282TIP3   OH255260   0.107   5.819   4.076 -0.0045 -0.1051 -0.3249
11282TIP3    H155261   0.040   5.841   4.141 -0.4806 -3.9335  0.7418
11282TIP3    H255262   0.189   5.851   4.114 -0.8469  2.4934 -0.5038
11283TIP3   OH255263   1.286   4.406  15.563  0.0651  0.2168 -0.2389
11283TIP3    H155264   1.268   4.495  15.592 -0.0526  0.0407  0.2453
11283TIP3    H255265   1.207   4.356  15.588 -0.8926  0.4351 -2.6271
11284TIP3   OH255266   3.374   3.173   5.969 -0.2907  0.7051  0.3415
11284TIP3    H155267   3.343   3.156   5.880 -0.8809  0.2723  0.6196
11284TIP3    H255268   3.467   3.149   5.967 -0.4796 -0.0350  0.0252
11285TIP3   OH255269   6.228   0.792  14.036  0.0642 -0.5292  0.5955
11285TIP3    H155270   6.203   0.731  13.967 -0.1153 -1.2170  1.2532
11285TIP3    H255271   6.186   0.874  14.011 -0.1985 -0.8313  0.0142
11286TIP3   OH255272   6.290   4.543  12.299 -0.4182  0.2647  0.2632
11286TIP3    H155273   6.299   4.601  12.223  1.9593 -0.5890 -0.2041
11286TIP3    H255274   6.357   4.475  12.285 -3.2168 -2.8277  0.6359
11287TIP3   OH255275   1.939   3.033  14.437  0.1957 -0.1755  0.3228
11287TIP3    H155276   1.981   3.090  14.502 -1.0529  1.4037 -0.1840
11287TIP3    H255277   1.967   2.945  14.460 -1.0773  0.1640  3.7344
11288TIP3   OH255278   3.090   3.913   3.641  0.2589 -0.7494  0.4959
11288TIP3    H155279   3.167   3.857   3.643 -0.1589 -1.3429  0.2528
11288TIP3    H255280   3.025   3.866   3.694  0.1847 -0.0723  1.0199
11289TIP3   OH255281   1.824   4.906  14.736  0.4636 -0.0584  0.4945
11289TIP3    H155282   1.811   4.849  14.660  0.8957 -1.0686  1.1514
11289TIP3    H255283   1.913   4.938  14.726 -0.7091  3.0234 -1.4790
11290TIP3   OH255284   1.349   5.840  13.845  0.0002  0.5116 -0.2417
11290TIP3    H155285   1.378   5.751  13.824 -1.6906 -0.1917  0.2698
11290TIP3    H255286   1.399   5.863  13.924 -0.6056 -0.5732  0.4845
11291TIP3   OH255287   3.099   3.804   4.305  0.6290 -0.0903  0.1081
11291TIP3    H155288   3.193   3.802   4.322  0.1081 -1.1548  3.6289
11291TIP3    H255289   3.074   3.712   4.298 -0.0609  0.1985 -1.9273
11292TIP3   OH255290   0.050   1.639   1.345 -0.4885 -0.3127  0.3525
11292TIP3    H155291  -0.040   1.666   1.327 -2.0547 -4.9056 -0.0281
11292TIP3    H255292   0.059   1.650   1.440 -1.2087  0.7110  0.3243
11293TIP3   OH255293   5.666   6.496  10.688 -0.7111 -0.1557  0.1520
11293TIP3    H155294   5.752   6.467  10.659 -1.6346 -2.9169 -0.0704
11293TIP3    H255295   5.684   6.574  10.741  1.8130 -0.1823 -0.5203
11294TIP3   OH255296   2.117   2.689  14.039 -0.5507 -0.1791 -0.5462
11294TIP3    H155297   2.083   2.779  14.034 -0.2909  0.0286  0.9832
11294TIP3    H255298   2.155   2.683  14.126 -0.1255 -1.6377 -0.8148
11295TIP3   OH255299   1.750   4.299   5.411  0.2150 -0.0800 -0.2251
11295TIP3    H155300   1.733   4.392   5.395 -0.7258 -0.4162 -1.3446
11295TIP3    H255301   1.750   4.290   5.506 -2.5908  0.6027 -0.0626
11296TIP3   OH255302   5.517   6.718   2.141 -0.0857  1.1948  0.2722
11296TIP3    H155303   5.518   6.704   2.236  0.7031 -0.3554  0.0814
11296TIP3    H255304   5.608   6.739   2.119 -0.0151  0.3795 -0.2669
11297TIP3   OH255305   4.756   5.726  10.699 -0.3243  0.2554  0.6538
11297TIP3    H155306   4.752   5.672  10.620 -0.4071 -0.1469  0.9317
11297TIP3    H255307   4.824   5.791  10.681 -0.1228 -0.0326  0.3741
11298TIP3   OH255308   5.408   3.623  15.571 -0.5711  0.0711 -0.0951
11298TIP3    H155309   5.481   3.673  15.607 -0.5408 -0.6903  0.9454
11298TIP3    H255310   5.434   3.602  15.482  0.8920 -0.9450  0.5347
11299TIP3   OH255311   3.222   3.829   1.102  0.3855 -0.1348  0.9514
11299TIP3    H155312   3.170   3.761   1.059  0.8334 -0.3935  0.8131
11299TIP3    H255313   3.157   3.889   1.140 -0.0282  0.4956 -0.6834
11300TIP3   OH255314   5.837   0.492   4.330  0.1353  0.1424  0.2814
11300TIP3    H155315   5.754   0.445   4.324 -0.3376  1.0919 -0.8952
11300TIP3    H255316   5.882   0.452   4.405 -1.1997 -0.6501  0.6834
11301TIP3   OH255317   4.897   2.881   4.269 -0.5308 -0.0300  0.2484
11301TIP3    H155318   4.915   2.937   4.344 -0.2533  0.3629 -0.1094
11301TIP3    H255319   4.982   2.847   4.243 -0.7394 -0.9208  0.6920
11302TIP3   OH255320   4.980   1.044  13.935 -0.2845  0.3309 -0.4959
11302TIP3    H155321   4.913   1.020  13.999  0.8356  2.0717  1.4617
11302TIP3    H255322   4.948   1.124  13.895  0.5936  1.1999  0.4839
11303TIP3   OH255323   3.131   3.728  11.268  0.2827  0.0228  0.8364
11303TIP3    H155324   3.198   3.661  11.275  0.5466  0.3068  1.0568
11303TIP3    H255325   3.176   3.804  11.231 -0.0808 -0.0138  0.3119
11304TIP3   OH255326   0.733   3.350  13.293 -0.1218 -0.3899  0.0510
11304TIP3    H155327   0.638   3.354  13.290 -0.0485  2.6979 -1.6362
11304TIP3    H255328   0.758   3.303  13.214 -0.2585  2.2569 -1.6760
11305TIP3   OH255329   4.274   3.806  14.721 -0.1716 -0.4450  0.4992
11305TIP3    H155330   4.366   3.780  14.725  0.1577  0.7427  0.9144
11305TIP3    H255331   4.254   3.837  14.809 -1.6439 -2.7850  1.0876
11306TIP3   OH255332   0.487   4.698  13.944  0.1190  0.1641 -0.2140
11306TIP3    H155333   0.442   4.614  13.957 -1.2256  0.6915 -1.2343
11306TIP3    H255334   0.490   4.737  14.031  0.1020 -0.6196  0.1492
11307TIP3   OH255335   6.575   5.711  16.767 -0.5084 -0.0531 -0.5320
11307TIP3    H155336   6.536   5.627  16.791 -0.1565  0.2061  1.1067
11307TIP3    H255337   6.669   5.693  16.760 -0.5924 -0.0887 -1.6083
11308TIP3   OH255338   6.419   4.283  14.989 -0.1722 -0.3007 -0.5596
11308TIP3    H155339   6.440   4.264  14.898 -1.3851  0.7234 -1.0706
11308TIP3    H255340   6.407   4.197  15.029  0.6264 -0.7643 -1.2871
11309TIP3   OH255341   1.691   3.021  15.542  0.7428 -0.0986 -0.0362
11309TIP3    H155342   1.656   2.954  15.484 -1.6127 -0.1898  1.3796
11309TIP3    H255343   1.708   3.096  15.485  1.2103 -1.1027 -1.2524
11310TIP3   OH255344   4.530   5.337   6.300 -0.6115  0.2143  0.0202
11310TIP3    H155345   4.521   5.420   6.253  0.2677 -1.0375 -2.5295
11310TIP3    H255346   4.442   5.300   6.300 -0.9759  1.0154  1.0250
11311TIP3   OH255347   0.265   2.473   2.271 -0.0524 -0.1259 -0.1872
11311TIP3    H155348   0.348   2.486   2.318  0.1798  2.4229 -1.1521
11311TIP3    H255349   0.290   2.426   2.191  0.3189 -0.1091 -0.0828
11312TIP3   OH255350   6.145   2.268  16.394 -0.1161 -0.2420 -0.4205
11312TIP3    H155351   6.151   2.221  16.311 -1.4677 -0.8914 -0.1721
11312TIP3    H255352   6.152   2.360  16.370  1.4380 -0.4870 -1.0323
11313TIP3   OH255353   2.437   3.478   4.287  0.2716 -0.0285 -0.1099
11313TIP3    H155354   2.425   3.387   4.314  0.7714 -0.1278 -0.2111
11313TIP3    H255355   2.446   3.526   4.369  1.7450 -0.3237 -0.0641
11314TIP3   OH255356   2.888   3.318  14.947  0.2862  0.3920 -0.3636
11314TIP3    H155357   2.884   3.269  15.029 -2.9761  0.3881 -0.3843
11314TIP3    H255358   2.977   3.305  14.915  1.7201  0.5041  3.2023
11315TIP3   OH255359   5.240   4.012   4.585 -0.1549  0.1123  0.5123
11315TIP3    H155360   5.227   3.942   4.521  0.6872  0.9085 -0.5600
11315TIP3    H255361   5.183   4.083   4.555  0.0290  0.3920  0.8121
11316TIP3   OH255362   1.962   4.002  13.497 -0.2437  0.4083  1.0845
11316TIP3    H155363   1.877   3.961  13.482  0.1147 -0.0126  0.0985
11316TIP3    H255364   1.942   4.084  13.541 -1.2438  0.7870 -0.0435
11317TIP3   OH255365   5.966   0.489   6.329  0.0160  0.2523  0.3006
11317TIP3    H155366   6.026   0.420   6.356 -0.9132 -0.5088  0.4840
11317TIP3    H255367   5.931   0.524   6.411  1.2585  1.6914  0.2646
11318TIP3   OH255368   6.434   3.518   3.927  0.5933 -0.1494 -0.0168
11318TIP3    H155369   6.459   3.508   3.836  2.5116  0.7809  0.3707
11318TIP3    H255370   6.514   3.546   3.972  0.3924 -2.8575  2.3947
11319TIP3   OH255371   6.771   4.694  15.051  0.0510 -0.9362 -0.3652
11319TIP3    H155372   6.796   4.754  15.121  1.5556  1.2100 -2.6150
11319TIP3    H255373   6.711   4.632  15.094 -1.9993  2.3579  2.0503
11320TIP3   OH255374   3.189   3.854  16.908  0.0027 -0.1283 -0.5109
11320TIP3    H155375   3.249   3.808  16.849  1.0104  1.7082 -0.9986
11320TIP3    H255376   3.130   3.901  16.849  1.7983  2.7388 -0.2126
11321TIP3   OH255377   3.869   6.012   5.574  0.4374 -0.3823  0.1263
11321TIP3    H155378   3.913   6.094   5.596 -0.3764 -0.3004  1.6415
11321TIP3    H255379   3.775   6.033   5.581  0.1929 -1.1695 -0.5803
11322TIP3   OH255380   5.956   6.093  11.296 -0.3510  0.0590  0.1735
11322TIP3    H155381   5.903   6.168  11.266  0.3194  0.9049  1.0656
11322TIP3    H255382   5.923   6.020  11.244 -0.5895  1.0832 -1.2001
11323TIP3   OH255383   0.401   1.375   5.256  0.0199 -0.3742  0.3542
11323TIP3    H155384   0.403   1.312   5.329 -0.4060  0.6694  1.2797
11323TIP3    H255385   0.330   1.435   5.278  0.5415  0.5437 -0.4270
11324TIP3   OH255386   3.675   2.973  11.168  0.2045 -0.2966  0.5906
11324TIP3    H155387   3.623   2.912  11.116  0.2778 -1.1062  1.4477
11324TIP3    H255388   3.638   2.968  11.256  0.4519  0.6266  0.7567
11325TIP3   OH255389   4.984   4.437  13.513 -0.6334  0.1717 -0.1225
11325TIP3    H155390   4.942   4.414  13.595 -0.6244 -0.6733 -0.3494
11325TIP3    H255391   4.928   4.506  13.476 -1.2862 -0.2690  0.0316
11326TIP3   OH255392   4.663   2.038  15.580 -0.3448  0.4403 -0.4157
11326TIP3    H155393   4.572   2.019  15.603  0.1793 -1.0506  0.6034
11326TIP3    H255394   4.662   2.050  15.485 -1.5815  0.3564 -0.4324
11327TIP3   OH255395   5.382   0.443  11.803  0.2098 -0.2316  0.3933
11327TIP3    H155396   5.309   0.416  11.747 -0.9050 -1.6241  2.3899
11327TIP3    H255397   5.361   0.532  11.828 -0.0753 -0.1358 -0.1703
11328TIP3   OH255398   1.353   0.739  15.245 -0.3988 -0.0114 -0.1506
11328TIP3    H155399   1.314   0.796  15.179  1.1697 -0.6363 -1.6563
11328TIP3    H255400   1.413   0.796  15.293  0.2325 -0.0895 -0.8340
11329TIP3   OH255401   5.181   0.238   0.590  0.0138  0.7635  0.1852
11329TIP3    H155402   5.275   0.252   0.600  0.1817  0.2484 -0.5398
11329TIP3    H255403   5.147   0.233   0.679  1.0176 -1.2209  0.5185
11330TIP3   OH255404   0.163   5.520   2.170 -0.3127  0.0060  0.6562
11330TIP3    H155405   0.187   5.428   2.173 -2.9589 -0.8225 -0.7949
11330TIP3    H255406   0.203   5.553   2.090 -1.3347 -0.5441 -0.0983
11331TIP3   OH255407   0.187   6.551   5.470 -0.4011 -0.5819  0.2073
11331TIP3    H155408   0.123   6.578   5.404 -1.2674  0.8787  1.5614
11331TIP3    H255409   0.218   6.466   5.441 -0.7361  0.0150 -2.0748
11332TIP3   OH255410   1.432   2.261   2.868  0.1780  0.4878 -0.2823
11332TIP3    H155411   1.407   2.169   2.870 -0.3214  0.6312  0.7432
11332TIP3    H255412   1.528   2.260   2.864  0.3375 -0.1047  2.3058
11333TIP3   OH255413   6.490   0.961  12.108  0.0231  0.5432 -0.0383
11333TIP3    H155414   6.460   0.922  12.026  0.6661 -0.7094  0.2903
11333TIP3    H255415   6.577   0.922  12.123 -0.4814 -0.0306  1.7124
11334TIP3   OH255416   4.477   1.061   4.880 -1.1599 -0.1956  0.7613
11334TIP3    H155417   4.439   0.975   4.862 -0.7400 -0.0238 -1.2153
11334TIP3    H255418   4.570   1.044   4.894 -1.3465 -0.2268  2.0434
11335TIP3   OH255419   6.210   2.225   1.328  0.4061 -0.4330  0.0786
11335TIP3    H155420   6.300   2.225   1.361  1.1184  0.1784 -1.7109
11335TIP3    H255421   6.185   2.318   1.330 -0.0340 -0.5542  0.1821
11336TIP3   OH255422   4.858   2.550  14.451  0.3067 -0.3431 -0.2726
11336TIP3    H155423   4.864   2.633  14.403  0.7865  1.3959  2.5665
11336TIP3    H255424   4.815   2.490  14.390 -0.0992  1.9919 -2.4365
11337TIP3   OH255425   6.433   3.939   3.365 -0.2060 -0.8567 -0.4997
11337TIP3    H155426   6.439   3.998   3.289 -1.0341 -0.7617 -0.5072
11337TIP3    H255427   6.455   3.994   3.440 -2.5972 -0.0232 -0.2993
11338TIP3   OH255428   4.498   1.407   2.548  0.4660 -0.1691  0.2869
11338TIP3    H155429   4.505   1.486   2.601  1.0250 -0.0544  0.0461
11338TIP3    H255430   4.569   1.414   2.485  0.3401 -0.7273  0.0774
11339TIP3   OH255431   2.406   3.803  17.319 -0.3695  0.4047 -0.4987
11339TIP3    H155432   2.498   3.777  17.329 -0.6310 -0.8486 -1.1648
11339TIP3    H255433   2.359   3.747  17.381 -0.5655  2.0177  0.8715
11340TIP3   OH255434   1.590   1.658  14.316  0.0266 -0.2796 -0.7475
11340TIP3    H155435   1.669   1.699  14.351 -0.4072  0.6045 -0.7868
11340TIP3    H255436   1.609   1.564  14.317  1.1290 -0.0645 -0.8936
11341TIP3   OH255437   4.442   6.099  16.453  1.3871 -0.0680  0.4029
11341TIP3    H155438   4.393   6.180  16.470 -0.1325 -0.6638 -0.8891
11341TIP3    H255439   4.375   6.033  16.438  2.6010 -1.1600 -0.4427
11342TIP3   OH255440   0.950   3.731  16.576  0.2310 -0.1468  0.1644
11342TIP3    H155441   0.872   3.678  16.594  0.7183 -0.8990  0.1223
11342TIP3    H255442   0.922   3.821  16.590 -0.5817 -0.4254  0.3840
11343TIP3   OH255443   4.798   4.254   4.314  0.0467 -0.4107  0.0203
11343TIP3    H155444   4.794   4.160   4.327  0.9818 -0.2803  1.5277
11343TIP3    H255445   4.716   4.276   4.270 -0.0528 -1.9419 -0.6248
11344TIP3   OH255446   5.323   5.663   0.051 -0.2773 -0.0908  0.6225
11344TIP3    H155447   5.254   5.707   0.101  0.8280  0.0175  2.1520
11344TIP3    H255448   5.376   5.618   0.118  0.7359 -0.7321 -0.5599
11345TIP3   OH255449   6.271   5.111  16.344  0.2555 -0.3144 -0.3544
11345TIP3    H155450   6.267   5.150  16.256  1.4341 -0.4751 -0.4982
11345TIP3    H255451   6.346   5.052  16.340  1.8889  1.4963  1.4813
11346TIP3   OH255452   1.147   2.641  13.851 -0.3193 -0.3374  0.3079
11346TIP3    H155453   1.113   2.714  13.799 -2.7527  0.3906  2.6551
11346TIP3    H255454   1.216   2.680  13.905 -1.6099  0.3467  1.5551
11347TIP3   OH255455   4.870   5.917  15.968 -0.4602  0.2401  0.5574
11347TIP3    H155456   4.943   5.978  15.968 -0.4780  0.2901  1.8575
11347TIP3    H255457   4.795   5.969  15.994 -0.7829  0.0024  0.1033
11348TIP3   OH255458   4.287   5.457   2.681 -0.0214 -0.4032  0.0099
11348TIP3    H155459   4.199   5.466   2.644  0.3542 -2.2479 -1.4700
11348TIP3    H255460   4.274   5.409   2.763 -0.2609 -2.4685 -1.1816
11349TIP3   OH255461   5.809   4.663  11.952  0.0071  0.5988 -0.3138
11349TIP3    H155462   5.799   4.589  11.892  0.0098  1.5160 -1.4983
11349TIP3    H255463   5.803   4.625  12.039 -1.4380 -0.6053 -0.8952
11350TIP3   OH255464   6.703   5.064   4.819 -0.0609  0.4373 -0.1343
11350TIP3    H155465   6.696   4.989   4.879  2.9065 -0.1994 -0.3875
11350TIP3    H255466   6.691   5.026   4.732  0.5256  0.3996 -0.2045
11351TIP3   OH255467   3.520   0.505   0.845  0.2831  0.3872 -0.5817
11351TIP3    H155468   3.439   0.488   0.893  0.5091  0.6173 -0.1217
11351TIP3    H255469   3.541   0.596   0.863  1.6413 -0.1555  0.8275
11352TIP3   OH255470   0.918   5.161  14.333 -0.4767 -0.5802 -0.1116
11352TIP3    H155471   0.863   5.161  14.254 -0.7511 -1.1455  0.0744
11352TIP3    H255472   1.004   5.131  14.302 -0.0784  0.8876 -0.5183
11353TIP3   OH255473   0.530   3.811   4.704  0.4861  0.0798  0.5484
11353TIP3    H155474   0.509   3.730   4.752 -0.7796 -0.4306 -0.7926
11353TIP3    H255475   0.483   3.802   4.621  0.6178  2.0540  0.2267
11354TIP3   OH255476   0.013   6.491  15.465 -0.4420  0.0069 -0.2370
11354TIP3    H155477   0.012   6.425  15.396 -1.6934  0.4388 -0.6563
11354TIP3    H255478   0.086   6.466  15.521 -1.7011 -2.5552  0.4138
11355TIP3   OH255479   6.366   2.665  15.492  0.5866  0.0830  0.1549
11355TIP3    H155480   6.409   2.587  15.528 -0.4904 -0.0750  1.1672
11355TIP3    H255481   6.299   2.630  15.433  0.4403  0.2605  0.2171
11356TIP3   OH255482   0.590   0.345  15.886 -0.3863 -0.1235 -0.3344
11356TIP3    H155483   0.647   0.283  15.840 -0.5318 -1.0889  0.7437
11356TIP3    H255484   0.543   0.390  15.816  0.8410 -0.1316 -1.1967
11357TIP3   OH255485   4.718   6.163  12.174  0.0812  0.3761 -0.1302
11357TIP3    H155486   4.729   6.170  12.079  3.6681 -2.7022 -0.1891
11357TIP3    H255487   4.785   6.221  12.210 -0.9040  1.1112  0.5707
11358TIP3   OH255488   6.286   0.509  17.333 -0.5276  0.1771 -0.1071
11358TIP3    H155489   6.303   0.452  17.258 -0.9587 -1.7428  1.1782
11358TIP3    H255490   6.366   0.507  17.385  0.1182  2.2634 -0.9205
11359TIP3   OH255491   1.182   6.575  13.068  0.0146 -0.5894 -0.2512
11359TIP3    H155492   1.157   6.497  13.118  0.3959 -1.2145 -1.0080
11359TIP3    H255493   1.178   6.646  13.132 -0.9952 -1.1096  0.3015
11360TIP3   OH255494   4.406   2.949  16.759  0.5028  0.1067  0.3276
11360TIP3    H155495   4.493   2.913  16.776  1.3960  1.4167 -1.1760
11360TIP3    H255496   4.373   2.972  16.846  2.0203  0.3572  0.8758
11361TIP3   OH255497   0.782   1.598  16.464  0.2336  0.1096 -0.4848
11361TIP3    H155498   0.820   1.659  16.528 -0.3023 -0.2223  0.1683
11361TIP3    H255499   0.772   1.516  16.513 -1.8417  0.3325 -0.4500
11362TIP3   OH255500   2.978   4.734   4.336 -0.1517  0.6485  0.5399
11362TIP3    H155501   2.894   4.777   4.324 -1.8309 -2.4009  0.4515
11362TIP3    H255502   2.971   4.654   4.284  1.7954 -0.9726  2.5991
11363TIP3   OH255503   5.501   1.253  15.866  0.0628  0.0633 -0.3046
11363TIP3    H155504   5.555   1.175  15.879  0.6914  0.2297 -1.7260
11363TIP3    H255505   5.411   1.221  15.879  0.2592 -1.0618 -1.4596
11364TIP3   OH255506   3.061   5.768   3.253  0.8717 -0.0752 -0.1207
11364TIP3    H155507   3.004   5.799   3.324  1.0563 -1.4476  0.6588
11364TIP3    H255508   3.055   5.673   3.258  3.0409 -0.2632 -0.1683
11365TIP3   OH255509   1.653   6.759   2.372 -0.5254 -0.1984  0.4355
11365TIP3    H155510   1.590   6.698   2.410 -0.3547 -0.0846  0.9148
11365TIP3    H255511   1.709   6.704   2.317 -0.3569 -0.4873  0.8842
11366TIP3   OH255512   4.230   3.257   5.734 -0.4780  0.1450 -0.2220
11366TIP3    H155513   4.193   3.343   5.716  1.5333  1.3352  0.9637
11366TIP3    H255514   4.202   3.237   5.823 -0.7991 -0.3640 -0.4348
11367TIP3   OH255515   4.613   1.480   1.255  0.2211  0.3586  0.4684
11367TIP3    H155516   4.561   1.400   1.246 -2.2803  1.8801  0.4466
11367TIP3    H255517   4.631   1.487   1.349  0.6200 -0.2890  0.4485
11368TIP3   OH255518   4.961   1.752  15.565 -0.0533 -0.1278 -0.1861
11368TIP3    H155519   5.027   1.689  15.592 -0.4182  0.1615  1.5121
11368TIP3    H255520   5.008   1.834  15.554  0.2488 -0.4415 -1.3956
11369TIP3   OH255521   3.587   1.478  11.423 -0.9813  0.1498 -0.5917
11369TIP3    H155522   3.607   1.399  11.473  0.5222 -0.1213 -1.5700
11369TIP3    H255523   3.632   1.467  11.340 -0.4945  2.1454 -0.6566
11370TIP3   OH255524   4.226   6.365  11.798 -0.1572 -0.5399 -0.4337
11370TIP3    H155525   4.233   6.424  11.873  0.2066 -1.5421  0.3635
11370TIP3    H255526   4.236   6.421  11.721 -2.4010  0.8115  0.1780
11371TIP3   OH255527   3.800   5.943  13.380  0.1087  0.4207  0.2302
11371TIP3    H155528   3.753   5.980  13.455  1.2812  0.4086  0.9934
11371TIP3    H255529   3.736   5.947  13.308 -0.3431  2.4193  0.6685
11372TIP3   OH255530   5.739   1.469  14.333 -0.3548  0.0731  0.4296
11372TIP3    H155531   5.780   1.519  14.263  1.3466 -1.3628  0.3406
11372TIP3    H255532   5.754   1.521  14.412 -0.2455  0.5859  0.0730
11373TIP3   OH255533   4.872   3.974  13.747 -0.4315  0.4347  0.2108
11373TIP3    H155534   4.811   3.902  13.731  2.7829 -2.3807 -0.5571
11373TIP3    H255535   4.877   4.021  13.664 -1.1273  0.3559  0.1235
11374TIP3   OH255536   6.136   3.914   3.372  0.0822 -0.3902  0.3707
11374TIP3    H155537   6.127   3.837   3.316 -0.1958 -2.1592  2.6857
11374TIP3    H255538   6.230   3.921   3.387  0.1104 -0.2363  0.1313
11375TIP3   OH255539   3.527   5.405   5.147  0.4955 -0.1792  0.5795
11375TIP3    H155540   3.565   5.411   5.059  0.9937  1.0803  0.8573
11375TIP3    H255541   3.523   5.495   5.178 -0.3001 -0.5392  1.6025
11376TIP3   OH255542   1.305   0.308  12.271  0.7633 -0.1867  0.1027
11376TIP3    H155543   1.357   0.384  12.246 -1.1188  0.6223 -1.7052
11376TIP3    H255544   1.338   0.237  12.217 -0.6116  0.5967 -1.9199
11377TIP3   OH255545   0.042   3.489   2.008  0.2129  0.3542  0.1456
11377TIP3    H155546   0.084   3.424   1.952  0.3811  0.9200 -0.4006
11377TIP3    H255547  -0.041   3.509   1.964  0.5062  1.0610 -0.0950
11378TIP3   OH255548   1.175   5.172   1.045 -0.1440  0.2866 -0.9616
11378TIP3    H155549   1.141   5.261   1.035 -0.2848  0.2035 -1.2317
11378TIP3    H255550   1.144   5.125   0.967  0.3871  0.1478 -1.0976
11379TIP3   OH255551   3.627   1.403  12.604 -0.1564 -0.1868 -0.6703
11379TIP3    H155552   3.648   1.385  12.696 -0.0930  3.8895  0.3132
11379TIP3    H255553   3.537   1.435  12.606  0.2059  0.9609 -1.8386
11380TIP3   OH255554   2.632   5.985   5.112  0.5453  0.2055  0.4234
11380TIP3    H155555   2.556   6.028   5.073  0.0327 -0.7736  0.2925
11380TIP3    H255556   2.646   5.907   5.058  1.1182 -0.0618  0.9411
11381TIP3   OH255557   1.681   4.949   4.661  0.0278  0.9209 -0.3851
11381TIP3    H155558   1.705   4.987   4.576  2.2171 -2.1207 -1.2966
11381TIP3    H255559   1.613   4.884   4.639  0.4530  0.2712  0.1743
11382TIP3   OH255560   2.624   4.121   4.536 -0.4941 -0.4055 -0.2068
11382TIP3    H155561   2.655   4.166   4.457  0.5741  0.4142  0.6400
11382TIP3    H255562   2.697   4.128   4.597 -1.7115 -0.0075  1.2509
11383TIP3   OH255563   3.839   3.450   5.923 -0.6603 -0.1766 -0.5162
11383TIP3    H155564   3.875   3.517   5.981 -0.6190  0.3258 -1.1026
11383TIP3    H255565   3.799   3.386   5.981  2.3782 -1.5412  0.3003
11384TIP3   OH255566   0.519   2.096   3.891  0.3362 -0.4103 -0.0077
11384TIP3    H155567   0.501   2.110   3.798  4.7348  1.2428 -0.8576
11384TIP3    H255568   0.525   2.185   3.928 -1.0384 -1.0261  1.8639
11385TIP3   OH255569   6.424   3.464   2.836 -0.2479  0.2969 -0.5988
11385TIP3    H155570   6.381   3.497   2.915  0.2191  2.5596 -1.2086
11385TIP3    H255571   6.358   3.411   2.792  0.1288 -2.9376  2.2976
11386TIP3   OH255572   0.295   6.693   4.719 -0.2441 -0.0981 -0.0005
11386TIP3    H155573   0.246   6.649   4.789 -0.6168  0.7883  0.3081
11386TIP3    H255574   0.228   6.719   4.655 -0.1857  1.0003  0.3583
11387TIP3   OH255575   5.065   2.777  11.938  0.1755 -0.4480 -0.0142
11387TIP3    H155576   5.082   2.729  11.857 -1.4413 -1.6003  0.2663
11387TIP3    H255577   5.149   2.816  11.961  0.1508  2.3493 -3.7397
11388TIP3   OH255578   6.408   4.375   2.478 -0.3039  0.2540  0.4619
11388TIP3    H155579   6.370   4.292   2.506 -2.4298  0.8706 -0.4287
11388TIP3    H255580   6.357   4.401   2.402  2.3916  0.8227 -1.3249
11389TIP3   OH255581   1.614   6.660  11.313 -0.0728 -1.0779 -0.5113
11389TIP3    H155582   1.546   6.723  11.288  1.7123  0.9948 -0.4958
11389TIP3    H255583   1.694   6.713  11.318  0.7008 -2.1499  4.7316
11390TIP3   OH255584   2.464   3.451  11.764 -0.1412 -0.1679 -0.0596
11390TIP3    H155585   2.396   3.503  11.723 -2.3006 -1.3877  1.7590
11390TIP3    H255586   2.512   3.411  11.691 -2.3750 -0.4773 -1.4306
11391TIP3   OH255587   4.369   0.596  11.846  0.1552  0.0169 -0.6717
11391TIP3    H155588   4.414   0.675  11.876  0.2834  0.3399 -1.6794
11391TIP3    H255589   4.439   0.532  11.833  0.0370 -0.3241  0.2840
11392TIP3   OH255590   4.609   0.719   6.235 -0.0239 -0.4600  0.2631
11392TIP3    H155591   4.696   0.690   6.206  0.3017 -0.3109  1.0704
11392TIP3    H255592   4.625   0.761   6.320 -0.5962  1.3649 -0.4879
11393TIP3   OH255593   6.384   5.321  14.629  0.1275  0.1276  0.6095
11393TIP3    H155594   6.335   5.352  14.705  0.8191  0.6665  0.8472
11393TIP3    H255595   6.420   5.400  14.590  0.6882 -0.2481  0.3517
11394TIP3   OH255596   4.831   5.497   5.967  0.2672  0.7979 -0.0751
11394TIP3    H155597   4.924   5.477   5.958  0.2281 -0.1536  1.3839
11394TIP3    H255598   4.806   5.459   6.051 -2.0974 -1.5208 -1.6638
11395TIP3   OH255599   1.562   4.212  14.574 -0.4788 -0.0939  0.3049
11395TIP3    H155600   1.639   4.268  14.584 -0.3280 -0.6241  3.3164
11395TIP3    H255601   1.587   4.149  14.507 -0.2365  2.6112 -2.3442
11396TIP3   OH255602   2.856   5.862  14.596  0.1337 -0.5741 -0.0631
11396TIP3    H155603   2.829   5.873  14.687  1.4432 -1.1779  0.4292
11396TIP3    H255604   2.875   5.769  14.587  2.0187 -0.2158 -0.3208
11397TIP3   OH255605   5.627   0.720   3.584  0.0635 -0.0150 -0.3826
11397TIP3    H155606   5.592   0.808   3.569  0.2025  0.3515  1.2431
11397TIP3    H255607   5.664   0.724   3.672 -0.1356 -1.7711 -0.1885
11398TIP3   OH255608   1.792   5.773   0.822 -0.9536 -0.1035 -1.2840
11398TIP3    H155609   1.858   5.776   0.891 -1.8817  1.6486 -0.4002
11398TIP3    H255610   1.729   5.707   0.852 -0.5607 -0.4702 -1.2478
11399TIP3   OH255611   1.507   4.138   0.077  0.4714 -0.6240 -0.2802
11399TIP3    H155612   1.573   4.079   0.040  1.2527  0.7053 -1.0935
11399TIP3    H255613   1.439   4.080   0.111  1.1579 -1.9855 -1.1427
11400TIP3   OH255614   5.961   5.868   3.115 -0.5318 -0.3578 -0.0525
11400TIP3    H155615   5.958   5.924   3.037  0.1899 -0.5282 -0.2131
11400TIP3    H255616   5.906   5.912   3.179  0.9817  1.2020  0.2445
11401TIP3   OH255617   0.996   4.997   1.479 -0.1767  0.5170 -0.0897
11401TIP3    H155618   0.953   5.065   1.427 -0.0440  0.2947 -0.4936
11401TIP3    H255619   1.088   5.001   1.452 -0.1404  0.2765 -0.0008
11402TIP3   OH255620   5.060   3.332   1.249 -0.0053  0.2349  0.2731
11402TIP3    H155621   4.966   3.317   1.256 -0.1293  0.7851 -0.1243
11402TIP3    H255622   5.092   3.329   1.340 -0.1989 -1.1436  0.3235
11403TIP3   OH255623   4.693   3.524  15.506 -0.1342 -0.4823 -0.1043
11403TIP3    H155624   4.776   3.477  15.510 -1.2084 -2.4489  0.2011
11403TIP3    H255625   4.657   3.502  15.420 -1.1966 -1.2235  0.5143
11404TIP3   OH255626   5.115   6.277   2.612 -0.2441  0.3184  0.6169
11404TIP3    H155627   5.037   6.293   2.558  0.1657  0.1877 -0.0281
11404TIP3    H255628   5.124   6.356   2.665 -0.1264  0.8526 -0.1750
11405TIP3   OH255629   2.963   6.728   2.300  0.1626  0.4429  0.3310
11405TIP3    H155630   3.039   6.734   2.242 -0.5877 -1.6397 -0.9620
11405TIP3    H255631   2.888   6.729   2.241 -0.8174  1.7040  1.5363
11406TIP3   OH255632   5.435   5.458   2.644  0.1784  0.5343 -0.5343
11406TIP3    H155633   5.493   5.518   2.690  0.1118  0.5768 -0.5062
11406TIP3    H255634   5.485   5.431   2.566  2.0396 -2.7659  1.5686
11407TIP3   OH255635   5.506   4.164  16.600 -0.1092  0.0667  0.4305
11407TIP3    H155636   5.525   4.173  16.506 -0.5093  1.0385  0.4393
11407TIP3    H255637   5.564   4.093  16.628 -0.0298 -0.2893 -0.5617
11408TIP3   OH255638   0.368   5.568   5.588 -0.2385 -0.2617  0.4894
11408TIP3    H155639   0.453   5.562   5.630 -0.2185  0.4444  0.5653
11408TIP3    H255640   0.333   5.653   5.615  0.1077  0.5879 -1.5293
11409TIP3   OH255641   2.140   0.651  15.545  0.0705  0.3214  0.1735
11409TIP3    H155642   2.184   0.710  15.605  0.0092  1.5078 -0.8954
11409TIP3    H255643   2.202   0.580  15.530  0.1540  0.1020  1.4537
11410TIP3   OH255644   0.240   2.296   6.063 -0.1124  0.3937  0.2588
11410TIP3    H155645   0.332   2.275   6.081 -0.5596 -0.3216  1.8789
11410TIP3    H255646   0.197   2.211   6.058 -0.8060  0.7487  0.1815
11411TIP3   OH255647   4.889   0.108  15.920 -0.1645 -0.1110 -0.1657
11411TIP3    H155648   4.935   0.046  15.976 -0.8508 -0.3273  0.1729
11411TIP3    H255649   4.906   0.078  15.831 -0.8369 -1.0529  0.0036
11412TIP3   OH255650   3.212   6.035  14.292  0.2927 -0.3030  0.7006
11412TIP3    H155651   3.259   6.110  14.328  1.3192 -0.0207 -1.0891
11412TIP3    H255652   3.242   5.960  14.344  1.1970  0.1712  0.8880
11413TIP3   OH255653   0.124   4.251  16.240  0.2496  0.2343 -0.7693
11413TIP3    H155654   0.193   4.239  16.305  0.1853  1.0576 -0.5347
11413TIP3    H255655   0.067   4.175  16.250  1.2464 -0.5848 -1.1355
11414TIP3   OH255656   6.470   2.920  11.395  0.4952  0.1045  0.5453
11414TIP3    H155657   6.434   2.997  11.351 -1.0649 -0.5740  0.5345
11414TIP3    H255658   6.422   2.846  11.357  0.3108 -0.6597  2.1392
11415TIP3   OH255659   4.469   3.018  12.553 -0.0992 -0.2974  0.4302
11415TIP3    H155660   4.458   3.108  12.522 -0.5995 -0.0590  1.2608
11415TIP3    H255661   4.393   2.972  12.518 -0.7626  0.0140  1.4004
11416TIP3   OH255662   1.564   4.649   6.120  0.2450 -0.2596 -0.1873
11416TIP3    H155663   1.482   4.652   6.169  2.1357  1.4624  3.2363
11416TIP3    H255664   1.577   4.738   6.090  0.4100 -0.7413 -1.6019
11417TIP3   OH255665   3.577   3.725   0.547  0.3406  0.0674  0.2455
11417TIP3    H155666   3.556   3.704   0.456 -0.3034  0.1048  0.3772
11417TIP3    H255667   3.645   3.792   0.542 -0.5754  0.9866 -0.2324
11418TIP3   OH255668   5.447   0.399  12.869  0.2668 -0.8459 -0.1194
11418TIP3    H155669   5.495   0.319  12.848 -0.2531 -1.0396 -0.6097
11418TIP3    H255670   5.475   0.462  12.802  0.0314 -0.8795 -0.2486
11419TIP3   OH255671   2.422   0.570  12.524  0.2951  0.2836 -0.2940
11419TIP3    H155672   2.366   0.591  12.450 -0.4049 -2.7286 -0.7684
11419TIP3    H255673   2.439   0.654  12.566 -0.2839  1.9621 -3.1205
11420TIP3   OH255674   4.594   2.461  15.960 -0.2226 -0.1500 -0.2983
11420TIP3    H155675   4.602   2.508  15.877 -0.4914 -0.1919 -0.3475
11420TIP3    H255676   4.683   2.429  15.978  0.2486  1.4461  0.3729
11421TIP3   OH255677   5.577   1.898  15.494 -0.3765  0.3325 -0.7288
11421TIP3    H155678   5.642   1.849  15.444 -0.2354 -0.0386 -0.1897
11421TIP3    H255679   5.627   1.939  15.565 -0.7164  0.1169 -0.3620
11422TIP3   OH255680   5.411   6.649   3.700  0.3312  0.2816 -0.1901
11422TIP3    H155681   5.400   6.740   3.674 -0.8841  0.6149  1.3046
11422TIP3    H255682   5.323   6.621   3.726  0.5000 -1.6242 -1.4900
11423TIP3   OH255683   6.314   0.803  16.228 -0.2198 -0.1645  0.0817
11423TIP3    H155684   6.403   0.790  16.196 -0.6982 -1.4629 -0.8199
11423TIP3    H255685   6.302   0.733  16.292 -0.8221 -0.4439 -0.3277
11424TIP3   OH255686   3.591   4.071   5.387 -0.5746  1.0514  0.6967
11424TIP3    H155687   3.661   4.041   5.329 -0.7035  0.5385  0.8006
11424TIP3    H255688   3.621   4.048   5.475 -0.5557  1.4723  0.8018
11425TIP3   OH255689   1.018   1.837   0.150  0.0452  0.4443  0.2217
11425TIP3    H155690   1.111   1.861   0.143  0.2320  0.2098  1.6327
11425TIP3    H255691   0.972   1.908   0.105  0.8816  0.7941 -0.1147
11426TIP3   OH255692   0.215   5.941  14.909  0.2394  0.3628  0.6154
11426TIP3    H155693   0.264   5.888  14.847 -0.9803  1.8657 -1.7706
11426TIP3    H255694   0.131   5.958  14.866 -0.3786  2.1265  2.3481
11427TIP3   OH255695   2.255   5.610  12.027 -0.5636 -0.8088 -0.1829
11427TIP3    H155696   2.345   5.585  12.008 -0.2025 -0.7401  1.3030
11427TIP3    H255697   2.258   5.642  12.118 -1.9883 -0.3526 -0.2782
11428TIP3   OH255698   3.780   0.488  15.403  0.1732 -0.3918 -0.1318
11428TIP3    H155699   3.695   0.533  15.412  0.7966  0.6574  0.9332
11428TIP3    H255700   3.796   0.485  15.309  0.6139  2.7911 -0.2987
11429TIP3   OH255701   5.615   5.398   0.918  0.4923  0.0251  0.4782
11429TIP3    H155702   5.563   5.318   0.931 -0.1581  0.3932  0.1715
11429TIP3    H255703   5.654   5.415   1.003  0.1393 -0.2838  0.7051
11430TIP3   OH255704   4.454   1.552  13.264  0.2484 -0.0908  0.0355
11430TIP3    H155705   4.438   1.536  13.357  0.1806  0.6991  0.1615
11430TIP3    H255706   4.546   1.579  13.260  1.6760 -4.2396 -0.6381
11431TIP3   OH255707   4.225   2.442   5.514  0.2019 -0.2751  0.3711
11431TIP3    H155708   4.209   2.506   5.445  2.3084 -0.2911 -0.1761
11431TIP3    H255709   4.267   2.492   5.584  1.3990 -0.9388  0.1463
11432TIP3   OH255710   3.075   4.548   5.678 -0.4678 -0.5094 -0.1710
11432TIP3    H155711   3.080   4.635   5.640  1.2057 -0.0637  0.9634
11432TIP3    H255712   2.995   4.511   5.642 -0.1756  0.7157 -2.2734
11433TIP3   OH255713   0.855   4.813  13.536 -0.4613  0.5804 -0.1455
11433TIP3    H155714   0.853   4.727  13.580 -1.1247  0.3116 -0.6875
11433TIP3    H255715   0.907   4.868  13.595 -0.2884 -0.1056  0.3664
11434TIP3   OH255716   6.548   0.860  12.534 -0.0309  0.5130 -0.0403
11434TIP3    H155717   6.591   0.790  12.485  0.8215  1.8726 -1.3257
11434TIP3    H255718   6.471   0.884  12.481  0.4500  1.4538 -0.3441
11435TIP3   OH255719   3.489   4.460  13.849  0.7113  0.7635 -0.4505
11435TIP3    H155720   3.555   4.527  13.834  0.7008  1.2273  1.3440
11435TIP3    H255721   3.502   4.432  13.940 -0.4010 -0.4317 -0.6087
11436TIP3   OH255722   1.443   5.616  15.534  0.5772 -0.1198 -0.5671
11436TIP3    H155723   1.505   5.549  15.563  0.9324 -0.0524 -1.1460
11436TIP3    H255724   1.413   5.658  15.615  0.2618 -1.0463 -0.1889
11437TIP3   OH255725   2.330   4.081  17.073 -0.5504  0.0757  1.0611
11437TIP3    H155726   2.242   4.062  17.105 -0.6794 -1.3822 -0.0450
11437TIP3    H255727   2.318   4.108  16.982  0.1351 -0.1810  0.8819
11438TIP3   OH255728   3.590   4.721   1.225  0.3818  0.0791 -0.1253
11438TIP3    H155729   3.588   4.740   1.132  0.6158  0.7124 -0.0015
11438TIP3    H255730   3.508   4.757   1.259 -0.0601 -0.8242 -0.2109
11439TIP3   OH255731   3.152   5.321  16.386 -0.2713  0.2755  0.3459
11439TIP3    H155732   3.240   5.309  16.351 -0.2554  0.6146  0.2618
11439TIP3    H255733   3.166   5.359  16.472 -0.3538  1.6806 -0.2254
11440TIP3   OH255734   6.376   2.797  13.579  0.1425 -0.3481  0.9564
11440TIP3    H155735   6.432   2.854  13.631  1.2430 -1.0078  0.5302
11440TIP3    H255736   6.424   2.785  13.497 -0.7259 -0.7592  0.4974
11441TIP3   OH255737   6.668   3.216  13.107 -0.2053  0.8567  0.3988
11441TIP3    H155738   6.652   3.217  13.013  0.6896 -1.2674  0.1700
11441TIP3    H255739   6.674   3.308  13.131  1.0514  1.4504 -1.9014
11442TIP3   OH255740   2.822   0.537   4.198 -0.7669  0.1276 -0.5718
11442TIP3    H155741   2.779   0.560   4.280  1.0783  1.0522  0.1728
11442TIP3    H255742   2.825   0.620   4.149 -1.1621 -0.2557 -1.2652
11443TIP3   OH255743   3.308   2.444   5.564  0.1089  0.1736  0.2119
11443TIP3    H155744   3.353   2.517   5.521  1.4694  0.0789  1.4113
11443TIP3    H255745   3.358   2.429   5.644 -1.5399 -0.5530  1.1470
11444TIP3   OH255746   5.643   1.771   5.682  0.1273 -0.2943  0.0042
11444TIP3    H155747   5.659   1.684   5.646  0.1006 -0.6971  0.9510
11444TIP3    H255748   5.653   1.761   5.776  0.1074  0.7268  0.1296
11445TIP3   OH255749   3.264   2.440   4.926 -0.2724 -0.5631  0.2742
11445TIP3    H155750   3.201   2.443   4.999 -1.6677 -1.0175 -0.8655
11445TIP3    H255751   3.228   2.500   4.861  0.5045 -0.7966 -0.3765
11446TIP3   OH255752   4.115   1.011   2.025  0.6553  0.1717 -0.1808
11446TIP3    H155753   4.173   0.967   1.963 -0.7482 -0.5257 -1.0595
11446TIP3    H255754   4.153   0.993   2.111  0.9833 -1.4449 -0.6305
11447TIP3   OH255755   1.048   6.347   3.913  0.2035  0.0329  0.1137
11447TIP3    H155756   1.044   6.375   3.822 -0.3780  0.9594  0.4192
11447TIP3    H255757   0.989   6.271   3.917 -1.1039  1.0179  0.0766
11448TIP3   OH255758   3.820   3.734  13.910  0.4032 -0.3510 -0.1990
11448TIP3    H155759   3.731   3.758  13.884  1.3929  1.2799 -2.5065
11448TIP3    H255760   3.841   3.794  13.981  0.3573  0.8047 -1.1238
11449TIP3   OH255761   3.753   2.957  17.113 -0.3902 -0.3112 -0.1925
11449TIP3    H155762   3.675   2.948  17.058 -0.8019  0.7235  0.1908
11449TIP3    H255763   3.819   2.904  17.070 -1.5103 -1.8365 -0.1237
11450TIP3   OH255764   1.477   0.432  11.685 -0.0164 -0.1666  0.3916
11450TIP3    H155765   1.491   0.372  11.612 -2.1281 -1.5683  1.0582
11450TIP3    H255766   1.455   0.516  11.643 -1.7332 -1.0794 -0.6406
11451TIP3   OH255767   1.097   2.423  14.207 -0.1214 -0.1067  0.1864
11451TIP3    H155768   1.135   2.511  14.200 -2.5063  1.0002  0.3671
11451TIP3    H255769   1.055   2.409  14.122 -1.4185 -0.2335  0.8397
11452TIP3   OH255770   4.245   5.889   1.506 -0.2174 -0.4543  0.6442
11452TIP3    H155771   4.192   5.821   1.465 -0.5789 -0.0276  0.3972
11452TIP3    H255772   4.206   5.901   1.592 -0.9463  0.3306  0.2130
11453TIP3   OH255773   2.003   1.078  16.677 -0.2244  0.1926 -0.0395
11453TIP3    H155774   2.085   1.040  16.646 -0.2182 -0.4219  0.7006
11453TIP3    H255775   1.982   1.146  16.612 -0.3245 -1.1619 -1.4788
11454TIP3   OH255776   2.032   2.590   5.970 -0.7337 -0.9144  0.1033
11454TIP3    H155777   2.032   2.542   5.887  0.4318  2.9219 -2.3788
11454TIP3    H255778   1.953   2.644   5.966  0.7265  1.3625  0.0472
11455TIP3   OH255779   1.961   5.625   1.352  0.0855 -0.1314  0.3516
11455TIP3    H155780   1.965   5.574   1.433  0.8991  0.4894  0.7244
11455TIP3    H255781   1.922   5.566   1.288  0.2550 -0.9409  0.9737
11456TIP3   OH255782   0.944   0.313   3.238 -0.6592 -0.8212  0.0495
11456TIP3    H155783   0.962   0.362   3.158 -0.9084 -0.8511 -0.0268
11456TIP3    H255784   0.987   0.363   3.307  0.7380 -1.5319 -0.2719
11457TIP3   OH255785   0.170   6.134  15.533 -0.3291  0.5513 -0.3835
11457TIP3    H155786   0.189   6.224  15.558 -0.0219  0.5980 -0.7685
11457TIP3    H255787   0.257   6.093  15.523 -0.4726 -0.0357  0.6635
11458TIP3   OH255788   3.318   3.342   4.851  0.1075  0.0889 -0.6078
11458TIP3    H155789   3.247   3.361   4.912 -0.9808  0.2890 -1.8978
11458TIP3    H255790   3.350   3.256   4.877  0.0233  0.3971  0.5630
11459TIP3   OH255791   0.264   5.758  11.993  0.3152 -0.5316 -0.1034
11459TIP3    H155792   0.289   5.835  12.044 -2.7194 -0.1087  0.9770
11459TIP3    H255793   0.168   5.761  11.990  0.2054 -2.5153 -2.8562
11460TIP3   OH255794   3.723   4.194  16.600  0.0140 -0.1718  0.4969
11460TIP3    H155795   3.698   4.118  16.653  0.6461 -1.0713 -0.4441
11460TIP3    H255796   3.701   4.270  16.654 -1.9500 -0.9731  0.8917
11461TIP3   OH255797   1.467   4.349  16.566  0.0057  0.7111  0.0005
11461TIP3    H155798   1.446   4.259  16.588  0.7377  0.2305 -1.1567
11461TIP3    H255799   1.500   4.387  16.648 -1.6880  0.3970  0.8783
11462TIP3   OH255800   5.958   5.500   3.695  0.0676  0.4994  0.1628
11462TIP3    H155801   6.049   5.473   3.711 -0.0472  0.7230  1.2490
11462TIP3    H255802   5.919   5.504   3.782 -1.6755 -1.8803 -0.4176
11463TIP3   OH255803   6.710   6.295  11.935  0.2961 -1.1808 -0.6758
11463TIP3    H155804   6.659   6.369  11.903  2.1371 -0.9388 -3.3739
11463TIP3    H255805   6.683   6.285  12.026 -3.4062 -0.1835 -1.4909
11464TIP3   OH255806   0.291   6.570  10.589 -0.3431  0.2304 -0.4825
11464TIP3    H155807   0.326   6.621  10.517 -1.3336  0.9133 -0.5009
11464TIP3    H255808   0.342   6.489  10.589 -0.3956  0.1841 -2.0072
11465TIP3   OH255809   1.484   5.292   4.740  0.3941  0.1926  0.1948
11465TIP3    H155810   1.432   5.358   4.784 -1.0753 -0.6171 -0.2556
11465TIP3    H255811   1.574   5.324   4.745 -0.0418  1.2537  1.6766
11466TIP3   OH255812   3.436   2.541  14.253 -0.2094 -0.5319  0.0367
11466TIP3    H155813   3.475   2.458  14.281  0.4900 -0.4802 -0.7324
11466TIP3    H255814   3.478   2.560  14.169 -1.4369 -0.1353 -0.5119
11467TIP3   OH255815   2.661   4.026   6.045 -0.4232 -0.0758 -0.8538
11467TIP3    H155816   2.672   4.120   6.057  1.2727  0.0255 -2.7248
11467TIP3    H255817   2.576   4.007   6.084 -1.1123  2.3469 -1.0001
11468TIP3   OH255818   4.322   0.393   6.752 -0.1726 -0.1798  0.2866
11468TIP3    H155819   4.315   0.356   6.664  1.3131  2.8396 -1.2421
11468TIP3    H255820   4.233   0.418   6.775 -0.5966 -1.1191 -0.2655
11469TIP3   OH255821   5.174   3.088   1.712 -0.3959 -0.3551  0.0721
11469TIP3    H155822   5.126   3.006   1.700 -2.3670  0.6957  0.4734
11469TIP3    H255823   5.152   3.116   1.800  0.8836  0.2367  0.2227
11470TIP3   OH255824   6.436   3.985  14.685 -0.2134  0.2213 -0.0693
11470TIP3    H155825   6.358   3.938  14.655 -0.5900  0.2657  0.8074
11470TIP3    H255826   6.498   3.917  14.710  0.4096  0.1700 -1.6529
11471TIP3   OH255827   4.096   1.545   0.151  0.7781  0.3067 -0.1203
11471TIP3    H155828   4.036   1.494   0.096  0.2745  2.1068 -1.3059
11471TIP3    H255829   4.109   1.490   0.229 -3.4984  0.3223  0.8620
11472TIP3   OH255830   1.713   0.961  16.938 -0.0425  0.0658 -0.3078
11472TIP3    H155831   1.702   0.947  17.033  0.6228 -0.2721 -0.2683
11472TIP3    H255832   1.649   1.027  16.915 -2.3769 -2.0014 -0.1973
11473TIP3   OH255833   0.065   3.755  16.745 -0.8583  0.7698  0.2789
11473TIP3    H155834   0.135   3.771  16.807 -0.7387 -0.5622  0.5162
11473TIP3    H255835  -0.013   3.742  16.799 -1.1239  1.4005  0.0569
11474TIP3   OH255836   6.396   2.143  13.501  0.4078  0.0377  0.4126
11474TIP3    H155837   6.477   2.129  13.451 -0.2969 -0.1535 -0.7087
11474TIP3    H255838   6.335   2.078  13.465 -1.0050  1.8048 -0.5135
11475TIP3   OH255839   6.312   3.914  14.103  0.1727  0.6616  0.0298
11475TIP3    H155840   6.245   3.859  14.062  0.7247 -0.8155  1.0204
11475TIP3    H255841   6.380   3.922  14.036  0.1724 -0.0494 -0.0627
11476TIP3   OH255842   3.247   3.278   0.840  0.1177 -0.0378  0.3697
11476TIP3    H155843   3.340   3.289   0.823 -0.1150  0.1041 -1.0014
11476TIP3    H255844   3.242   3.209   0.906  1.1951  0.0036  0.5044
11477TIP3   OH255845   5.767   6.725   5.316  0.8309  0.4589 -0.2044
11477TIP3    H155846   5.763   6.773   5.398  1.0131  0.8918 -0.4462
11477TIP3    H255847   5.810   6.785   5.255  1.2092 -0.0668 -0.4665
11478TIP3   OH255848   6.218   3.360   0.569 -0.1552 -0.4462 -0.0756
11478TIP3    H155849   6.290   3.347   0.506 -0.5648 -2.7027 -0.1456
11478TIP3    H255850   6.173   3.276   0.572 -1.7796  0.4144  1.2680
11479TIP3   OH255851   2.595   1.461   6.033 -0.0850  0.5640 -0.1684
11479TIP3    H155852   2.614   1.459   6.127  1.5692  0.2983 -0.4767
11479TIP3    H255853   2.656   1.398   5.995 -3.2695 -2.2761 -1.0638
11480TIP3   OH255854   5.381   3.504   3.068 -0.2173  0.1361 -0.1476
11480TIP3    H155855   5.471   3.472   3.070  0.5390  2.1134  1.5213
11480TIP3    H255856   5.345   3.470   2.986  1.7730 -1.3592 -0.4798
11481TIP3   OH255857   0.866   3.660   0.114  0.2237  0.1866  0.2653
11481TIP3    H155858   0.863   3.756   0.108  0.4254  0.1124 -1.7848
11481TIP3    H255859   0.905   3.632   0.031  0.3666 -1.6769  0.9107
11482TIP3   OH255860   3.189   6.527  12.542  0.2712  0.0564  0.5780
11482TIP3    H155861   3.156   6.472  12.613  0.2549  1.3196  1.5956
11482TIP3    H255862   3.112   6.550  12.491 -0.0349  0.7261  1.3162
11483TIP3   OH255863   5.499   6.260  12.698  0.2325  0.0188  0.5366
11483TIP3    H155864   5.588   6.285  12.721  0.1931  2.4716 -1.5008
11483TIP3    H255865   5.508   6.212  12.615 -0.3712  1.2438 -0.2683
11484TIP3   OH255866   3.675   3.756   4.924 -0.9650 -0.2969  0.2395
11484TIP3    H155867   3.620   3.765   4.846 -0.4768 -0.6862 -0.1628
11484TIP3    H255868   3.658   3.668   4.956  1.2272 -1.4210 -1.3573
11485TIP3   OH255869   3.545   2.306  14.330  0.3976 -0.1017  0.0737
11485TIP3    H155870   3.627   2.323  14.376  0.3156  0.5461 -0.0136
11485TIP3    H255871   3.571   2.297  14.238  0.3442  0.3707  0.0080
11486TIP3   OH255872   2.668   1.171   3.115 -0.4198  0.0387  0.4149
11486TIP3    H155873   2.741   1.112   3.133  1.1596  1.1627 -1.9228
11486TIP3    H255874   2.698   1.225   3.042 -3.9937 -0.1807 -1.4199
11487TIP3   OH255875   2.490   2.165   0.699  0.9602  0.3268  0.4015
11487TIP3    H155876   2.570   2.160   0.751  0.5218  0.1894  1.0781
11487TIP3    H255877   2.493   2.252   0.658 -0.4478  2.0774  3.6393
11488TIP3   OH255878   6.767   1.552   5.778  0.0333  0.6060  0.7655
11488TIP3    H155879   6.673   1.572   5.769  0.0415  0.0141 -0.9171
11488TIP3    H255880   6.781   1.479   5.719  1.8960  1.7192 -0.2491
11489TIP3   OH255881   4.003   1.373  11.094 -0.0316  0.3271  0.0354
11489TIP3    H155882   3.996   1.453  11.042 -0.5762  0.5958  0.5074
11489TIP3    H255883   3.935   1.315  11.058  0.9053 -0.2487 -0.8498
11490TIP3   OH255884   4.219   1.115   1.418 -0.5623 -0.2681  0.2155
11490TIP3    H155885   4.294   1.055   1.426  1.2653  1.7781 -0.4562
11490TIP3    H255886   4.186   1.124   1.508 -0.2260 -1.4631  0.4734
11491TIP3   OH255887   2.754   4.300   2.511 -0.3335 -0.5784 -0.5648
11491TIP3    H155888   2.744   4.205   2.514 -0.3945 -0.5494  0.2600
11491TIP3    H255889   2.848   4.313   2.496 -0.3689 -0.7676 -0.9713
11492TIP3   OH255890   1.925   4.500   0.668  0.1622 -0.4593 -0.2656
11492TIP3    H155891   1.877   4.454   0.599 -1.0291  0.8770 -0.3802
11492TIP3    H255892   1.866   4.572   0.694  0.4770 -1.0330  2.2930
11493TIP3   OH255893   6.329   3.926  11.375 -0.4018  0.7205 -0.4701
11493TIP3    H155894   6.259   3.861  11.369  0.8968 -0.7589 -0.0435
11493TIP3    H255895   6.283   4.010  11.375 -2.5317 -0.1908  3.1880
11494TIP3   OH255896   4.405   6.703  16.734  0.9173 -0.1313 -0.0841
11494TIP3    H155897   4.403   6.742  16.821 -0.2014 -1.5917  0.5868
11494TIP3    H255898   4.326   6.736  16.692  0.9370 -0.2132 -0.1852
11495TIP3   OH255899   0.174   2.315  12.652  0.6354  0.0910 -0.5270
11495TIP3    H155900   0.217   2.378  12.711  0.1129  0.3840 -0.4515
11495TIP3    H255901   0.169   2.361  12.568 -0.3510  0.4159 -0.3004
11496TIP3   OH255902   5.757   4.455   1.207  0.8429 -0.3072  0.2183
11496TIP3    H155903   5.836   4.450   1.260  1.3187 -2.4775 -0.5983
11496TIP3    H255904   5.701   4.385   1.241  0.9478 -1.4015 -1.7414
11497TIP3   OH255905   3.165   3.887   0.757  0.2815 -0.1786 -0.3033
11497TIP3    H155906   3.069   3.883   0.752  0.2410 -0.5732  0.5650
11497TIP3    H255907   3.183   3.941   0.833  0.7542 -0.1133 -0.4575
11498TIP3   OH255908   4.375   5.639  12.371  0.1342  0.2084 -0.4013
11498TIP3    H155909   4.287   5.674  12.364 -1.0103 -2.4610 -0.7640
11498TIP3    H255910   4.430   5.714  12.391 -2.1037  2.0742 -0.8817
11499TIP3   OH255911   3.512   4.389   1.555 -0.4788  0.0218  0.1533
11499TIP3    H155912   3.601   4.363   1.531 -0.1976  0.8426  0.2843
11499TIP3    H255913   3.517   4.483   1.569 -2.0571  0.7803 -3.1536
11500TIP3   OH255914   4.800   6.242   2.272 -0.3071 -0.2608 -0.7770
11500TIP3    H155915   4.882   6.281   2.242  0.0655 -1.1465 -0.9554
11500TIP3    H255916   4.826   6.157   2.308 -1.0627 -0.2594 -0.1974
11501TIP3   OH255917   2.733   4.860   4.381  0.1964  0.0584  0.4887
11501TIP3    H155918   2.647   4.827   4.353  1.0007 -1.9032  0.1897
11501TIP3    H255919   2.713   4.921   4.452 -1.4562 -0.1074  0.2111
11502TIP3   OH255920   1.853   5.170  11.988 -0.1110 -0.1782 -0.6610
11502TIP3    H155921   1.844   5.261  11.959 -2.8802  0.0292  0.5077
11502TIP3    H255922   1.887   5.178  12.077  0.6166 -0.3582 -0.9193
11503TIP3   OH255923   4.368   4.199  12.704  0.0042 -0.6727 -0.7868
11503TIP3    H155924   4.409   4.183  12.789  2.0796  0.0609 -1.5851
11503TIP3    H255925   4.307   4.127  12.693  1.2057 -1.9364  0.4190
11504TIP3   OH255926   4.712   4.665  12.858  0.0058 -0.3104 -0.0983
11504TIP3    H155927   4.624   4.646  12.826 -0.5491 -2.3256  2.2530
11504TIP3    H255928   4.698   4.706  12.944  1.3376 -0.8070  0.3824
11505TIP3   OH255929   4.094   3.333  11.443  0.1894 -0.2210 -0.1323
11505TIP3    H155930   4.113   3.281  11.365  1.3904  2.4724 -1.7688
11505TIP3    H255931   4.000   3.323  11.457 -0.4666  0.7013 -3.1316
11506TIP3   OH255932   5.668   0.972  16.562  0.7412 -0.1792  0.3453
11506TIP3    H155933   5.663   0.959  16.468  1.2816  3.0248 -0.2235
11506TIP3    H255934   5.758   1.001  16.578  0.2937  0.5689  1.6486
11507TIP3   OH255935   5.910   5.651   1.291  0.4304 -0.7955 -0.2545
11507TIP3    H155936   5.873   5.566   1.268  1.7304 -0.8152 -2.6379
11507TIP3    H255937   5.995   5.652   1.247 -0.0491  2.1926 -1.2948
11508TIP3   OH255938   4.665   6.738  11.416 -0.7404  0.0982 -0.4243
11508TIP3    H155939   4.741   6.681  11.412 -2.7288 -2.6280 -1.8076
11508TIP3    H255940   4.658   6.776  11.329 -0.3778  1.2231  0.0178
11509TIP3   OH255941   1.690   2.499  13.208 -0.1804 -0.9072 -0.6480
11509TIP3    H155942   1.608   2.519  13.163 -0.6525  0.4751  0.7287
11509TIP3    H255943   1.665   2.434  13.275 -0.4399  0.3850  0.5546
11510TIP3   OH255944   4.503   5.041   3.042 -0.4354 -0.4716  0.3817
11510TIP3    H155945   4.567   5.097   3.086  0.0558 -0.0314 -0.8321
11510TIP3    H255946   4.556   4.985   2.985 -1.0991 -0.3752 -0.3497
11511TIP3   OH255947   5.300   2.993  17.254  0.8425 -0.1287 -0.1548
11511TIP3    H155948   5.358   2.925  17.288 -0.3297 -0.4764  1.2542
11511TIP3    H255949   5.234   3.005  17.322 -0.4402  0.6229 -1.4635
11512TIP3   OH255950   1.869   1.140   2.561 -0.1673  0.5913  0.4782
11512TIP3    H155951   1.934   1.105   2.500 -0.2731 -1.6199  1.5257
11512TIP3    H255952   1.785   1.123   2.518 -0.1405  2.5158 -0.4148
11513TIP3   OH255953   4.514   5.574  13.565  0.4240  0.1324 -0.0614
11513TIP3    H155954   4.606   5.546  13.568  1.1139  1.7224 -2.6799
11513TIP3    H255955   4.511   5.654  13.616  0.2461 -0.4390  0.8396
11514TIP3   OH255956   3.117   2.601   1.696  0.0240  0.1132 -0.4195
11514TIP3    H155957   3.124   2.632   1.606  0.1306 -0.4433 -0.6077
11514TIP3    H255958   3.025   2.615   1.719  0.3141  1.6800 -0.0757
11515TIP3   OH255959   5.918   4.233   4.138  0.3174  0.2840 -1.0267
11515TIP3    H155960   5.840   4.190   4.103  1.4066 -0.8375 -2.1446
11515TIP3    H255961   5.913   4.217   4.233 -0.0437 -1.0689 -1.2622
11516TIP3   OH255962   3.016   1.855   2.990 -0.3315 -0.2666  0.4981
11516TIP3    H155963   2.969   1.772   3.000 -1.1661  0.3342  1.9270
11516TIP3    H255964   3.035   1.882   3.080  0.6392  0.7077  0.0263
11517TIP3   OH255965   2.109   3.390   5.783  0.4703 -0.2507  0.0496
11517TIP3    H155966   2.172   3.338   5.833  0.9116  0.8339  0.6644
11517TIP3    H255967   2.136   3.481   5.797 -0.3132  0.1641 -0.9409
11518TIP3   OH255968   3.787   3.970   5.623  0.5140  0.1463 -0.6782
11518TIP3    H155969   3.833   4.041   5.668  2.4393 -1.3448 -0.1548
11518TIP3    H255970   3.792   3.896   5.683  2.1063 -1.5675 -2.7624
11519TIP3   OH255971   1.722   6.367  16.392  0.0776 -0.5542 -0.5135
11519TIP3    H155972   1.745   6.274  16.401  2.9063  0.0441 -0.6715
11519TIP3    H255973   1.733   6.403  16.480  1.1335  0.0322 -0.8723
11520TIP3   OH255974   5.875   4.071  13.325  0.4934 -0.0809  0.1372
11520TIP3    H155975   5.967   4.051  13.313  0.2734 -2.6057  1.9614
11520TIP3    H255976   5.830   4.022  13.256  0.3494 -1.2723  1.0542
11521TIP3   OH255977   5.255   4.004   1.696  0.0208 -0.4425  0.6159
11521TIP3    H155978   5.254   4.095   1.726 -1.7335 -0.8989  2.1424
11521TIP3    H255979   5.175   3.995   1.644  0.4435 -1.0104  0.0386
11522TIP3   OH255980   0.083   1.016   2.628  0.0625  0.4355 -0.3345
11522TIP3    H155981  -0.004   0.979   2.617 -0.4492  1.1990  0.9556
11522TIP3    H255982   0.071   1.110   2.613  0.6783  0.5448 -0.1746
11523TIP3   OH255983   2.494   6.774  15.208 -0.0303  0.3390  0.1664
11523TIP3    H155984   2.586   6.794  15.227  0.0450  1.3925 -1.2253
11523TIP3    H255985   2.445   6.849  15.243 -0.1949  0.6227 -0.6551
11524TIP3   OH255986   6.162   3.236   1.388 -0.3034  0.5464  0.0866
11524TIP3    H155987   6.108   3.282   1.323 -2.2038 -2.1085 -0.3941
11524TIP3    H255988   6.228   3.190   1.335 -1.5724 -1.2509 -0.0458
11525TIP3   OH255989   5.828   3.255  15.951 -0.1881 -0.1426 -0.4132
11525TIP3    H155990   5.880   3.325  15.991 -1.7551  0.6199  0.3800
11525TIP3    H255991   5.891   3.185  15.932  0.9120  0.2218  1.6863
11526TIP3   OH255992   5.694   6.330   4.928 -0.3067  0.2771  0.4299
11526TIP3    H155993   5.738   6.409   4.900  0.1069  0.2004  0.8490
11526TIP3    H255994   5.653   6.353   5.011 -0.9155  0.2989  0.1295
11527TIP3   OH255995   6.067   2.170   0.526 -0.4004 -0.3741 -0.4526
11527TIP3    H155996   6.155   2.136   0.544 -0.5346 -1.2105 -1.3051
11527TIP3    H255997   6.023   2.169   0.610  0.1244 -0.7858 -0.1767
11528TIP3   OH255998   2.001   1.206  12.030  0.3866  0.3673  0.4234
11528TIP3    H155999   2.001   1.199  11.935 -1.8347 -0.0554  0.4152
11528TIP3    H256000   2.089   1.238  12.051  0.4459  1.9605 -1.8694
11529TIP3   OH256001   4.196   1.717  17.264  0.0335 -0.3593 -0.0853
11529TIP3    H156002   4.155   1.681  17.342 -2.0237  0.4025 -0.7591
11529TIP3    H256003   4.289   1.697  17.275 -0.5030 -2.4192  1.3728
11530TIP3   OH256004   6.202   1.599  12.506 -0.5551 -0.0415 -0.0208
11530TIP3    H156005   6.272   1.611  12.571 -1.5719  1.7524  0.8093
11530TIP3    H256006   6.247   1.602  12.422  0.3917  1.1263  0.4987
11531TIP3   OH256007   4.158   2.762   0.698  0.2899 -0.4578  0.2417
11531TIP3    H156008   4.091   2.810   0.748 -0.3881  0.1328 -1.1709
11531TIP3    H256009   4.213   2.722   0.765 -2.3735 -2.2811  1.5446
11532TIP3   OH256010   0.257   4.026   2.380  0.0926  0.6359  0.4887
11532TIP3    H156011   0.298   3.995   2.461  1.2483  2.1594  0.5177
11532TIP3    H256012   0.215   4.109   2.404 -0.4204  0.6091 -0.2570
11533TIP3   OH256013   4.488   1.585   3.900  0.2027 -0.2482 -0.0778
11533TIP3    H156014   4.525   1.560   3.985  1.7596 -1.3990 -1.0223
11533TIP3    H256015   4.398   1.553   3.902 -0.2278  0.9518  1.6137
11534TIP3   OH256016   2.572   0.613   1.989  0.1267  0.8579 -0.3987
11534TIP3    H156017   2.549   0.661   2.069  2.4314 -1.5963  1.9683
11534TIP3    H256018   2.506   0.543   1.984  0.0940  0.8989 -0.5430
11535TIP3   OH256019   3.705   2.608   6.478  0.3170 -0.1023 -0.1781
11535TIP3    H156020   3.669   2.580   6.562  0.4854  1.0767  0.2930
11535TIP3    H256021   3.630   2.649   6.433  0.2874 -0.5152 -0.5160
11536TIP3   OH256022   0.502   4.309  13.650 -0.3767  0.7780  0.4711
11536TIP3    H156023   0.562   4.344  13.584 -1.7089  1.7104 -0.2794
11536TIP3    H256024   0.439   4.379  13.665 -1.3624 -0.2243  1.1461
11537TIP3   OH256025   4.392   4.140   4.966  0.0575  0.9009  0.1950
11537TIP3    H156026   4.338   4.061   4.964 -1.0196  1.4920  2.2805
11537TIP3    H256027   4.335   4.209   4.932  0.4500  1.0486 -0.1631
11538TIP3   OH256028   6.683   4.852   2.246  0.3221  0.3857  0.1779
11538TIP3    H156029   6.670   4.908   2.322  0.5127  0.7745 -0.0705
11538TIP3    H256030   6.608   4.871   2.189  0.0775 -0.0449  0.3498
11539TIP3   OH256031   6.473   2.847   0.405 -0.5349 -0.7396 -0.5293
11539TIP3    H156032   6.547   2.907   0.394 -1.7474  0.7532 -0.8302
11539TIP3    H256033   6.508   2.761   0.379  0.8030  0.1064 -1.6690
11540TIP3   OH256034   3.649   0.106  13.554  0.5882 -0.0210  0.6342
11540TIP3    H156035   3.735   0.133  13.522  0.2618  0.1185 -0.1504
11540TIP3    H256036   3.623   0.176  13.614  2.0887 -1.2582  2.8916
11541TIP3   OH256037   6.115   1.703   2.586  0.0140  0.0933 -0.1370
11541TIP3    H156038   6.021   1.716   2.601  0.2938  0.4056  1.4769
11541TIP3    H256039   6.156   1.727   2.669  1.3812 -1.8093 -0.1966
11542TIP3   OH256040   1.978   2.411  12.673 -0.0478 -0.2138 -0.3118
11542TIP3    H156041   1.915   2.463  12.723 -0.9725 -0.1751 -1.4708
11542TIP3    H256042   1.979   2.326  12.717 -0.4622 -0.0228  0.0757
11543TIP3   OH256043   6.707   5.844   5.231 -0.2130 -0.1302  0.3524
11543TIP3    H156044   6.745   5.845   5.143 -0.7350  1.7076  0.1117
11543TIP3    H256045   6.621   5.884   5.220  0.1058  1.0324  1.8521
11544TIP3   OH256046   1.371   6.428   3.893  0.3472  0.2535 -0.1254
11544TIP3    H156047   1.280   6.414   3.864  0.4391  0.5213 -0.5569
11544TIP3    H256048   1.389   6.519   3.870  0.4912  0.4161  0.6131
11545TIP3   OH256049   6.327   0.713   2.381  0.6903 -0.0492  0.2580
11545TIP3    H156050   6.285   0.654   2.444  0.8435 -0.5322 -0.0872
11545TIP3    H256051   6.353   0.657   2.309 -1.1712  0.7800 -1.1295
11546TIP3   OH256052   6.216   0.124  16.500  0.0980  0.1836 -0.0777
11546TIP3    H156053   6.132   0.152  16.536  1.1339  2.0715  1.0419
11546TIP3    H256054   6.278   0.189  16.533  2.4373 -2.4865  1.1715
11547TIP3   OH256055   1.371   3.951   1.641  0.6898  0.1606 -0.3946
11547TIP3    H156056   1.364   3.965   1.547  1.2894 -4.8372 -1.4754
11547TIP3    H256057   1.285   3.917   1.666  1.2689 -0.8783  0.2619
11548TIP3   OH256058   0.953   5.220  16.754 -0.1328  0.3676 -0.0445
11548TIP3    H156059   0.960   5.204  16.660  1.5851 -1.2505  0.2926
11548TIP3    H256060   0.885   5.160  16.784 -1.2572  1.4576 -0.3350
11549TIP3   OH256061   3.086   3.600   3.750  0.5550 -0.6189  0.6083
11549TIP3    H156062   3.014   3.663   3.760  1.2699  0.2778  0.2436
11549TIP3    H256063   3.164   3.654   3.745  1.4082 -1.6239  2.1911
11550TIP3   OH256064   5.223   3.210   1.461  0.2094 -0.5714  0.0874
11550TIP3    H156065   5.317   3.190   1.453  0.2477 -1.3782  2.0132
11550TIP3    H256066   5.201   3.183   1.550 -1.4494  1.3170  0.3018
11551TIP3   OH256067   3.674   6.012  16.240  0.0381 -0.8971 -0.7842
11551TIP3    H156068   3.680   5.946  16.309  1.3192 -1.3521 -1.2946
11551TIP3    H256069   3.650   6.093  16.285  0.5579 -1.2548  0.1473
11552TIP3   OH256070   0.638   4.693   2.113  0.0208  0.1798  0.1438
11552TIP3    H156071   0.668   4.605   2.091  1.5274  0.7941 -0.4224
11552TIP3    H256072   0.689   4.717   2.191  0.2989  0.8711 -0.2377
11553TIP3   OH256073   3.602   1.697   4.478  0.1627  0.0801 -0.3730
11553TIP3    H156074   3.606   1.661   4.390  0.1937  0.0194 -0.3465
11553TIP3    H256075   3.599   1.792   4.464  2.4215  0.2169 -0.3962
11554TIP3   OH256076   3.697   5.386  16.093  0.3308 -0.7666  0.4357
11554TIP3    H156077   3.647   5.321  16.142 -0.7963  0.5045  1.0265
11554TIP3    H256078   3.641   5.410  16.019  0.8907 -0.7222  0.0146
11555TIP3   OH256079   5.658   2.472   2.818 -0.0604 -0.1329 -0.1657
11555TIP3    H156080   5.702   2.555   2.832  0.3786 -0.4943  0.6701
11555TIP3    H256081   5.570   2.496   2.787  0.1139  0.6316 -0.0774
11556TIP3   OH256082   2.169   0.499  13.358 -0.6894 -0.2469 -0.2759
11556TIP3    H156083   2.253   0.452  13.358 -0.0738  0.5898  2.9329
11556TIP3    H256084   2.108   0.438  13.398 -0.1678  1.0628  2.7677
11557TIP3   OH256085   0.448   3.968   3.195  0.0175  0.8478  0.4808
11557TIP3    H156086   0.467   3.951   3.103  0.3624  0.0230  0.6974
11557TIP3    H256087   0.420   4.059   3.197  0.1162  0.9060 -0.4252
11558TIP3   OH256088   5.664   0.428   0.493  0.5522  0.4776  0.3112
11558TIP3    H156089   5.735   0.487   0.517 -0.2018  1.8383 -0.6867
11558TIP3    H256090   5.654   0.439   0.399  0.3052 -1.1712  0.1161
11559TIP3   OH256091   0.085   2.204  15.580  0.0434 -0.7034 -0.1016
11559TIP3    H156092   0.132   2.285  15.603  1.1473 -0.9793 -1.2143
11559TIP3    H256093  -0.001   2.213  15.620 -0.5942  1.9414 -1.7907
11560TIP3   OH256094   2.419   0.504  14.090  0.0990  0.1591  0.5826
11560TIP3    H156095   2.440   0.595  14.071 -0.2549  0.0337 -0.4316
11560TIP3    H256096   2.437   0.495  14.184 -1.9093  1.8479  1.2081
11561TIP3   OH256097   3.430   6.665  11.296  0.3026 -0.2755 -0.1661
11561TIP3    H156098   3.458   6.611  11.222  0.4943 -0.9614  0.3970
11561TIP3    H256099   3.449   6.754  11.268 -0.1480 -0.4778 -1.1715
11562TIP3   OH256100   1.070   4.041   0.651 -0.3294 -0.7195  0.2251
11562TIP3    H156101   1.164   4.036   0.635 -0.4276  0.0950 -0.7078
11562TIP3    H256102   1.030   4.009   0.570 -0.8676 -2.1470  1.0284
11563TIP3   OH256103   3.739   3.382  16.690  0.0493  0.7038  0.2845
11563TIP3    H156104   3.829   3.351  16.679  0.4702  1.7020  0.7618
11563TIP3    H256105   3.701   3.323  16.755  1.2992  2.0224  2.2992
11564TIP3   OH256106   5.250   2.249   3.887 -0.0701 -0.5478  0.1834
11564TIP3    H156107   5.339   2.232   3.856  0.1955 -0.7627  1.0492
11564TIP3    H256108   5.215   2.163   3.909 -0.0312 -0.3534  1.0486
11565TIP3   OH256109   2.039   6.608   5.029 -0.2992 -0.4463  0.2020
11565TIP3    H156110   2.058   6.521   4.994  1.8970 -0.3215  0.9041
11565TIP3    H256111   2.006   6.658   4.955 -1.3134 -1.7902 -0.2767
11566TIP3   OH256112   1.543   5.552  16.985  0.1973 -0.0581 -0.5746
11566TIP3    H156113   1.634   5.533  17.007 -0.0531 -0.4601  0.1398
11566TIP3    H256114   1.548   5.598  16.901  1.1481  1.0991  0.0770
11567TIP3   OH256115   4.273   3.096  14.563  0.0589  0.0412 -0.6806
11567TIP3    H156116   4.302   3.185  14.542 -0.5208  0.1463 -1.0381
11567TIP3    H256117   4.288   3.087  14.657 -2.3452  1.4483 -0.1115
11568TIP3   OH256118   1.588   2.982   1.084 -0.0087 -0.9353  0.1940
11568TIP3    H156119   1.633   3.039   1.021  0.4793 -3.1157 -1.5571
11568TIP3    H256120   1.496   2.987   1.059 -0.2714  0.5112  1.2988
11569TIP3   OH256121   1.549   3.777   3.405  0.1556  0.0891 -0.1175
11569TIP3    H156122   1.534   3.684   3.388  0.8717 -0.0306 -0.1474
11569TIP3    H256123   1.552   3.818   3.319  1.4144 -0.1293 -0.1998
11570TIP3   OH256124   4.825   6.721  12.423 -0.1093 -0.5950  0.1810
11570TIP3    H156125   4.812   6.678  12.339 -1.1028  0.3903 -0.1902
11570TIP3    H256126   4.822   6.815  12.403  1.0079 -0.3397  1.1135
11571TIP3   OH256127   1.446   3.174  17.124  0.2231  0.2173 -0.4841
11571TIP3    H156128   1.519   3.215  17.077 -0.6964  1.8739 -0.5537
11571TIP3    H256129   1.381   3.156  17.057 -0.4944  1.2335 -0.0934
11572TIP3   OH256130   3.123   0.272  13.597  0.5658 -1.1657  0.2607
11572TIP3    H156131   3.175   0.344  13.563  1.0458 -1.4474  0.3837
11572TIP3    H256132   3.036   0.310  13.613  1.3733 -0.0414  2.3626
11573TIP3   OH256133   2.489   0.707  15.015 -0.0444 -0.7815  0.4434
11573TIP3    H156134   2.439   0.650  15.072 -1.7355  0.5894  0.4057
11573TIP3    H256135   2.424   0.756  14.965  1.3618 -0.7034 -1.4454
11574TIP3   OH256136   2.710   1.046  15.892 -0.3282 -0.3324 -0.8522
11574TIP3    H156137   2.705   1.132  15.850  0.4598 -1.2270 -2.9478
11574TIP3    H256138   2.804   1.034  15.909 -0.5785 -0.2170  0.7907
11575TIP3   OH256139   0.181   2.009   1.841 -0.2340  0.4682  0.6732
11575TIP3    H156140   0.109   1.957   1.875 -0.0256 -0.5719 -0.4208
11575TIP3    H256141   0.260   1.966   1.875 -0.0826  0.4998  0.3662
11576TIP3   OH256142   6.028   4.829  11.984 -0.0009  0.1846  0.3058
11576TIP3    H156143   6.092   4.822  11.913 -0.5012 -0.3161 -0.0996
11576TIP3    H256144   5.965   4.759  11.967  0.0271 -0.1219  1.3973
11577TIP3   OH256145   1.149   0.891  13.036  0.0890 -0.1598 -0.5519
11577TIP3    H156146   1.232   0.853  13.008  2.3191  4.0336 -0.4355
11577TIP3    H256147   1.097   0.897  12.956  1.7411  1.1487 -1.5811
11578TIP3   OH256148   5.393   5.732  13.242 -0.9577 -0.7955  0.2354
11578TIP3    H156149   5.450   5.688  13.178 -0.1728  1.2821 -0.5687
11578TIP3    H256150   5.316   5.757  13.192 -0.1195  1.2936 -0.0781
11579TIP3   OH256151   6.232   0.765  15.794  0.2287  0.1741  0.5686
11579TIP3    H156152   6.232   0.859  15.812 -0.1914  0.3782 -0.4015
11579TIP3    H256153   6.265   0.758  15.705 -2.1031 -0.3431 -0.3449
11580TIP3   OH256154   1.846   4.556  15.085  0.1825 -0.1751  0.2371
11580TIP3    H156155   1.847   4.645  15.050 -1.0033 -0.4486 -0.5594
11580TIP3    H256156   1.821   4.502  15.010  0.0411 -1.0752  0.9202
11581TIP3   OH256157   1.691   5.751   5.178 -0.2536 -0.5006  0.1836
11581TIP3    H156158   1.678   5.671   5.126 -1.8431 -1.3096  1.6791
11581TIP3    H256159   1.784   5.770   5.171  0.0749 -2.2140 -0.6252
11582TIP3   OH256160   4.816   4.454   2.222  0.0675 -0.7872  0.5069
11582TIP3    H156161   4.835   4.431   2.131 -0.6368 -0.3126  0.2329
11582TIP3    H256162   4.733   4.501   2.218  0.0682 -0.6970  1.3901
11583TIP3   OH256163   6.463   1.175   1.262  0.7648 -0.0565 -0.4419
11583TIP3    H156164   6.451   1.200   1.171  1.9549  0.7102 -0.4179
11583TIP3    H256165   6.450   1.080   1.263 -1.4754  0.2052 -0.9770
11584TIP3   OH256166   6.273   5.443   4.941  0.0625  0.5643  0.4920
11584TIP3    H156167   6.191   5.485   4.914 -0.7760 -1.3903 -0.1320
11584TIP3    H256168   6.309   5.407   4.860 -0.0797 -1.3037  1.2186
11585TIP3   OH256169   4.037   6.752  16.532  0.3965  0.4573 -0.0725
11585TIP3    H156170   3.946   6.751  16.561  0.3702  0.3595 -0.1613
11585TIP3    H256171   4.043   6.681  16.468 -0.0152  1.8332 -1.7287
11586TIP3   OH256172   2.011   6.190  10.809  0.3585  0.2594  1.0645
11586TIP3    H156173   2.075   6.237  10.862  0.9505 -1.1419  1.6398
11586TIP3    H256174   2.063   6.145  10.743 -0.1435 -0.0423  0.8705
11587TIP3   OH256175   2.433   3.391   2.832  0.4703  0.4147 -0.5053
11587TIP3    H156176   2.362   3.455   2.821 -0.7521 -0.4146  1.8332
11587TIP3    H256177   2.503   3.441   2.875  0.2423  0.6389 -0.3883
11588TIP3   OH256178   3.223   4.513   0.861  0.0521  0.6117 -0.7596
11588TIP3    H156179   3.265   4.427   0.863 -1.6868 -0.2673  0.5341
11588TIP3    H256180   3.233   4.542   0.771  0.1525 -1.2130 -1.3855
11589TIP3   OH256181   0.783   3.414   3.746 -0.0701  0.3895  0.3637
11589TIP3    H156182   0.763   3.324   3.720  0.0349  0.5432 -0.2647
11589TIP3    H256183   0.878   3.419   3.747 -0.0185  1.2197 -2.2887
11590TIP3   OH256184   1.244   4.956   4.097  0.6017  0.0606 -0.3969
11590TIP3    H156185   1.201   5.033   4.061 -0.8648 -0.8318 -0.5995
11590TIP3    H256186   1.303   4.991   4.164  2.6658  1.6885 -2.8523
11591TIP3   OH256187   2.430   4.307  14.211 -0.3937 -0.1490  0.0381
11591TIP3    H156188   2.471   4.359  14.142  0.0276  0.3330  0.6444
11591TIP3    H256189   2.475   4.223  14.206 -0.7632 -0.3193 -0.6435
11592TIP3   OH256190   5.248   3.330   4.955  0.1387  0.0460  0.3188
11592TIP3    H156191   5.340   3.339   4.932  0.2195 -0.0277  0.6128
11592TIP3    H256192   5.246   3.267   5.027  0.0281  1.2830  1.4383
11593TIP3   OH256193   5.320   2.376  12.798 -0.0602 -0.1468 -0.0929
11593TIP3    H156194   5.243   2.330  12.762 -0.3571  0.9770 -0.9674
11593TIP3    H256195   5.352   2.319  12.867 -2.1389 -0.3104  0.8057
11594TIP3   OH256196   0.158   3.140  11.415 -0.6190 -0.2044  0.1159
11594TIP3    H156197   0.197   3.091  11.487 -1.0219 -0.0453  0.4436
11594TIP3    H256198   0.210   3.221  11.410 -0.6766 -0.1561  0.3120
11595TIP3   OH256199   6.062   5.079  15.592 -0.1757 -0.6075 -0.2602
11595TIP3    H156200   6.036   5.019  15.523 -1.7482 -1.0094  0.6479
11595TIP3    H256201   5.984   5.131  15.611 -0.2078 -1.3687  2.0612
11596TIP3   OH256202   6.265   0.184  11.842 -0.3039  0.1894  0.5009
11596TIP3    H156203   6.352   0.223  11.841  0.3380 -1.1893  0.0265
11596TIP3    H256204   6.269   0.115  11.775 -2.0011  0.6126 -0.0804
11597TIP3   OH256205   0.972   2.677   5.816  0.6133 -0.1025 -0.7159
11597TIP3    H156206   0.879   2.677   5.795  0.3970  1.6121  0.0518
11597TIP3    H256207   1.016   2.699   5.734  0.3536 -0.8967 -1.0734
11598TIP3   OH256208   4.290   6.439   2.357 -0.1362 -0.5785 -0.4048
11598TIP3    H156209   4.292   6.531   2.331  1.3627 -0.2221  0.8007
11598TIP3    H256210   4.381   6.420   2.383 -0.1460 -2.7183 -1.6799
11599TIP3   OH256211   1.577   4.237   4.203 -0.0244 -0.0676 -0.2633
11599TIP3    H156212   1.627   4.156   4.213 -2.9361 -1.8023  1.5991
11599TIP3    H256213   1.548   4.238   4.112 -0.6969 -1.6164 -0.0832
11600TIP3   OH256214   5.038   6.057   5.747 -0.1179  0.4174 -0.4547
11600TIP3    H156215   4.971   6.098   5.802 -1.0779 -0.6933 -0.7569
11600TIP3    H256216   5.113   6.045   5.805 -0.9535 -0.3037  0.5227
11601TIP3   OH256217   3.408   5.744   5.954  0.0098  0.0006 -0.4394
11601TIP3    H156218   3.335   5.738   6.016 -1.0393 -0.2349 -1.6534
11601TIP3    H256219   3.486   5.749   6.009 -0.8045 -1.2370  0.9005
11602TIP3   OH256220   0.756   0.004  13.525 -0.4223 -0.4316  0.0251
11602TIP3    H156221   0.668   0.033  13.549 -0.1415  1.0316 -0.6087
11602TIP3    H256222   0.814   0.057  13.579  0.0971 -0.5012 -0.4626
11603TIP3   OH256223   3.671   3.827   4.435 -0.8605  0.3234  0.1465
11603TIP3    H156224   3.741   3.804   4.374 -0.7984  0.4982  0.1519
11603TIP3    H256225   3.682   3.767   4.508 -2.0308 -1.1320 -0.7996
11604TIP3   OH256226   4.649   0.806   4.245 -0.5373  0.2645 -0.2808
11604TIP3    H156227   4.697   0.725   4.262  1.8689  1.5138 -0.6685
11604TIP3    H256228   4.589   0.814   4.319 -0.1710 -1.3779  0.2416
11605TIP3   OH256229   6.212   0.544  14.318 -0.2039 -0.1959 -0.0151
11605TIP3    H156230   6.252   0.505  14.240 -0.4359 -0.0188 -0.2228
11605TIP3    H256231   6.190   0.469  14.373  0.5583 -0.2870  0.1688
11606TIP3   OH256232   0.540   1.081  14.584  0.1630 -0.0087  0.5451
11606TIP3    H156233   0.476   1.152  14.575 -1.7326 -1.3265  2.5395
11606TIP3    H256234   0.534   1.055  14.676  2.5353 -1.2278  0.4378
11607TIP3   OH256235   6.398   5.075   5.644  0.1819 -0.3287  0.3759
11607TIP3    H156236   6.422   5.165   5.663  1.5404 -0.1977 -1.6195
11607TIP3    H256237   6.310   5.080   5.607  0.0364  0.1116  0.7820
11608TIP3   OH256238   1.007   1.215   2.717  0.0718 -0.1372  0.0664
11608TIP3    H156239   1.062   1.209   2.795  0.9335  1.1016 -0.4159
11608TIP3    H256240   0.994   1.125   2.689  1.1649 -0.5024  0.6779
11609TIP3   OH256241   4.342   4.977   4.635 -0.0056  0.4755 -0.1413
11609TIP3    H156242   4.415   4.921   4.608  0.2155  0.6032  0.1804
11609TIP3    H256243   4.293   4.925   4.697 -0.0683  0.4657 -0.1996
11610TIP3   OH256244   0.566   2.220   2.113  0.6059 -0.5625 -0.2476
11610TIP3    H156245   0.636   2.237   2.176  0.1717 -1.5073  0.5134
11610TIP3    H256246   0.598   2.145   2.062  0.6053 -0.3099 -0.6236
11611TIP3   OH256247   0.333   0.129   3.189 -0.3906 -0.5076  0.2838
11611TIP3    H156248   0.400   0.076   3.232 -0.7035 -0.4718  0.8325
11611TIP3    H256249   0.343   0.216   3.227  1.2384  0.3267 -1.8299
11612TIP3   OH256250   5.396   3.974  11.159 -0.1786  0.4705 -0.5037
11612TIP3    H156251   5.324   3.958  11.220 -0.4341 -0.2790 -0.9786
11612TIP3    H256252   5.415   4.067  11.167 -0.5882  0.4953  0.2932
11613TIP3   OH256253   2.204   5.395  11.672 -0.7783  0.5508 -0.4730
11613TIP3    H156254   2.271   5.396  11.604 -0.7634  0.7333 -0.4567
11613TIP3    H256255   2.171   5.485  11.674 -0.6966  0.5743 -0.1607
11614TIP3   OH256256   5.113   4.613   4.534 -0.2629 -0.0750  0.4285
11614TIP3    H156257   5.205   4.625   4.510  0.0502 -0.7560  1.2394
11614TIP3    H256258   5.089   4.528   4.495 -2.0881  2.1932 -4.1915
11615TIP3   OH256259   5.472   6.101  15.491 -0.0539 -0.1787 -0.6684
11615TIP3    H156260   5.413   6.087  15.417 -1.0092 -0.2992  0.0929
11615TIP3    H256261   5.440   6.182  15.532  0.4564 -0.1172 -0.3912
11616TIP3   OH256262   2.913   6.182  13.900 -0.2853 -0.4389  1.0788
11616TIP3    H156263   2.984   6.154  13.957 -1.1030 -0.3491  2.1757
11616TIP3    H256264   2.942   6.267  13.866  1.6732 -1.9470 -1.3252
11617TIP3   OH256265   6.138   5.066   1.552 -0.3822  0.0103 -0.0498
11617TIP3    H156266   6.057   5.020   1.573  0.0433 -0.8473 -0.2460
11617TIP3    H256267   6.205   4.998   1.555  0.7542  1.1186  2.5566
11618TIP3   OH256268   6.062   2.911   5.773  0.0210 -0.5727 -0.5456
11618TIP3    H156269   6.113   2.992   5.778 -1.7622  0.5420  1.3887
11618TIP3    H256270   6.092   2.859   5.847  0.4376 -1.2635 -1.1855
11619TIP3   OH256271   1.508   6.686   1.790  0.1682  0.1028 -0.4977
11619TIP3    H156272   1.509   6.782   1.798 -1.6588  0.0517  1.2541
11619TIP3    H256273   1.588   6.658   1.835  0.8305  0.8064 -1.2089
11620TIP3   OH256274   1.295   5.747  16.080 -0.0220  0.2947  0.3306
11620TIP3    H156275   1.216   5.777  16.034  0.6652 -1.1681 -2.0195
11620TIP3    H256276   1.339   5.827  16.108 -0.2699  1.3748 -2.0828
11621TIP3   OH256277   6.348   5.412  15.850  0.4264 -0.3756  0.4938
11621TIP3    H156278   6.346   5.438  15.758  2.1657 -0.5626  0.3687
11621TIP3    H256279   6.428   5.450  15.884  0.9488 -2.1342  1.3532
11622TIP3   OH256280   2.352   5.238   3.977  1.1516  0.3122 -0.1885
11622TIP3    H156281   2.431   5.188   3.957  0.5992 -0.4604 -0.5014
11622TIP3    H256282   2.301   5.235   3.896  0.0619 -0.6057  0.4977
11623TIP3   OH256283   5.466   0.229  16.436 -0.2680  0.1657  0.1351
11623TIP3    H156284   5.489   0.321  16.448 -1.7280  1.0346 -2.8815
11623TIP3    H256285   5.459   0.195  16.525 -0.2737  3.1121  1.3885
11624TIP3   OH256286   0.911   4.253  16.736  0.0946  0.4696  0.2434
11624TIP3    H156287   0.817   4.237  16.733  0.0334  0.8373  0.0613
11624TIP3    H256288   0.919   4.347  16.717  0.6206  0.0401 -2.0087
11625TIP3   OH256289   4.664   5.100   1.584 -0.1119 -0.6941 -0.4114
11625TIP3    H156290   4.701   5.184   1.609  0.2512 -1.4477  1.7507
11625TIP3    H256291   4.575   5.120   1.553 -0.2322  0.4148  0.6225
11626TIP3   OH256292   2.582   4.499  15.566  0.4307 -0.4402  0.5660
11626TIP3    H156293   2.641   4.436  15.527 -0.7935 -0.8449 -0.7151
11626TIP3    H256294   2.495   4.461  15.554 -0.2054  0.7608  1.1740
11627TIP3   OH256295   3.749   4.754  16.019  0.4343  0.3375 -0.1238
11627TIP3    H156296   3.662   4.734  15.985  0.8031 -1.7801  0.0450
11627TIP3    H256297   3.737   4.761  16.114  0.2760  1.0586 -0.1972
11628TIP3   OH256298   5.233   5.363   4.280 -0.4918  0.0147 -0.8527
11628TIP3    H156299   5.318   5.399   4.254  0.0141 -1.0400 -0.7276
11628TIP3    H256300   5.179   5.440   4.298  0.4044  0.7091 -1.0266
11629TIP3   OH256301   0.652   2.199  13.318  0.1770 -0.1754  0.3161
11629TIP3    H156302   0.671   2.116  13.273 -0.1993  0.8735 -1.9246
11629TIP3    H256303   0.736   2.244  13.323 -0.0197  0.3776 -0.8699
11630TIP3   OH256304   3.563   4.411  14.919 -0.0374  0.4094 -0.2735
11630TIP3    H156305   3.535   4.499  14.944 -1.2769 -0.2868  0.8875
11630TIP3    H256306   3.491   4.376  14.865  0.0327 -0.2236  0.0310
11631TIP3   OH256307   4.155   0.293  12.518  0.1236  0.4453  0.4630
11631TIP3    H156308   4.072   0.246  12.509  0.1813  0.6864 -1.9165
11631TIP3    H256309   4.221   0.229  12.492  0.7617  0.1914  2.5354
11632TIP3   OH256310   5.891   2.235   4.011 -0.1607  0.0923 -0.4386
11632TIP3    H156311   5.957   2.228   3.942  0.7736 -0.6221  0.4909
11632TIP3    H256312   5.940   2.224   4.092 -1.1690  1.3753  0.3835
11633TIP3   OH256313   2.968   6.494   1.647  0.1548  0.3043  0.2113
11633TIP3    H156314   2.940   6.559   1.584 -1.2037 -0.1623  0.2796
11633TIP3    H256315   2.982   6.414   1.596  0.8062  0.3874  0.2595
11634TIP3   OH256316   1.893   0.855   5.264 -0.5764  0.5525  0.1642
11634TIP3    H156317   1.912   0.878   5.355 -0.0764  0.6888  0.0261
11634TIP3    H256318   1.807   0.812   5.268  0.4465 -1.5133  0.9959
11635TIP3   OH256319   6.509   2.145   0.343 -0.2680  0.7562 -0.5592
11635TIP3    H156320   6.586   2.097   0.313  0.2144  1.9284 -1.2672
11635TIP3    H256321   6.453   2.153   0.266 -1.1527 -0.1495 -0.0332
11636TIP3   OH256322   4.471   1.571  11.499  0.0150 -0.1449  0.3127
11636TIP3    H156323   4.546   1.617  11.462 -0.8087 -0.6026 -2.0878
11636TIP3    H256324   4.457   1.497  11.440 -1.3535 -0.9835  1.6280
11637TIP3   OH256325   0.753   1.741   5.650 -0.2611 -0.1099 -0.0072
11637TIP3    H156326   0.728   1.739   5.742 -0.1447  0.4832  0.0430
11637TIP3    H256327   0.694   1.678   5.608 -0.6078 -0.0633  0.4020
11638TIP3   OH256328   5.484   6.771   0.031  0.4167  0.0164 -0.4643
11638TIP3    H156329   5.452   6.840  -0.028 -0.5818  0.0944  0.1635
11638TIP3    H256330   5.534   6.818   0.098 -2.6765  0.5413  1.6695
11639TIP3   OH256331   2.394   0.633   4.884 -0.1348 -0.3097  0.8216
11639TIP3    H156332   2.448   0.582   4.824 -2.6611 -0.2660 -1.7342
11639TIP3    H256333   2.416   0.724   4.864 -0.4600 -0.3093  0.4496
11640TIP3   OH256334   6.543   3.735   4.493  0.2273  0.3560  0.0742
11640TIP3    H156335   6.505   3.706   4.575  0.4265  0.6037  0.2541
11640TIP3    H256336   6.492   3.813   4.469  0.7533  0.8151  0.4247
11641TIP3   OH256337   0.269   3.176   5.091  0.1408  0.2156  0.1257
11641TIP3    H156338   0.307   3.202   5.007 -0.2700 -0.5266 -0.2958
11641TIP3    H256339   0.340   3.133   5.138  0.4860  0.9963  0.3354
11642TIP3   OH256340   5.645   0.941  14.585  0.6859 -0.0581  0.0692
11642TIP3    H156341   5.651   0.848  14.562  0.4405 -0.3618  1.1827
11642TIP3    H256342   5.654   0.943  14.680  1.7158  1.1582 -0.0187
11643TIP3   OH256343   4.194   3.563   0.212 -0.0475  0.2703  0.2618
11643TIP3    H156344   4.145   3.565   0.294 -1.9470  0.4753 -0.8354
11643TIP3    H256345   4.152   3.494   0.160  1.1004  0.1662 -0.5788
11644TIP3   OH256346   5.547   0.228   1.041 -0.0049 -0.2012  0.1000
11644TIP3    H156347   5.533   0.246   1.134  2.3602 -0.8380  0.6563
11644TIP3    H256348   5.463   0.193   1.010 -1.5196  2.0285  1.4134
11645TIP3   OH256349   2.556   3.522   0.488  0.5362  0.2868 -0.0163
11645TIP3    H156350   2.540   3.542   0.580 -3.0745 -0.1254 -0.4192
11645TIP3    H256351   2.566   3.427   0.485 -2.8423 -0.1998 -0.2654
11646TIP3   OH256352   3.614   1.989   4.404 -0.2562  0.3899 -0.4988
11646TIP3    H156353   3.708   2.002   4.397 -0.3613  2.1131  0.6000
11646TIP3    H256354   3.576   2.045   4.336 -0.5089  0.9128  0.0539
11647TIP3   OH256355   3.617   1.109  14.920  0.0563  0.6141  0.4022
11647TIP3    H156356   3.527   1.080  14.903  0.2595  0.1384  0.0943
11647TIP3    H256357   3.613   1.204  14.917 -0.5117  0.6047  0.7872
11648TIP3   OH256358   5.927   3.855  15.836 -0.0192  0.0579 -0.4244
11648TIP3    H156359   6.010   3.902  15.847  0.1847 -0.3581 -0.1827
11648TIP3    H256360   5.941   3.799  15.759  0.1941 -0.5958  0.0877
11649TIP3   OH256361   6.459   1.977   0.761  0.0066  0.4160 -0.1217
11649TIP3    H156362   6.495   1.901   0.807 -1.8987 -1.1049 -0.9588
11649TIP3    H256363   6.415   2.028   0.830 -0.6319 -0.4765  0.1523
11650TIP3   OH256364   5.524   6.093  14.596  0.1030 -0.2434 -0.3741
11650TIP3    H156365   5.474   6.174  14.604  0.2229 -0.2366  0.3665
11650TIP3    H256366   5.592   6.113  14.531  0.4583  0.4260  0.1835
11651TIP3   OH256367   4.575   0.156  16.634 -0.5066 -0.4573  0.2775
11651TIP3    H156368   4.522   0.098  16.689 -0.6429  1.8885  2.8577
11651TIP3    H256369   4.618   0.214  16.696  0.4637  1.5082 -2.0824
11652TIP3   OH256370   1.215   1.358  12.908 -0.4438 -0.3243 -0.2947
11652TIP3    H156371   1.305   1.327  12.913 -0.4413 -0.3429 -0.4540
11652TIP3    H256372   1.199   1.400  12.993  0.4401  1.6763 -1.0738
11653TIP3   OH256373   4.491   4.548   1.259  0.2986  0.1888 -0.0879
11653TIP3    H156374   4.509   4.496   1.337 -1.5858 -1.5457 -0.7135
11653TIP3    H256375   4.568   4.604   1.248  2.1165 -1.9647  1.0550
11654TIP3   OH256376   6.499   1.290   4.300 -0.9267  0.1111  0.8091
11654TIP3    H156377   6.545   1.331   4.227 -0.9542 -1.6072 -0.2204
11654TIP3    H256378   6.552   1.310   4.377  1.0932 -1.0637 -0.2091
11655TIP3   OH256379   3.945   5.036   2.592 -0.4305 -0.2249  0.1251
11655TIP3    H156380   4.034   5.071   2.599 -0.6527  0.2912  0.5243
11655TIP3    H256381   3.937   4.975   2.666 -0.6355  0.2708  0.5203
11656TIP3   OH256382   3.366   3.743   2.998 -0.0454 -0.1998 -0.3368
11656TIP3    H156383   3.379   3.673   2.934 -0.8998  0.4293 -1.2234
11656TIP3    H256384   3.378   3.824   2.948 -0.9046  0.3100  0.2589
11657TIP3   OH256385   5.467   2.502   3.639  0.1563 -0.6085 -0.5246
11657TIP3    H156386   5.404   2.437   3.609  1.6616 -1.5902 -1.6847
11657TIP3    H256387   5.413   2.571   3.678 -1.5255 -2.1587  0.0278
11658TIP3   OH256388   0.876   2.473   4.768 -0.7850 -0.0403  0.2355
11658TIP3    H156389   0.953   2.511   4.725  1.8313 -1.6171  3.1295
11658TIP3    H256390   0.856   2.534   4.839 -1.5249 -0.1983  0.1641
11659TIP3   OH256391   0.841   0.339  17.146 -0.0682  0.1326 -0.0795
11659TIP3    H156392   0.791   0.349  17.227 -0.8905 -1.7667 -0.3143
11659TIP3    H256393   0.788   0.384  17.080  0.1451  0.8774  0.2413
11660TIP3   OH256394   2.564   0.937   1.950  0.0093 -0.3068 -0.2573
11660TIP3    H156395   2.656   0.921   1.927  0.2727 -0.1292  0.5955
11660TIP3    H256396   2.549   0.879   2.025 -0.5431 -0.2466 -0.3222
11661TIP3   OH256397   3.523   3.648  15.421  0.3602 -0.3016 -0.0162
11661TIP3    H156398   3.590   3.582  15.443  2.2929  1.0372 -1.5348
11661TIP3    H256399   3.557   3.691  15.342 -2.4930  0.2512 -1.0502
11662TIP3   OH256400   5.739   6.207   4.664  0.6250  0.4280  0.5014
11662TIP3    H156401   5.753   6.230   4.756 -1.6621  0.6576  0.8453
11662TIP3    H256402   5.713   6.289   4.622 -0.4529 -0.0778  0.1423
11663TIP3   OH256403   0.703   1.380   2.228  0.6854  0.2738  0.5095
11663TIP3    H156404   0.686   1.346   2.316 -0.4136  2.3035  1.1386
11663TIP3    H256405   0.796   1.404   2.229  0.7674 -0.0518  0.9850
11664TIP3   OH256406   3.588   1.191   6.179  0.3983 -0.5012  0.0272
11664TIP3    H156407   3.584   1.249   6.102 -0.0390 -2.7840 -1.7767
11664TIP3    H256408   3.660   1.132   6.160 -0.6023 -1.9858  0.7016
11665TIP3   OH256409   1.037   3.507  14.643  0.2778  0.6660  0.0577
11665TIP3    H156410   0.981   3.583  14.658  0.6231  0.7796  0.8068
11665TIP3    H256411   1.022   3.451  14.719  0.5097  0.2848 -0.1750
11666TIP3   OH256412   5.240   5.953  10.634 -0.1581 -0.2030 -0.2208
11666TIP3    H156413   5.202   5.948  10.722 -2.3261 -0.6750 -1.1257
11666TIP3    H256414   5.167   5.936  10.575  1.1686  0.4552 -2.1560
11667TIP3   OH256415   5.429   5.058   4.105 -0.4233  0.7033  0.7211
11667TIP3    H156416   5.496   4.989   4.106 -1.1431 -0.0154  0.3193
11667TIP3    H256417   5.373   5.036   4.031 -1.0363  1.3717  0.9761
11668TIP3   OH256418   5.447   6.145  12.220 -0.5073  0.1732 -0.3710
11668TIP3    H156419   5.372   6.107  12.174 -0.7621 -0.3268  0.4425
11668TIP3    H256420   5.421   6.235  12.239 -1.9166 -0.6586  2.0207
11669TIP3   OH256421   6.699   3.219   4.972 -0.4872  0.2805 -0.0228
11669TIP3    H156422   6.698   3.277   5.048 -0.2417  1.6423 -1.0178
11669TIP3    H256423   6.749   3.267   4.906  0.5008 -1.4714 -0.5982
11670TIP3   OH256424   6.402   2.515  11.296  0.1449 -0.1608 -0.7556
11670TIP3    H156425   6.464   2.467  11.242 -0.1361 -1.2058 -0.1709
11670TIP3    H256426   6.446   2.524  11.381  0.0871  0.3838 -0.7794
11671TIP3   OH256427   0.744   5.762  14.340  0.1042 -0.2168 -0.1758
11671TIP3    H156428   0.779   5.675  14.321 -1.1119 -0.5966 -0.7220
11671TIP3    H256429   0.722   5.799  14.254 -1.7124 -0.3727  0.1827
11672TIP3   OH256430   0.753   5.902  11.610 -0.1749  0.5513  0.5203
11672TIP3    H156431   0.799   5.970  11.660  0.0171  0.0691  1.0119
11672TIP3    H256432   0.769   5.925  11.518  0.2926  0.8980  0.6815
11673TIP3   OH256433   3.429   5.585  12.545  0.1720 -0.2654  0.6567
11673TIP3    H156434   3.432   5.570  12.451  0.8180  0.8845  0.4848
11673TIP3    H256435   3.398   5.502  12.581 -0.7574 -0.5006 -0.6151
11674TIP3   OH256436   2.658   6.755   6.106  0.1802 -0.0396 -0.6405
11674TIP3    H156437   2.617   6.774   6.190  1.3896  1.1678 -0.2787
11674TIP3    H256438   2.691   6.665   6.115  2.5116  0.8989  1.1747
11675TIP3   OH256439   4.187   4.412  14.694  0.0219 -0.3107  0.1292
11675TIP3    H156440   4.201   4.448  14.606  1.4956  2.3181  1.3384
11675TIP3    H256441   4.102   4.446  14.720 -0.7992 -1.7594 -0.5040
11676TIP3   OH256442   5.498   0.557   1.081 -0.2886  0.0707 -0.4803
11676TIP3    H156443   5.433   0.486   1.086  0.4070 -0.5227  0.5038
11676TIP3    H256444   5.567   0.530   1.142 -0.1033  1.6964  0.0698
11677TIP3   OH256445   0.367   5.241  10.680 -0.0864  0.2483 -0.2861
11677TIP3    H156446   0.290   5.264  10.628  0.9030  1.7931 -1.1456
11677TIP3    H256447   0.439   5.289  10.639  1.2047 -0.5440  0.9600
11678TIP3   OH256448   4.897   3.826   2.245 -0.2202 -0.0367  0.8739
11678TIP3    H156449   4.859   3.749   2.203 -1.1493  1.1752 -0.6139
11678TIP3    H256450   4.967   3.854   2.186  1.4926 -0.8773  2.4232
11679TIP3   OH256451   6.377   3.989  17.140  0.2314 -0.0697 -0.1089
11679TIP3    H156452   6.417   4.075  17.134 -0.4978  0.2896  0.0936
11679TIP3    H256453   6.326   3.980  17.060  0.2216 -0.2710 -0.0806
11680TIP3   OH256454   0.781   3.043   2.597 -0.1799 -0.5592  0.0514
11680TIP3    H156455   0.841   3.117   2.605  0.2524 -0.9043  0.0879
11680TIP3    H256456   0.805   3.002   2.514  0.7062 -1.6142  0.7904
11681TIP3   OH256457   1.758   2.985  16.885 -0.5241 -0.2416  0.4587
11681TIP3    H156458   1.697   2.920  16.921 -1.7267  1.0452  0.8193
11681TIP3    H256459   1.740   3.065  16.935  0.7390  0.4515 -0.1554
11682TIP3   OH256460   5.781   5.902   1.915 -0.2679 -0.1781 -0.2540
11682TIP3    H156461   5.867   5.916   1.877  0.2929 -0.1348  0.9766
11682TIP3    H256462   5.758   5.986   1.955 -0.6384 -0.3365 -0.1257
11683TIP3   OH256463   4.047   4.523   6.018  0.4086 -0.5735  0.1710
11683TIP3    H156464   4.057   4.530   5.923  2.9656 -0.1039  0.4172
11683TIP3    H256465   4.047   4.429   6.035  1.5371 -0.6474 -0.1802
11684TIP3   OH256466   1.121   6.100  14.492  0.5559  0.2034 -0.2833
11684TIP3    H156467   1.047   6.044  14.516 -1.8171  2.3665 -1.9310
11684TIP3    H256468   1.126   6.165  14.562 -0.9583  1.6136 -1.3887
11685TIP3   OH256469   6.262   2.032  15.539 -0.0465 -0.2330 -0.1049
11685TIP3    H156470   6.326   2.101  15.556 -0.7637  0.1354  1.2063
11685TIP3    H256471   6.187   2.078  15.503  0.2217 -0.6113 -1.2038
11686TIP3   OH256472   6.658   3.354  13.419 -0.3688  0.1969 -0.4234
11686TIP3    H156473   6.643   3.276  13.366  0.5368 -0.9486  0.9224
11686TIP3    H256474   6.736   3.333  13.470 -2.6426  0.0606  3.3832
11687TIP3   OH256475   4.875   5.288   5.736  0.1869 -0.3831 -0.0517
11687TIP3    H156476   4.937   5.331   5.678  1.9974 -1.7428  0.7700
11687TIP3    H256477   4.879   5.337   5.818  0.1071 -0.4218 -0.0239
11688TIP3   OH256478   5.002   1.486   5.574  0.3670 -0.4179 -0.0853
11688TIP3    H156479   4.934   1.460   5.636 -0.5426 -1.0168 -1.2950
11688TIP3    H256480   5.076   1.511   5.629 -0.1142 -1.7277  1.2154
11689TIP3   OH256481   4.545   2.039  13.899 -0.4897  0.0589  0.4760
11689TIP3    H156482   4.496   2.032  13.980 -1.5214  1.6009  0.0191
11689TIP3    H256483   4.564   1.949  13.874  0.4290 -0.4328  2.7411
11690TIP3   OH256484   5.469   3.160   0.960 -0.1603  0.4420  0.1346
11690TIP3    H156485   5.553   3.177   1.003 -0.0684 -0.0149  0.1352
11690TIP3    H256486   5.405   3.208   1.013  0.0750  0.6550  0.2293
11691TIP3   OH256487   4.972   4.786  12.845 -0.0791  0.4895 -0.3396
11691TIP3    H156488   5.044   4.750  12.897  0.1514  0.6509 -0.5436
11691TIP3    H256489   4.902   4.721  12.852  0.1318  0.2737 -0.2407
11692TIP3   OH256490   1.211   4.715   2.951  0.7241 -0.1403 -0.3287
11692TIP3    H156491   1.287   4.761   2.914  1.4719 -1.3368 -0.3488
11692TIP3    H256492   1.219   4.626   2.919 -0.0168 -0.5874  0.6706
11693TIP3   OH256493   2.423   1.727   1.759  0.0878 -0.0606 -0.0107
11693TIP3    H156494   2.499   1.669   1.756  0.2603  0.1307  0.4627
11693TIP3    H256495   2.371   1.704   1.682 -0.5294 -1.7528  0.8650
11694TIP3   OH256496   0.699   6.645  15.726 -0.1064  0.1375 -0.3549
11694TIP3    H156497   0.751   6.565  15.727  0.5827  0.5665 -1.1541
11694TIP3    H256498   0.714   6.684  15.813 -0.0362 -0.3311 -0.1525
11695TIP3   OH256499   5.423   2.038   2.642  0.0753 -0.3661  0.4215
11695TIP3    H156500   5.351   2.020   2.702 -1.1845 -0.4387 -1.0747
11695TIP3    H256501   5.396   2.000   2.559  0.5205  2.1025 -0.9526
11696TIP3   OH256502   6.495   5.261  16.905 -0.2799 -0.3030  0.7603
11696TIP3    H156503   6.434   5.272  16.978  0.0948  2.6088  0.7366
11696TIP3    H256504   6.466   5.180  16.862 -3.3956  0.3015  1.4638
11697TIP3   OH256505   4.336   2.492  14.210 -0.5442  0.1222 -0.1567
11697TIP3    H156506   4.318   2.461  14.299 -3.2581 -2.5636 -1.4502
11697TIP3    H256507   4.401   2.430  14.177  0.0504  0.7811 -0.2209
11698TIP3   OH256508   5.879   1.421  11.376 -0.1337  0.1077  0.4435
11698TIP3    H156509   5.924   1.357  11.321 -1.0980  0.6982 -1.0993
11698TIP3    H256510   5.924   1.504  11.360  0.3738  0.0644  1.5432
11699TIP3   OH256511   2.305   2.736  10.727 -0.3291 -0.4354  0.4494
11699TIP3    H156512   2.334   2.660  10.676 -0.0328 -0.7412  1.0605
11699TIP3    H256513   2.210   2.723  10.736 -0.2926 -0.6851  0.4791
11700TIP3   OH256514   1.748   0.376   4.230 -0.3006  0.6808  0.2214
11700TIP3    H156515   1.794   0.457   4.253  0.1227  0.7873 -0.9635
11700TIP3    H256516   1.812   0.325   4.180 -0.7871 -0.0984  0.3784
11701TIP3   OH256517   0.442   5.935  12.173 -0.0092  0.1550  0.0379
11701TIP3    H156518   0.522   5.919  12.124 -0.1651 -1.4564  0.2396
11701TIP3    H256519   0.458   5.896  12.259 -0.9539 -0.1320  0.1039
11702TIP3   OH256520   1.785   2.669   0.381  0.0014  0.0518 -0.6316
11702TIP3    H156521   1.818   2.757   0.404 -0.4068 -0.0393  0.3651
11702TIP3    H256522   1.692   2.672   0.404 -1.1981  0.7909 -4.8313
11703TIP3   OH256523   1.529   6.513  15.170  0.4592  0.0662 -0.2934
11703TIP3    H156524   1.448   6.476  15.135 -0.9631  1.9817  0.7762
11703TIP3    H256525   1.551   6.584  15.108 -0.5200  1.6385  1.0762
11704TIP3   OH256526   2.053   6.691   5.503  0.6242 -0.0733 -0.0689
11704TIP3    H156527   1.972   6.666   5.548  0.5535 -1.6782 -1.0277
11704TIP3    H256528   2.068   6.782   5.529 -1.9515  0.5571 -0.5275
11705TIP3   OH256529   6.556   1.897   3.119  0.4900 -0.4469  0.4394
11705TIP3    H156530   6.557   1.972   3.179 -0.3233 -2.3933  3.0816
11705TIP3    H256531   6.478   1.847   3.144  0.3283 -1.5600 -2.0594
11706TIP3   OH256532   1.149   6.518  15.827 -0.0460  0.0345  0.2686
11706TIP3    H156533   1.138   6.523  15.732 -0.7359  1.9103  0.4045
11706TIP3    H256534   1.236   6.480  15.838 -0.9611 -2.7209 -1.0234
11707TIP3   OH256535   3.384   3.411   4.172 -0.2283  0.0237 -0.2701
11707TIP3    H156536   3.442   3.400   4.097 -0.4198  0.2690 -0.4531
11707TIP3    H256537   3.423   3.483   4.222  0.0506 -0.3195  0.0099
11708TIP3   OH256538   6.626   5.487   4.655  0.0820 -0.4041 -0.7050
11708TIP3    H156539   6.653   5.574   4.626  1.7267 -0.4553  0.5250
11708TIP3    H256540   6.544   5.502   4.702 -0.4600  0.2289 -1.7916
11709TIP3   OH256541   2.887   4.516   4.183 -0.0260  0.3527  0.1939
11709TIP3    H156542   2.950   4.457   4.223  0.8719  1.1906  0.0450
11709TIP3    H256543   2.850   4.466   4.109 -1.7726 -1.2473  2.0177
11710TIP3   OH256544   5.685   5.263  11.757 -0.0123  0.3201 -0.8082
11710TIP3    H156545   5.665   5.182  11.710  0.7201 -0.3992  0.0823
11710TIP3    H256546   5.605   5.315  11.749 -0.6829 -0.6971 -0.9544
11711TIP3   OH256547   2.105   0.467  11.220 -0.5222  0.1824 -0.5480
11711TIP3    H156548   2.126   0.560  11.218  4.6266 -0.6075  0.5011
11711TIP3    H256549   2.061   0.454  11.305  0.5083  1.4548  0.2220
11712TIP3   OH256550   1.952   1.229   4.472  0.3053  0.2505 -0.1341
11712TIP3    H156551   1.868   1.194   4.503 -0.6295  0.9462 -1.7359
11712TIP3    H256552   1.989   1.159   4.419  0.6029  0.0553  0.3264
11713TIP3   OH256553   1.677   2.655   1.985 -0.1235  0.1106  0.7560
11713TIP3    H156554   1.621   2.578   1.983 -1.1386  0.8486 -0.5432
11713TIP3    H256555   1.677   2.683   2.077 -2.4557  0.4690  0.7002
11714TIP3   OH256556   3.530   0.665  15.466 -0.8355 -0.0858 -1.0647
11714TIP3    H156557   3.618   0.701  15.476  0.3338 -2.2315 -2.8902
11714TIP3    H256558   3.496   0.706  15.387 -1.5914  0.8436 -0.2888
11715TIP3   OH256559   4.362   2.891  15.534  0.1508 -0.3514 -0.1129
11715TIP3    H156560   4.302   2.857  15.600 -0.1646  0.6132  0.1205
11715TIP3    H256561   4.443   2.841  15.546 -0.9380 -2.5114 -1.2118
11716TIP3   OH256562   5.051   2.280   4.549 -0.5334  0.0720  0.0480
11716TIP3    H156563   4.957   2.265   4.546 -0.5867  0.5205 -1.3239
11716TIP3    H256564   5.061   2.372   4.572 -0.3970 -0.1686  0.9908
11717TIP3   OH256565   1.244   4.883   4.407 -0.1923 -0.2090  0.3081
11717TIP3    H156566   1.207   4.795   4.411 -0.2004 -0.2044  0.3413
11717TIP3    H256567   1.182   4.933   4.354  0.3827 -0.5055 -0.6824
11718TIP3   OH256568   0.462   2.944   0.871  0.0086 -0.0821 -0.1237
11718TIP3    H156569   0.463   3.016   0.934  1.1401  2.1102 -2.5060
11718TIP3    H256570   0.537   2.889   0.898  0.4823  0.8145  0.4472
11719TIP3   OH256571   2.513   4.787   0.288 -0.1735  0.1648  0.0632
11719TIP3    H156572   2.567   4.772   0.365 -0.5715 -0.8779  0.1551
11719TIP3    H256573   2.426   4.805   0.322 -0.2833  0.0208 -0.1401
11720TIP3   OH256574   4.737   5.491  13.923 -0.5250  0.3323 -0.4456
11720TIP3    H156575   4.692   5.452  13.998 -0.0387 -1.3047 -0.9663
11720TIP3    H256576   4.820   5.523  13.958 -0.6895  0.4034 -0.1162
11721TIP3   OH256577   4.189   1.946  17.105 -0.0536  0.4394  0.1314
11721TIP3    H156578   4.217   1.902  17.025  0.2652  0.0100  0.4754
11721TIP3    H256579   4.172   1.875  17.167 -0.8886  0.7337  0.2638
11722TIP3   OH256580   2.656   2.036   2.828  0.3899  0.2109 -0.3959
11722TIP3    H156581   2.627   2.092   2.756  2.1834  0.3618 -1.0582
11722TIP3    H256582   2.595   1.962   2.827 -1.0741  1.3745 -0.5024
11723TIP3   OH256583   5.775   3.591  11.760  0.3410 -0.5979 -0.0020
11723TIP3    H156584   5.705   3.533  11.731  0.6643 -1.0234  0.0566
11723TIP3    H256585   5.839   3.588  11.688  0.1515  0.0356 -0.1974
11724TIP3   OH256586   4.849   3.413  12.269 -0.3167 -0.1428 -0.5694
11724TIP3    H156587   4.864   3.397  12.176 -1.7024 -0.3407 -0.7844
11724TIP3    H256588   4.837   3.508  12.276  1.5266  0.1097 -0.2907
11725TIP3   OH256589   5.002   0.945   0.664  0.7959  0.8292 -0.5480
11725TIP3    H156590   5.088   0.904   0.657  0.6231  0.6213 -1.6499
11725TIP3    H256591   5.018   1.029   0.707  1.3164  0.1311  0.6847
11726TIP3   OH256592   5.787   6.278   0.280  0.4291  0.0701  0.0319
11726TIP3    H156593   5.695   6.266   0.257  0.7824 -0.2997 -1.2889
11726TIP3    H256594   5.830   6.198   0.250  0.8737 -0.8043  2.6947
11727TIP3   OH256595   5.417   4.330  15.385  0.2122 -0.5738 -0.0857
11727TIP3    H156596   5.386   4.414  15.419  1.2963  0.3327 -1.1943
11727TIP3    H256597   5.396   4.333  15.291  2.6800 -0.2859 -0.7077
11728TIP3   OH256598   5.405   5.133  12.478  0.2110  0.7189 -0.3280
11728TIP3    H156599   5.446   5.162  12.396 -0.9758 -0.5013 -1.4000
11728TIP3    H256600   5.434   5.043  12.489  1.9473  1.4379  1.7044
11729TIP3   OH256601   0.871   5.647   0.095 -0.8406  0.1554  0.2066
11729TIP3    H156602   0.880   5.588   0.170  1.4059  0.4523  0.2601
11729TIP3    H256603   0.796   5.614   0.046 -0.7532 -1.6310  1.1980
11730TIP3   OH256604   0.526   6.479   4.463 -0.1653 -0.2736  0.1744
11730TIP3    H156605   0.504   6.410   4.526  2.1344 -2.0638 -0.8496
11730TIP3    H256606   0.618   6.463   4.441  0.5068  3.1796 -0.1133
11731TIP3   OH256607   2.082   5.473   1.535  0.3864  0.0097  0.3424
11731TIP3    H156608   2.098   5.386   1.570  0.8117 -0.0110  0.1011
11731TIP3    H256609   2.139   5.531   1.586 -0.1348  0.1965  0.7237
11732TIP3   OH256610   3.472   4.925   2.714 -0.0157  0.2906  0.3143
11732TIP3    H156611   3.419   4.971   2.649 -0.4115  0.8367  1.0072
11732TIP3    H256612   3.477   4.985   2.789 -3.2277 -1.8815  2.5664
11733TIP3   OH256613   5.313   1.803  16.764  0.4709  0.2574  0.1013
11733TIP3    H156614   5.335   1.803  16.670  1.2410 -1.0547  0.2460
11733TIP3    H256615   5.242   1.739  16.772  0.2235  0.5663  0.3756
11734TIP3   OH256616   0.094   0.957   2.295 -0.1368  0.0469 -0.2884
11734TIP3    H156617   0.162   0.977   2.231 -0.2852  1.5499 -0.0243
11734TIP3    H256618   0.017   0.934   2.242  0.4323 -1.2325 -0.5900
11735TIP3   OH256619   5.368   4.709   2.427  0.3246  0.0779 -0.2218
11735TIP3    H156620   5.399   4.685   2.514 -2.4946  0.0122  0.8451
11735TIP3    H256621   5.371   4.805   2.426 -0.2225  0.1041  0.2057
11736TIP3   OH256622   4.766   0.040  17.015  0.2457  0.1543 -0.0435
11736TIP3    H156623   4.696  -0.002  17.065  0.3285 -0.2969 -0.3042
11736TIP3    H256624   4.729   0.125  16.990 -0.6783 -0.5551 -1.2112
11737TIP3   OH256625   4.448   2.363  15.162  0.3175  0.2718 -0.3601
11737TIP3    H156626   4.473   2.400  15.078  0.6866 -0.1609 -0.4493
11737TIP3    H256627   4.440   2.269  15.146 -0.3480  0.2702 -0.0838
11738TIP3   OH256628   4.447   5.094  17.001  0.3881 -0.0296 -0.1323
11738TIP3    H156629   4.504   5.052  16.937 -0.2671 -1.3005  0.0875
11738TIP3    H256630   4.455   5.188  16.982  1.7235 -0.2466 -0.7764
11739TIP3   OH256631   4.092   0.915   0.419 -0.0361  0.3293 -0.0061
11739TIP3    H156632   4.074   0.969   0.496  0.0909  1.7595 -0.9355
11739TIP3    H256633   4.181   0.883   0.433 -0.1241  0.3166  0.5761
11740TIP3   OH256634   3.602   1.357   4.738 -0.1784 -0.0207 -0.4557
11740TIP3    H156635   3.637   1.440   4.707 -1.1121 -0.0964 -1.8221
11740TIP3    H256636   3.666   1.292   4.711 -0.1758  0.0985 -0.7404
11741TIP3   OH256637   3.052   2.605  12.252 -0.4153 -0.5841  0.6700
11741TIP3    H156638   3.076   2.512  12.242 -1.5061 -0.8173 -0.0201
11741TIP3    H256639   3.000   2.607  12.332 -1.3592 -0.8038  0.0893
11742TIP3   OH256640   2.744   4.962   2.118 -0.3224  0.5735 -0.1604
11742TIP3    H156641   2.817   4.901   2.129  0.1428  1.3173  1.0834
11742TIP3    H256642   2.780   5.036   2.070 -0.4902  0.5401 -0.3386
11743TIP3   OH256643   6.044   2.686  13.280 -0.1769 -0.4383  0.4801
11743TIP3    H156644   5.981   2.615  13.281 -0.3222 -0.3067  1.1588
11743TIP3    H256645   6.007   2.750  13.220  0.7461 -1.6209 -1.4506
11744TIP3   OH256646   6.606   1.077   1.799  0.5669 -0.1613  0.0383
11744TIP3    H156647   6.546   1.032   1.858 -0.9737  3.0567  1.1832
11744TIP3    H256648   6.584   1.043   1.712 -1.6815 -0.4604  0.6505
11745TIP3   OH256649   2.844   3.712  13.576  0.3367  0.8062  0.2759
11745TIP3    H156650   2.756   3.673  13.579  0.5096  0.4760  1.5635
11745TIP3    H256651   2.895   3.661  13.638  0.9894  2.0898  0.8258
11746TIP3   OH256652   2.210   4.346   1.110 -0.0380  0.2545 -0.0436
11746TIP3    H156653   2.273   4.344   1.182 -1.2187  2.1118  1.1524
11746TIP3    H256654   2.164   4.262   1.116  1.2138 -0.4475  0.0682
11747TIP3   OH256655   5.627   6.428   4.526 -0.0160 -0.1610  0.3411
11747TIP3    H156656   5.561   6.487   4.489  0.0173 -0.8754 -0.9355
11747TIP3    H256657   5.676   6.397   4.450  0.5176 -1.1597  1.0703
11748TIP3   OH256658   3.905   4.636   0.703  0.3113  0.6973 -0.0965
11748TIP3    H156659   3.986   4.660   0.748 -0.0178 -1.8076  2.0761
11748TIP3    H256660   3.933   4.612   0.615  1.7712  0.8640  0.2923
11749TIP3   OH256661   1.904   2.050   0.193 -0.0868 -0.5812 -0.3054
11749TIP3    H156662   1.860   2.086   0.270 -1.2043 -0.5614 -0.9322
11749TIP3    H256663   1.993   2.082   0.199 -0.1689 -0.5587  0.9679
11750TIP3   OH256664   3.108   2.085  14.072  0.0034  0.3084 -0.0733
11750TIP3    H156665   3.040   2.151  14.060  1.3723  1.8097  0.0274
11750TIP3    H256666   3.184   2.135  14.102  1.2761 -1.2312 -0.6124
11751TIP3   OH256667   4.416   6.038  15.005  0.2354  0.7767  0.1710
11751TIP3    H156668   4.399   6.097  15.079  0.5764  0.9682  0.0996
11751TIP3    H256669   4.475   5.971  15.042 -0.1043  0.5108  0.2365
11752TIP3   OH256670   4.392   4.223  14.282  1.1903 -0.2155 -0.0682
11752TIP3    H156671   4.397   4.153  14.347 -1.6323 -1.4508 -1.0278
11752TIP3    H256672   4.470   4.211  14.228  2.0954 -0.9553  1.3415
11753TIP3   OH256673   0.832   3.376  15.425  0.0434 -0.8718 -0.1234
11753TIP3    H156674   0.810   3.449  15.483  0.7672 -0.9007  0.2007
11753TIP3    H256675   0.883   3.316  15.480  1.2144 -0.6374 -0.9177
11754TIP3   OH256676   6.023   2.273  17.232  0.2013 -0.0560  0.2126
11754TIP3    H156677   6.065   2.260  17.147  0.7486 -2.4812  0.7601
11754TIP3    H256678   5.959   2.341  17.217 -0.0712 -0.7539 -2.2941
11755TIP3   OH256679   4.548   6.625  13.949  0.2394  0.1521 -0.0432
11755TIP3    H156680   4.638   6.657  13.945  0.1095  0.5527  0.1744
11755TIP3    H256681   4.512   6.664  14.028 -0.0734 -0.1475 -0.0357
11756TIP3   OH256682   4.554   3.088  11.504 -0.0172 -0.0817 -0.4419
11756TIP3    H156683   4.470   3.096  11.550  0.0272 -1.7239 -0.0095
11756TIP3    H256684   4.533   3.109  11.413 -0.7556  0.1677 -0.2263
11757TIP3   OH256685   1.804   1.652   3.429 -0.0304  0.5480 -0.6941
11757TIP3    H156686   1.773   1.647   3.339  2.7918  0.7112 -1.7794
11757TIP3    H256687   1.891   1.613   3.426  0.4672  1.3219  1.8123
11758TIP3   OH256688   0.634   1.949   4.335 -0.0238  0.0801  0.0732
11758TIP3    H156689   0.628   1.854   4.347  1.0933 -0.3424 -2.0750
11758TIP3    H256690   0.706   1.960   4.272  2.1284  2.5870  2.6736
11759TIP3   OH256691   3.711   2.729   1.988 -0.3384 -0.0548 -0.2071
11759TIP3    H156692   3.705   2.809   2.040 -1.2901 -0.3799  0.2123
11759TIP3    H256693   3.707   2.658   2.052 -0.3399 -0.4474 -0.6369
11760TIP3   OH256694   6.530   4.917  15.172  0.4188 -0.0789 -0.3429
11760TIP3    H156695   6.570   4.859  15.236 -1.5906  0.1025  1.1907
11760TIP3    H256696   6.584   4.908  15.093  1.0616 -2.8356  0.3246
11761TIP3   OH256697   1.240   0.567   5.784 -0.1886  0.0477  0.4833
11761TIP3    H156698   1.212   0.638   5.726 -4.5148 -1.3501  0.5682
11761TIP3    H256699   1.316   0.603   5.829 -0.4659  3.5551 -1.4656
11762TIP3   OH256700   1.724   0.370  12.550 -0.0409  0.3309 -0.1103
11762TIP3    H156701   1.638   0.335  12.528 -0.7238  1.4143  0.7534
11762TIP3    H256702   1.761   0.307  12.612  0.2976 -0.7312 -1.3314
11763TIP3   OH256703   6.747   4.195  14.887  0.8289  0.9194 -0.2701
11763TIP3    H156704   6.787   4.109  14.871 -0.1144  0.4202 -0.0556
11763TIP3    H256705   6.710   4.188  14.975 -0.4005  1.0707 -0.7487
11764TIP3   OH256706   0.918   3.655   1.538  0.3650 -0.6788 -0.6646
11764TIP3    H156707   0.888   3.711   1.467 -2.1187 -1.3054 -0.2048
11764TIP3    H256708   0.938   3.571   1.496 -0.7419 -0.9364 -0.7012
11765TIP3   OH256709   2.509   2.624   1.259  0.1034  0.0368 -0.1082
11765TIP3    H156710   2.574   2.692   1.273  0.0849  0.1207 -0.4241
11765TIP3    H256711   2.505   2.577   1.343  0.6766 -0.0652 -0.1304
11766TIP3   OH256712   6.319   1.479   4.250  0.0331 -0.2790 -0.0847
11766TIP3    H156713   6.381   1.410   4.271 -2.0691 -1.6953  2.0967
11766TIP3    H256714   6.283   1.454   4.165  1.9981  0.3002 -1.1371
11767TIP3   OH256715   2.238   2.877   4.685 -0.6647 -0.1227 -0.1167
11767TIP3    H156716   2.175   2.806   4.673  0.2888 -0.9623 -0.2913
11767TIP3    H256717   2.297   2.846   4.754 -1.4601  1.3939  1.3064
11768TIP3   OH256718   6.666   3.361   1.040  0.4322  0.1413 -0.6438
11768TIP3    H156719   6.617   3.320   1.112  0.5765  1.7008  0.3791
11768TIP3    H256720   6.616   3.337   0.962 -0.5019 -0.4598  0.1058
11769TIP3   OH256721   3.237   3.369  13.802 -0.6835  0.6196  0.1545
11769TIP3    H156722   3.254   3.305  13.733  0.2813  0.6559  0.3417
11769TIP3    H256723   3.315   3.425  13.802 -1.8510  2.3368 -0.5840
11770TIP3   OH256724   2.334   0.800  15.670 -0.5116  0.3408 -0.1020
11770TIP3    H156725   2.343   0.751  15.752 -1.0579  1.1131  0.4340
11770TIP3    H256726   2.418   0.844  15.659 -0.7304  0.9394  0.5254
11771TIP3   OH256727   2.254   6.637  11.499 -0.8988 -0.3586 -0.2950
11771TIP3    H156728   2.260   6.704  11.567  0.7402 -0.0401 -0.7157
11771TIP3    H256729   2.246   6.687  11.417 -2.0894 -0.7329 -0.4287
11772TIP3   OH256730   5.852   3.011  16.830 -0.2076  0.0476 -0.3845
11772TIP3    H156731   5.784   3.062  16.873 -1.0754  1.3538 -3.0959
11772TIP3    H256732   5.920   3.075  16.806  1.3461 -1.0029  0.9384
11773TIP3   OH256733   0.481   2.774   1.869 -0.5981 -0.1002  0.3849
11773TIP3    H156734   0.547   2.747   1.804  1.2422 -0.0747  2.1496
11773TIP3    H256735   0.455   2.862   1.841  0.0947 -0.1181 -0.3694
11774TIP3   OH256736   5.147   4.895   3.130 -0.1042 -0.4443 -0.1293
11774TIP3    H156737   5.065   4.868   3.172  0.4173 -1.7137  0.1266
11774TIP3    H256738   5.189   4.813   3.105  1.0938  0.1875 -0.2561
11775TIP3   OH256739   5.111   4.166  13.233 -0.2304  0.0419  0.0095
11775TIP3    H156740   5.025   4.185  13.196 -0.9097  0.6168  1.7952
11775TIP3    H256741   5.148   4.251  13.255 -0.3835 -0.3203  1.7778
11776TIP3   OH256742   0.535   6.681   2.394 -0.0861 -0.0824 -0.0951
11776TIP3    H156743   0.607   6.637   2.440 -0.0674 -0.0613 -0.1041
11776TIP3    H256744   0.531   6.768   2.433 -0.5791 -0.3237  0.4070
11777TIP3   OH256745   2.099   1.306   6.013  0.2482 -0.1930  0.0777
11777TIP3    H156746   2.049   1.335   5.936  2.7223  1.0419 -1.1827
11777TIP3    H256747   2.134   1.221   5.989 -0.4250 -0.6268  0.5876
11778TIP3   OH256748   3.167   3.932   3.927 -0.6674 -0.6366  0.0493
11778TIP3    H156749   3.213   3.852   3.952  2.8033  1.1915  0.1542
11778TIP3    H256750   3.194   3.948   3.836 -2.3746 -0.2261 -0.4154
11779TIP3   OH256751   0.334   2.973  11.192  0.4055 -0.2388 -0.2831
11779TIP3    H156752   0.327   2.936  11.280 -1.2131  1.7634  0.4940
11779TIP3    H256753   0.310   2.900  11.134  3.2092 -2.1141  0.7182
11780TIP3   OH256754   2.494   0.130   4.178 -0.0766 -0.2570 -0.0219
11780TIP3    H156755   2.437   0.127   4.101 -2.3854  1.3089  1.4791
11780TIP3    H256756   2.555   0.057   4.166 -2.0567 -1.7268 -2.0299
11781TIP3   OH256757   5.004   1.290  14.138  0.4265 -0.1152  0.6722
11781TIP3    H156758   5.038   1.307  14.050  1.0870 -0.0372  0.9456
11781TIP3    H256759   4.910   1.274  14.124  0.6031 -0.5306 -0.0990
11782TIP3   OH256760   4.910   3.729  15.095 -0.9269  0.1410 -0.7768
11782TIP3    H156761   4.949   3.662  15.038  2.5448  1.5060 -0.2578
11782TIP3    H256762   4.927   3.698  15.184 -0.7672  0.9151 -0.5305
11783TIP3   OH256763   3.295   0.956   3.033  0.6873 -0.3829  0.3529
11783TIP3    H156764   3.305   1.030   2.972 -1.9741  0.0295  0.3180
11783TIP3    H256765   3.292   0.997   3.119 -1.8965 -0.2525  0.2630
11784TIP3   OH256766   3.117   0.512   3.413  0.1888 -0.1372 -0.4915
11784TIP3    H156767   3.145   0.489   3.324  0.2293 -0.8984 -0.2839
11784TIP3    H256768   3.035   0.465   3.426 -0.5857  1.1139 -0.6394
11785TIP3   OH256769   2.404   2.531   2.817 -0.1783  0.0379  0.6077
11785TIP3    H156770   2.331   2.506   2.873  1.0496  0.2908  2.4049
11785TIP3    H256771   2.464   2.456   2.819 -0.8922 -0.7023 -1.8896
11786TIP3   OH256772   2.910   6.274  13.153 -1.0198 -0.1105  0.2684
11786TIP3    H156773   2.978   6.250  13.216  1.7553  1.5668 -1.8458
11786TIP3    H256774   2.832   6.289  13.206  0.4024 -1.4616  2.9247
11787TIP3   OH256775   4.320   0.016  16.158 -0.5538 -0.1323 -0.2498
11787TIP3    H156776   4.312   0.069  16.078  0.3536  0.0130 -0.2542
11787TIP3    H256777   4.414   0.006  16.170 -0.6312  0.8563  1.4706
11788TIP3   OH256778   4.516   4.124   0.376 -0.5621  0.1250 -0.4468
11788TIP3    H156779   4.476   4.195   0.325 -1.8704  0.1217  0.5222
11788TIP3    H256780   4.475   4.044   0.342  0.8804 -0.1950 -1.5102
11789TIP3   OH256781   1.446   3.138  16.481  0.3207 -0.0212  0.4213
11789TIP3    H156782   1.463   3.199  16.553 -2.9650  2.6488 -0.8185
11789TIP3    H256783   1.394   3.068  16.521 -0.5873  0.9003  0.8931
11790TIP3   OH256784   4.018   0.568   1.984  0.4058  0.0218  0.3908
11790TIP3    H156785   4.048   0.498   1.926 -0.5849 -1.8552  2.0054
11790TIP3    H256786   4.098   0.613   2.012  1.0354 -0.2528 -0.9257
11791TIP3   OH256787   0.062   4.003   3.227  0.2491 -0.2551  0.1021
11791TIP3    H156788   0.046   4.010   3.133 -0.0475  1.6411  0.2636
11791TIP3    H256789   0.006   4.069   3.266  1.1395 -0.2962  1.5232
11792TIP3   OH256790   6.714   3.257  11.770 -0.3546 -0.0298  0.2538
11792TIP3    H156791   6.764   3.294  11.697 -1.2416 -0.7640 -0.7689
11792TIP3    H256792   6.727   3.319  11.842  0.7286  0.6008 -0.4478
11793TIP3   OH256793   0.179   5.653  17.056  0.4844 -0.1118 -0.3999
11793TIP3    H156794   0.256   5.597  17.069  1.4387  0.7861 -1.8689
11793TIP3    H256795   0.209   5.741  17.082  0.0403  0.2857 -1.1961
11794TIP3   OH256796   1.243   0.389  14.572 -0.0869  0.8061  1.1111
11794TIP3    H156797   1.339   0.389  14.565 -0.0044 -1.8761  1.3452
11794TIP3    H256798   1.225   0.373  14.665 -0.7026 -0.6195  0.7746
11795TIP3   OH256799   6.073   6.345  15.309 -0.3242 -0.2652  0.8704
11795TIP3    H156800   6.000   6.289  15.281 -0.2947 -0.0845  0.4202
11795TIP3    H256801   6.133   6.343  15.234 -1.4728  2.4023 -0.2342
11796TIP3   OH256802   4.415   3.145  13.082  0.2299  0.0570 -0.2833
11796TIP3    H156803   4.461   3.070  13.121  0.7274  0.7940  0.5766
11796TIP3    H256804   4.419   3.129  12.988  0.5583 -0.8606 -0.1278
11797TIP3   OH256805   0.110   5.367   0.005 -0.0100  0.7504 -0.1090
11797TIP3    H156806   0.123   5.462  -0.003 -0.3798  0.7902 -0.2885
11797TIP3    H256807   0.191   5.328  -0.026  0.1778  1.0122  0.0509
11798TIP3   OH256808   5.697   0.604   6.180  0.0627  0.4523 -1.4788
11798TIP3    H156809   5.645   0.535   6.138  1.0344 -0.3214 -1.4606
11798TIP3    H256810   5.636   0.677   6.190 -1.0308 -0.4314 -1.4086
11799TIP3   OH256811   2.877   5.416   2.171  0.2939  0.2030  0.3555
11799TIP3    H156812   2.851   5.400   2.081 -1.3139  0.4531  0.7487
11799TIP3    H256813   2.873   5.331   2.214  1.1761  0.0633  0.1743
11800TIP3   OH256814   4.112   4.951   5.044  0.0725 -0.6639 -0.3543
11800TIP3    H156815   4.020   4.977   5.037 -0.4474 -2.1632  0.5372
11800TIP3    H256816   4.134   4.918   4.958  0.4885  1.7425 -1.2578
11801TIP3   OH256817   2.791   1.057  13.685  0.4101 -0.2425  0.2414
11801TIP3    H156818   2.861   1.010  13.729  0.2580  2.0863  3.2808
11801TIP3    H256819   2.818   1.060  13.593  1.8469 -3.4620  0.4104
11802TIP3   OH256820   2.072   2.092   3.173 -0.1577  0.2385 -0.2186
11802TIP3    H156821   2.036   2.072   3.087  0.6249 -1.4794 -0.1842
11802TIP3    H256822   2.166   2.099   3.159  0.2226 -1.9573  0.7456
11803TIP3   OH256823   6.189   5.364  12.528  0.0979  0.3114 -0.1991
11803TIP3    H156824   6.249   5.431  12.494  0.3055 -0.2177 -0.9106
11803TIP3    H256825   6.222   5.282  12.491  0.4019 -0.3139  1.4030
11804TIP3   OH256826   0.006   5.186   2.101  0.0193 -0.7192 -0.2358
11804TIP3    H156827  -0.029   5.275   2.100  0.3229 -0.5840  0.6331
11804TIP3    H256828   0.095   5.195   2.066  0.2468 -0.5918  0.3707
11805TIP3   OH256829   5.486   1.589   1.365  0.0651  0.0760 -0.4024
11805TIP3    H156830   5.549   1.547   1.306  1.0299 -0.2072  0.8009
11805TIP3    H256831   5.517   1.680   1.372  1.3761 -0.4586  1.4908
11806TIP3   OH256832   1.147   3.974  12.061 -0.3415 -0.4339  0.2759
11806TIP3    H156833   1.103   3.977  12.145 -0.7218  0.8504  0.0514
11806TIP3    H256834   1.083   3.936  12.001  0.3762 -2.5894  0.7882
11807TIP3   OH256835   3.970   0.778   2.431  0.5798  0.2847  0.3710
11807TIP3    H156836   3.941   0.788   2.522  2.3904  0.6686  0.9491
11807TIP3    H256837   3.941   0.690   2.407  0.1062  0.1595  1.3321
11808TIP3   OH256838   0.383   4.475  11.586  0.1845  0.2301 -0.1051
11808TIP3    H156839   0.371   4.554  11.533  1.0764  0.8691  0.6150
11808TIP3    H256840   0.422   4.412  11.526 -1.1519  0.0915 -0.8689
11809TIP3   OH256841   1.669   3.547  11.389  0.1218 -0.2423  0.0091
11809TIP3    H156842   1.763   3.549  11.403  0.2145  2.3080 -0.4869
11809TIP3    H256843   1.635   3.621  11.440 -1.8332 -1.8892  1.2832
11810TIP3   OH256844   0.428   0.751  13.608  0.3588 -0.7941  0.3021
11810TIP3    H156845   0.380   0.726  13.687 -1.5605 -1.4326 -0.9841
11810TIP3    H256846   0.360   0.786  13.549  1.5188 -1.4779 -1.5276
11811TIP3   OH256847   1.615   1.888   3.291 -0.2339 -0.0119  0.3726
11811TIP3    H156848   1.677   1.907   3.220  0.8017  2.4241  1.7920
11811TIP3    H256849   1.647   1.807   3.330  1.0865  0.3175  0.0298
11812TIP3   OH256850   0.804   2.672   4.178 -0.1502 -0.1192 -0.1519
11812TIP3    H156851   0.882   2.626   4.205 -0.9528 -1.4906 -0.0699
11812TIP3    H256852   0.770   2.713   4.257 -0.6472 -1.2930  0.2631
11813TIP3   OH256853   0.891   1.961   2.657 -0.0647  0.1035  0.7415
11813TIP3    H156854   0.851   2.010   2.585 -0.5563  2.0492  2.2533
11813TIP3    H256855   0.972   1.926   2.620 -1.4076 -0.9749 -1.3914
11814TIP3   OH256856   3.276   3.369   4.545  0.4594  0.4546 -0.2577
11814TIP3    H156857   3.261   3.366   4.639 -0.3139 -0.2101 -0.3973
11814TIP3    H256858   3.251   3.458   4.519 -0.4065  0.2821 -0.0139
11815TIP3   OH256859   1.190   2.699   0.883 -0.2111 -0.2838  0.2566
11815TIP3    H156860   1.222   2.667   0.967  0.4158 -0.2730  0.0282
11815TIP3    H256861   1.185   2.794   0.893 -2.5756 -0.4304  1.1099
11816TIP3   OH256862   3.702   4.026   5.977  0.0859 -0.3096 -0.3869
11816TIP3    H156863   3.714   4.105   6.029  1.9137 -0.9660  0.2545
11816TIP3    H256864   3.613   4.035   5.941 -0.4492  1.1448  1.1357
11817TIP3   OH256865   5.294   0.264   3.449 -0.5203 -0.6480  0.2723
11817TIP3    H156866   5.373   0.286   3.400 -0.3852 -1.4685  0.1059
11817TIP3    H256867   5.225   0.316   3.409 -0.7932 -2.6052 -2.0278
11818TIP3   OH256868   6.136   6.256   4.053 -0.1525  0.6436 -0.1073
11818TIP3    H156869   6.202   6.270   3.985  0.0107 -0.5710 -0.2215
11818TIP3    H256870   6.184   6.263   4.135  0.0223  0.2304 -0.1755
11819TIP3   OH256871   1.179   0.477  16.451 -0.0175  0.1672 -0.9294
11819TIP3    H156872   1.146   0.555  16.497 -0.7947 -0.5078 -0.3066
11819TIP3    H256873   1.270   0.470  16.478 -0.1562  0.4193 -0.3669
11820TIP3   OH256874   4.412   4.540  16.823  0.0682  0.6601 -0.0431
11820TIP3    H156875   4.432   4.633  16.838 -0.0989  0.5955  0.6260
11820TIP3    H256876   4.322   4.540  16.791  0.6451  0.8502 -1.7569
11821TIP3   OH256877   5.472   1.164   1.786  0.0745 -0.4194 -0.4797
11821TIP3    H156878   5.456   1.104   1.714  0.7538 -0.5601 -0.5223
11821TIP3    H256879   5.537   1.120   1.840  0.8568  0.4215 -0.7025
11822TIP3   OH256880   5.240   6.276   2.050  0.1699 -0.4763  0.4077
11822TIP3    H156881   5.194   6.255   1.969 -0.2214  0.9116  0.2394
11822TIP3    H256882   5.330   6.295   2.022 -0.7801  3.9247 -0.4273
11823TIP3   OH256883   1.810   1.100   6.113  0.4283 -0.0523  0.1076
11823TIP3    H156884   1.728   1.052   6.116 -0.1163  0.8224 -0.3900
11823TIP3    H256885   1.822   1.134   6.202 -0.2584  0.6434 -0.0604
11824TIP3   OH256886   4.226   0.200   4.896 -0.4241  0.2993 -0.2078
11824TIP3    H156887   4.157   0.230   4.837 -0.2459 -0.6415 -0.9123
11824TIP3    H256888   4.268   0.128   4.849  0.3039  0.1224  0.6933
11825TIP3   OH256889   4.071   4.344  17.125  0.0266 -0.4653  0.5969
11825TIP3    H156890   4.135   4.308  17.063  2.3350  1.0687  1.9224
11825TIP3    H256891   4.089   4.439  17.124 -1.9206 -0.0475  1.4232
11826TIP3   OH256892   3.674   3.223  17.113  0.7388 -0.3641 -0.1513
11826TIP3    H156893   3.766   3.229  17.086  1.5124 -1.1248  2.0910
11826TIP3    H256894   3.675   3.164  17.189 -1.6440 -0.5443 -0.1847
11827TIP3   OH256895   4.977   6.632  11.926 -0.3854  0.1438 -0.8242
11827TIP3    H156896   5.028   6.633  12.007  0.3793  1.1807 -1.2975
11827TIP3    H256897   5.042   6.623  11.857 -0.8582  1.1895 -1.4242
11828TIP3   OH256898   4.243   5.964  15.390 -0.6666  0.0918  0.1220
11828TIP3    H156899   4.290   5.998  15.466 -0.0349 -0.9609  0.2204
11828TIP3    H256900   4.259   5.870  15.391 -1.6785 -0.1117 -0.6167
11829TIP3   OH256901   4.931   0.287  11.112  0.4864  0.5084 -0.0290
11829TIP3    H156902   5.022   0.267  11.088  0.5148  1.6652 -0.9745
11829TIP3    H256903   4.924   0.260  11.203  1.2991 -1.1119 -0.4129
11830TIP3   OH256904   4.695   6.041   3.229  0.0628 -0.2394 -0.7843
11830TIP3    H156905   4.723   5.985   3.302 -1.7157 -1.0027 -0.6397
11830TIP3    H256906   4.642   5.984   3.174  0.4063  0.6434 -2.0811
11831TIP3   OH256907   4.777   1.527   3.021 -0.1496  0.4215  0.2937
11831TIP3    H156908   4.848   1.470   2.993 -0.2849  0.0373  0.7078
11831TIP3    H256909   4.698   1.487   2.984 -0.2479  0.3103  0.6135
11832TIP3   OH256910   1.489   3.673   3.981  0.1515 -0.0354  0.3166
11832TIP3    H156911   1.456   3.585   4.001 -0.8736  0.8147  2.6547
11832TIP3    H256912   1.420   3.712   3.927 -1.4029  0.6884  2.6936
11833TIP3   OH256913   4.532   3.395   1.341  0.8672 -1.2817 -0.1492
11833TIP3    H156914   4.505   3.373   1.252  0.0348  0.6637 -0.4229
11833TIP3    H256915   4.501   3.321   1.394 -0.7019 -1.3933 -1.1569
11834TIP3   OH256916   2.177   1.848   4.210  0.5280  0.1180 -0.2432
11834TIP3    H156917   2.143   1.759   4.208  0.1206  0.2481  0.3963
11834TIP3    H256918   2.166   1.880   4.121 -0.4146 -0.0783 -0.2088
11835TIP3   OH256919   2.796   2.402   1.175 -0.2498  0.0616  0.0466
11835TIP3    H156920   2.706   2.402   1.145  0.0985 -0.8035 -1.0468
11835TIP3    H256921   2.822   2.494   1.172 -0.9567  0.2655 -0.0122
11836TIP3   OH256922   5.300   2.537  16.192  0.0867  0.2040  0.3528
11836TIP3    H156923   5.232   2.583  16.242  0.0384  0.6697 -0.1404
11836TIP3    H256924   5.319   2.458  16.244  0.4698  0.9813  1.4297
11837TIP3   OH256925   4.906   4.358  13.762  0.2706  0.2531 -0.0140
11837TIP3    H156926   4.810   4.368  13.765  0.1179 -1.1986  1.6321
11837TIP3    H256927   4.924   4.287  13.823  2.3310 -0.2464 -1.1306
11838TIP3   OH256928   6.397   2.707   0.029 -0.0198 -0.2737 -0.3180
11838TIP3    H156929   6.303   2.693   0.021 -0.3056  0.1836  1.7814
11838TIP3    H256930   6.409   2.801   0.017 -0.2387  0.1351  2.1694
11839TIP3   OH256931   3.201   4.608   2.972 -0.5691 -0.0187 -0.1670
11839TIP3    H156932   3.249   4.632   3.052 -2.8523  0.5577  1.1162
11839TIP3    H256933   3.152   4.530   2.996 -0.8042 -0.2104 -1.2324
11840TIP3   OH256934   2.544   3.446   0.020 -0.4933  0.0793  0.1316
11840TIP3    H156935   2.484   3.380  -0.014 -1.1266  0.8929 -0.3559
11840TIP3    H256936   2.502   3.480   0.099 -0.7770  0.7755 -0.3072
11841TIP3   OH256937   6.717   5.672   3.901  0.1868  0.2372  0.3750
11841TIP3    H156938   6.708   5.588   3.946  0.6480  0.1812  0.3674
11841TIP3    H256939   6.748   5.732   3.969  2.8493 -0.2928 -0.2655
11842TIP3   OH256940   0.918   1.856   1.480 -0.9131  0.9870  0.0893
11842TIP3    H156941   0.845   1.833   1.423  0.2010 -0.2747 -0.9240
11842TIP3    H256942   0.934   1.777   1.531  0.1299  1.0032 -0.1757
11843TIP3   OH256943   6.673   0.255   2.847  0.3213 -0.6791  0.5916
11843TIP3    H156944   6.757   0.295   2.868  0.0709 -0.6041  1.4646
11843TIP3    H256945   6.684   0.163   2.872 -0.2177 -0.4381  1.7626
11844TIP3   OH256946   4.903   4.730  11.672 -0.4295 -0.1646 -0.1281
11844TIP3    H156947   4.971   4.744  11.606 -0.4162  0.9734  0.1058
11844TIP3    H256948   4.949   4.693  11.747  0.0965  1.2328  0.2811
11845TIP3   OH256949   0.870   5.397   2.980 -0.2227 -0.1315 -0.4917
11845TIP3    H156950   0.792   5.382   3.032  0.8175 -2.4657  0.5324
11845TIP3    H256951   0.934   5.434   3.041  0.5177 -1.4566 -0.4173
11846TIP3   OH256952   1.376   2.013  12.253 -0.6440  0.3227  0.5841
11846TIP3    H156953   1.381   1.924  12.218 -1.1291 -0.1986  1.7789
11846TIP3    H256954   1.459   2.053  12.228 -0.8187 -0.1379 -0.8084
11847TIP3   OH256955   6.262   6.486  16.385  0.4882  0.3541  0.7699
11847TIP3    H156956   6.357   6.480  16.373  0.2862  1.6603 -2.6557
11847TIP3    H256957   6.233   6.547  16.317 -2.8429 -0.0986  1.6094
11848TIP3   OH256958   2.639   3.959   1.701 -0.1085  0.0069 -0.2525
11848TIP3    H156959   2.721   3.997   1.670  0.6549 -2.1283 -1.0502
11848TIP3    H256960   2.593   3.933   1.621  0.0551 -1.9596  0.2492
11849TIP3   OH256961   1.655   4.532   5.718  0.1276 -0.0092 -0.0703
11849TIP3    H156962   1.633   4.503   5.630  0.2086  1.1921 -0.5053
11849TIP3    H256963   1.636   4.456   5.774  0.2163 -0.8279 -1.1264
11850TIP3   OH256964   0.221   1.195   2.084  0.0662  0.2064  0.6696
11850TIP3    H156965   0.180   1.259   2.143  1.2027  0.4952  1.1781
11850TIP3    H256966   0.276   1.142   2.142 -0.6754 -1.0930  0.2134
11851TIP3   OH256967   4.140   3.145   1.344 -0.4665  0.1709  0.1676
11851TIP3    H156968   4.077   3.109   1.406  1.1322  0.3330  1.9989
11851TIP3    H256969   4.201   3.073   1.328  1.2490  1.1781  1.7892
11852TIP3   OH256970   4.566   0.163   1.910 -0.3302  0.5446 -0.1110
11852TIP3    H156971   4.522   0.104   1.970  2.0552 -0.9176  0.3442
11852TIP3    H256972   4.633   0.207   1.963 -0.5079  1.9280 -0.9607
11853TIP3   OH256973   2.433   0.136  13.780  0.1351 -0.1214 -0.0328
11853TIP3    H156974   2.348   0.094  13.790  0.2723 -0.4172 -0.1000
11853TIP3    H256975   2.476   0.087  13.710  0.3871 -0.0176  0.0482
11854TIP3   OH256976   3.141   0.051  12.274  0.1536 -0.4590 -0.1249
11854TIP3    H156977   3.142   0.013  12.186 -0.8439 -1.0404  0.0965
11854TIP3    H256978   3.198  -0.006  12.326  1.7772  0.6251 -0.6631
11855TIP3   OH256979   4.539   6.643   1.722  0.1433  0.0086  0.0109
11855TIP3    H156980   4.586   6.669   1.642 -0.9030 -0.8421 -0.9190
11855TIP3    H256981   4.601   6.587   1.769  0.5764  0.0799 -0.4656
11856TIP3   OH256982   6.571   2.504   4.391 -0.7091 -0.4073 -0.1559
11856TIP3    H156983   6.652   2.494   4.341 -1.3486 -0.8694 -1.1352
11856TIP3    H256984   6.594   2.480   4.480 -0.1220 -2.0915 -0.7323
11857TIP3   OH256985   6.066   3.820  15.355 -0.8339 -0.3752  0.2061
11857TIP3    H156986   6.039   3.880  15.424 -0.9972  2.2337 -1.9555
11857TIP3    H256987   6.157   3.799  15.375  0.3798  3.3124 -0.5576
11858TIP3   OH256988   6.214   5.322   3.728  0.1280  0.4900 -0.7531
11858TIP3    H156989   6.265   5.270   3.790 -1.4874 -0.3355 -0.0519
11858TIP3    H256990   6.196   5.262   3.656  0.6221  0.9560 -1.2702
11859TIP3   OH256991   3.590   3.666  12.134  0.5751 -0.7324  0.5013
11859TIP3    H156992   3.572   3.654  12.041 -1.8252  2.2010  0.4305
11859TIP3    H256993   3.640   3.748  12.139 -0.2670 -0.2536  1.8222
11860TIP3   OH256994   4.240   5.204   2.223 -0.4145 -0.2360  0.2604
11860TIP3    H156995   4.273   5.129   2.274  0.6160  0.1880  0.2597
11860TIP3    H256996   4.264   5.183   2.133 -3.2583 -1.5268 -0.2960
11861TIP3   OH256997   0.045   6.706  15.769 -0.1679 -0.5790  0.7171
11861TIP3    H156998   0.131   6.691  15.731 -0.3672 -2.3715  0.8886
11861TIP3    H256999   0.010   6.782  15.722  1.7130  0.5345  1.0511
11862TIP3   OH257000   0.962   0.996  15.918  0.0600 -0.2702  0.5712
11862TIP3    H157001   0.933   0.998  15.827  1.7931 -1.7896 -0.0739
11862TIP3    H257002   0.982   0.904  15.935  3.4064  0.4735  1.2358
11863TIP3   OH257003   5.613   3.257   3.629 -0.1502 -0.3539  1.0685
11863TIP3    H157004   5.531   3.209   3.623  0.5021 -1.3145 -1.2476
11863TIP3    H257005   5.612   3.317   3.554  1.3799 -0.5891  0.8160
11864TIP3   OH257006   5.018   1.100   3.207  0.0944  0.6329  0.1035
11864TIP3    H157007   4.924   1.098   3.226 -0.3282 -0.3001 -1.8146
11864TIP3    H257008   5.053   1.022   3.251 -0.8215 -1.3698 -2.4559
11865TIP3   OH257009   1.427   1.458   1.220  0.0665 -0.3793 -0.1731
11865TIP3    H157010   1.332   1.468   1.214  0.1750  0.6583 -0.3447
11865TIP3    H257011   1.452   1.411   1.140 -0.4825 -2.2295  0.6927
11866TIP3   OH257012   1.856   1.020  14.229  0.6686 -0.6512  0.0879
11866TIP3    H157013   1.761   1.016  14.224  0.3774  1.2404  2.2209
11866TIP3    H257014   1.885   0.929  14.220 -1.4650 -1.4718  0.9216
11867TIP3   OH257015   6.473   6.205  12.729  0.0463 -0.4708  0.1052
11867TIP3    H157016   6.405   6.187  12.794 -0.6310  0.4415 -0.3216
11867TIP3    H257017   6.491   6.298  12.738 -1.8681  0.3117 -2.5947
11868TIP3   OH257018   4.160   1.519   6.841  0.1513 -0.5969  0.3681
11868TIP3    H157019   4.231   1.556   6.893 -1.7396  2.2824  1.2065
11868TIP3    H257020   4.146   1.432   6.877  2.4220 -0.7599  0.9713
11869TIP3   OH257021   3.796   4.289   0.906 -0.4468 -0.0598  0.5205
11869TIP3    H157022   3.818   4.351   0.976 -0.3080 -0.6366  0.9946
11869TIP3    H257023   3.771   4.345   0.832 -0.8103  0.5610  1.0916
11870TIP3   OH257024   5.514   1.145  11.862 -0.5483 -0.1424  0.1121
11870TIP3    H157025   5.423   1.120  11.845  0.0197 -1.7909 -0.8502
11870TIP3    H257026   5.561   1.062  11.861  1.1353  0.7783 -0.5846
11871TIP3   OH257027   4.312   6.334  11.469 -0.0868 -0.2468 -0.6546
11871TIP3    H157028   4.393   6.337  11.518  0.9056 -1.4706 -2.1260
11871TIP3    H257029   4.264   6.260  11.506 -0.3165  0.1413 -0.1531
11872TIP3   OH257030   6.618   1.638   4.253 -0.5149  0.3946 -0.2117
11872TIP3    H157031   6.700   1.590   4.241  0.4066  2.0046 -0.7401
11872TIP3    H257032   6.593   1.619   4.343  1.6561  1.5878  0.7203
11873TIP3   OH257033   3.230   1.353   0.514 -0.2184 -0.0036  0.3003
11873TIP3    H157034   3.147   1.388   0.481 -0.0222 -0.9642 -1.3161
11873TIP3    H257035   3.206   1.271   0.557 -0.0915 -0.4360 -0.4360
11874TIP3   OH257036   0.547   2.961   0.002  0.0874  0.1748 -0.6165
11874TIP3    H157037   0.517   2.958  -0.089  1.3324 -3.1326 -1.0806
11874TIP3    H257038   0.489   2.900   0.048  1.2246 -0.3669  0.1493
11875TIP3   OH257039   2.107   0.388  12.019  0.7096  0.4585 -0.1347
11875TIP3    H157040   2.075   0.477  11.999 -0.4664 -0.2717 -1.7807
11875TIP3    H257041   2.029   0.333  12.011  1.0869 -0.5507  2.5088
11876TIP3   OH257042   4.300   4.133  14.873  0.3805 -0.2134  0.6907
11876TIP3    H157043   4.222   4.183  14.851  0.1425 -0.5259  0.8152
11876TIP3    H257044   4.267   4.054  14.916  0.6352 -1.4693 -1.3015
11877TIP3   OH257045   4.033   3.516  11.920 -0.4447 -0.5621 -0.0994
11877TIP3    H157046   3.973   3.503  11.992  1.7478  1.0487  2.2125
11877TIP3    H257047   3.984   3.569  11.856 -1.9235 -0.6013  0.9762
11878TIP3   OH257048   2.609   1.611   3.118 -0.3026 -0.0243 -0.6003
11878TIP3    H157049   2.703   1.619   3.104 -0.5989  1.6648 -1.9597
11878TIP3    H257050   2.582   1.539   3.060  0.1702 -0.7144  0.0207
11879TIP3   OH257051   5.635   3.734   3.532 -0.1932  0.2372  0.0097
11879TIP3    H157052   5.573   3.680   3.580  2.4087 -2.3254  0.7656
11879TIP3    H257053   5.645   3.812   3.586 -0.9653 -0.3937  1.1001
11880TIP3   OH257054   2.926   5.899  13.796 -0.4308 -0.2467  0.7056
11880TIP3    H157055   3.016   5.869  13.806 -0.1614  0.6060  0.9394
11880TIP3    H257056   2.932   5.994  13.800 -1.0094 -0.0331 -1.8351
11881TIP3   OH257057   5.189   1.737  14.509 -0.2221 -0.4351 -0.0511
11881TIP3    H157058   5.120   1.749  14.444 -1.5901 -0.5356  1.3236
11881TIP3    H257059   5.153   1.776  14.589  2.1280  1.3361  0.2465
11882TIP3   OH257060   5.067   0.351  13.770 -0.3430  0.1747 -0.2560
11882TIP3    H157061   5.158   0.354  13.797  0.4268 -3.0221 -2.0343
11882TIP3    H257062   5.056   0.426  13.711  0.3142  2.0673  1.8777
11883TIP3   OH257063   4.076   4.101   1.133  0.2721  0.1441  0.2694
11883TIP3    H157064   4.124   4.182   1.116  1.6758 -0.5708  0.6656
11883TIP3    H257065   4.093   4.081   1.225  0.4837 -0.9348  0.0140
11884TIP3   OH257066   4.932   3.287   1.721 -0.2919 -0.2328  0.1308
11884TIP3    H157067   4.906   3.245   1.639  3.3421  2.3289 -2.6842
11884TIP3    H257068   4.995   3.226   1.760 -0.2385 -0.4405 -0.2704
11885TIP3   OH257069   1.371   0.817  16.053 -0.6935 -0.2429 -0.2447
11885TIP3    H157070   1.364   0.850  16.142 -2.7409 -2.2585  0.4623
11885TIP3    H257071   1.379   0.895  15.999  0.1529  1.0598  1.6540
11886TIP3   OH257072   1.646   6.742  11.694 -0.3432 -0.2447 -0.0425
11886TIP3    H157073   1.575   6.704  11.642 -2.1009  0.0150  2.0514
11886TIP3    H257074   1.630   6.711  11.783  0.6686  1.8809  0.9543
11887TIP3   OH257075   1.399   5.825   1.524 -0.4313 -0.4439  0.4901
11887TIP3    H157076   1.371   5.872   1.603 -0.1674  0.9762 -0.2332
11887TIP3    H257077   1.331   5.843   1.459  0.5644  0.4595 -0.3382
11888TIP3   OH257078   5.994   5.354   4.401 -0.0528 -0.5996  0.2685
11888TIP3    H157079   5.909   5.313   4.384  1.2460 -2.9131 -1.2067
11888TIP3    H257080   5.975   5.447   4.411 -2.7362 -1.0419 -0.0859
11889TIP3   OH257081   1.368   0.472  15.173 -0.5961  0.4521 -0.4594
11889TIP3    H157082   1.273   0.465  15.184 -0.6493 -0.3910 -1.2927
11889TIP3    H257083   1.388   0.564  15.191 -1.3041  0.2729  1.5207
11890TIP3   OH257084   5.393   4.157  10.715 -0.1119 -0.1901 -0.3441
11890TIP3    H157085   5.373   4.142  10.623 -1.5821  0.5395 -0.1714
11890TIP3    H257086   5.484   4.185  10.715  0.3361 -1.5265 -1.4146
11891TIP3   OH257087   1.830   1.137   4.181  0.3536 -0.5834  0.5001
11891TIP3    H157088   1.896   1.068   4.174 -0.7359 -1.5939 -0.1628
11891TIP3    H257089   1.811   1.161   4.090  0.1546  0.0383  0.7040
11892TIP3   OH257090   5.096   2.233   0.005  0.2769  0.2955  0.1596
11892TIP3    H157091   5.119   2.146   0.038  0.1740  0.9453  2.0521
11892TIP3    H257092   5.000   2.233   0.004  0.2245  0.9627  1.9188
11893TIP3   OH257093   1.446   3.012  13.742 -0.3334  0.4660 -0.2741
11893TIP3    H157094   1.539   3.030  13.758 -0.9984  2.7964  1.5194
11893TIP3    H257095   1.435   2.920  13.767  1.3589  0.3589  0.2021
11894TIP3   OH257096   5.412   5.824  15.862  0.0410 -0.0994 -0.0154
11894TIP3    H157097   5.409   5.920  15.866  1.9668  0.2443 -3.1878
11894TIP3    H257098   5.357   5.802  15.787  2.9812 -0.9479 -2.1307
11895TIP3   OH257099   4.466   0.456  16.989  0.0451 -0.8850  0.0658
11895TIP3    H157100   4.509   0.524  17.042  1.0176 -1.3714 -0.0766
11895TIP3    H257101   4.468   0.378  17.044  0.9359 -1.3593 -0.6141
11896TIP3   OH257102   5.936   1.235   3.482  0.7594  0.7252  0.4513
11896TIP3    H157103   5.995   1.187   3.540 -0.0973 -0.8928  0.0613
11896TIP3    H257104   5.883   1.167   3.440 -2.0653  2.0945  1.4976
11897TIP3   OH257105   5.101   2.715   2.136 -0.0336 -0.8478 -0.6805
11897TIP3    H157106   5.063   2.627   2.126 -0.8891 -0.6625  0.6324
11897TIP3    H257107   5.133   2.717   2.226 -2.9109  1.1950  0.4659
11898TIP3   OH257108   1.018   1.245  10.744  0.1189  0.8174 -0.5025
11898TIP3    H157109   1.091   1.195  10.707 -0.9047 -0.2462 -1.1620
11898TIP3    H257110   1.059   1.306  10.805  1.6395  0.8538 -1.5042
11899TIP3   OH257111   0.213   4.175   3.430 -0.0830  0.6768  0.0906
11899TIP3    H157112   0.279   4.120   3.472 -1.1281  1.0864  2.4472
11899TIP3    H257113   0.201   4.136   3.344  2.5447  0.0647 -0.0919
11900TIP3   OH257114   1.328   4.609   5.343 -0.1409 -0.0622  0.2213
11900TIP3    H157115   1.422   4.594   5.332 -0.0062  0.4726  0.6223
11900TIP3    H257116   1.322   4.665   5.420 -0.7904 -0.0761  0.1807
11901TIP3   OH257117   0.562   5.675  16.483 -0.2519 -0.0484  0.1727
11901TIP3    H157118   0.561   5.666  16.388 -0.3776 -1.9779  0.3215
11901TIP3    H257119   0.497   5.612  16.514 -1.0741  1.3824  1.5068
11902TIP3   OH257120   1.625   4.764   1.665  0.0054  0.1678  0.0085
11902TIP3    H157121   1.619   4.850   1.706 -0.2835 -0.1837  0.7404
11902TIP3    H257122   1.533   4.737   1.655  0.1077 -0.6283  1.0663
11903TIP3   OH257123   2.118   4.451  12.969  0.1762 -0.2171 -0.1657
11903TIP3    H157124   2.148   4.383  13.030  1.6021  1.3991  1.0718
11903TIP3    H257125   2.028   4.470  12.996 -0.7365 -2.4770 -1.4030
11904TIP3   OH257126   2.408   0.935   1.584  0.2798  0.1988 -0.2000
11904TIP3    H157127   2.443   0.848   1.568 -0.8001 -0.3129  0.1657
11904TIP3    H257128   2.353   0.954   1.508 -2.7791 -1.1750  1.4847
11905TIP3   OH257129   4.676   1.692  11.347  0.4042 -0.0781 -0.9417
11905TIP3    H157130   4.608   1.721  11.287 -0.5555 -0.0533  0.1100
11905TIP3    H257131   4.733   1.768  11.357 -0.3651  0.4687 -0.5631
11906TIP3   OH257132   1.141   3.006   4.108  0.0635 -0.0677 -0.3013
11906TIP3    H157133   1.193   2.946   4.055  1.6412 -0.7449  1.8659
11906TIP3    H257134   1.077   2.950   4.151  0.7136 -0.0441  0.7399
11907TIP3   OH257135   2.113   0.775   5.110 -0.2471 -0.3972 -0.3442
11907TIP3    H157136   2.040   0.805   5.164 -0.9744 -0.3451 -1.3237
11907TIP3    H257137   2.077   0.771   5.021  0.6340 -1.4625 -0.6729
11908TIP3   OH257138   3.341   3.207  12.201 -0.3563  0.7347  0.2232
11908TIP3    H157139   3.388   3.286  12.229 -1.4187  1.3015  0.4822
11908TIP3    H257140   3.326   3.158  12.281  1.7642 -0.5996 -0.1345
11909TIP3   OH257141   3.608   5.649   4.326  0.5800 -0.3079 -0.1622
11909TIP3    H157142   3.632   5.657   4.234  0.3232  1.0871 -0.1280
11909TIP3    H257143   3.690   5.659   4.374  0.4750  0.8986 -0.1894
11910TIP3   OH257144   0.617   0.821  15.323 -1.0837  0.1166  0.4241
11910TIP3    H157145   0.698   0.846  15.278 -0.4576 -1.8855  0.3396
11910TIP3    H257146   0.576   0.904  15.345 -1.2082  1.2700 -3.4218
11911TIP3   OH257147   0.643   0.655  13.066  0.3703  0.0348  0.2191
11911TIP3    H157148   0.613   0.746  13.069 -0.5301 -0.2721  2.6103
11911TIP3    H257149   0.710   0.649  13.134  1.1381 -0.8838 -0.5805
11912TIP3   OH257150   3.410   2.546   1.163  0.1572 -0.5905  0.2858
11912TIP3    H157151   3.341   2.546   1.229  1.1919 -0.4708  1.4058
11912TIP3    H257152   3.406   2.633   1.123 -1.0486 -0.9684 -0.4495
11913TIP3   OH257153   1.855   2.418  13.821 -0.3207  0.5965  0.1783
11913TIP3    H157154   1.885   2.359  13.750 -2.8019  0.6095 -0.9793
11913TIP3    H257155   1.869   2.367  13.901  0.1053 -0.4936 -0.5546
11914TIP3   OH257156   0.407   5.553   2.978  0.1772 -0.0796 -0.0837
11914TIP3    H157157   0.434   5.642   2.955 -0.1753  0.5726  1.8771
11914TIP3    H257158   0.329   5.565   3.033  0.9519 -1.5137  1.4033
11915TIP3   OH257159   0.692   6.691   1.704 -0.3188 -0.1650 -0.1068
11915TIP3    H157160   0.771   6.709   1.654 -0.3348 -0.4770 -0.2462
11915TIP3    H257161   0.628   6.662   1.639 -0.1625 -1.1275  0.1593
11916TIP3   OH257162   1.674   2.817   0.753  1.0987 -0.3806 -0.3860
11916TIP3    H157163   1.731   2.852   0.822 -0.8706  0.4428  0.9234
11916TIP3    H257164   1.632   2.740   0.793 -0.7826  0.6565 -0.2163
11917TIP3   OH257165   2.428   1.605   3.878 -0.3599 -0.3263 -0.3537
11917TIP3    H157166   2.352   1.658   3.854 -0.7173 -0.6920 -0.0507
11917TIP3    H257167   2.437   1.618   3.973 -0.4282 -0.7733 -0.2821
11918TIP3   OH257168   5.718   0.918  16.883 -0.4377 -0.4749  0.0049
11918TIP3    H157169   5.668   0.919  16.801 -1.4001 -0.2561  0.5784
11918TIP3    H257170   5.733   0.825  16.900  0.3071 -0.5031 -0.7214
11919TIP3   OH257171   6.484   4.546  14.889  0.1449  0.3180  0.2107
11919TIP3    H157172   6.544   4.505  14.827  0.7044  2.0598 -0.4795
11919TIP3    H257173   6.459   4.476  14.949 -1.7236 -1.9258 -2.8888
11920TIP3   OH257174   5.438   0.124   3.623 -0.1588 -0.3059  0.5716
11920TIP3    H157175   5.447   0.188   3.693 -2.0312  0.7540 -0.0912
11920TIP3    H257176   5.377   0.164   3.561  1.1354 -1.3521 -1.5132
11921TIP3   OH257177   4.569   0.055   1.218  0.6066  0.4739 -0.3245
11921TIP3    H157178   4.541   0.074   1.128  0.3268  0.7004 -0.1882
11921TIP3    H257179   4.543  -0.037   1.232  1.9869 -0.0489 -0.9893
11922TIP3   OH257180   2.221   0.559   0.645  0.2633  0.6779  0.0998
11922TIP3    H157181   2.196   0.599   0.729 -0.1901 -1.4047  1.0212
11922TIP3    H257182   2.198   0.467   0.655 -2.7919  0.8113 -3.4532
11923TIP3   OH257183   4.462   1.107   2.553 -0.9390  0.3338  0.5030
11923TIP3    H157184   4.525   1.054   2.504 -2.3733 -0.5815 -0.4173
11923TIP3    H257185   4.490   1.197   2.537 -0.6866  0.0074 -1.0837
11924TIP3   OH257186   0.715   3.916   3.238  0.0792  0.4287  0.0719
11924TIP3    H157187   0.743   3.870   3.159 -0.2650  1.7320 -0.8363
11924TIP3    H257188   0.623   3.938   3.221  0.2062  1.3458  0.5286
11925TIP3   OH257189   3.978   0.262   1.647  0.1869  0.3882 -0.3886
11925TIP3    H157190   3.907   0.225   1.595  1.3738 -1.9374 -0.4885
11925TIP3    H257191   4.022   0.322   1.587 -2.4597  3.0600  0.1201
11926TIP3   OH257192   6.082   6.492   3.721  0.0726 -0.1989  0.1660
11926TIP3    H157193   5.986   6.489   3.715 -0.0446  0.4593  1.3480
11926TIP3    H257194   6.100   6.492   3.815  1.2294 -0.1421 -0.0453
11927TIP3   OH257195   4.248   6.400  14.197 -0.1550 -0.2621 -0.5544
11927TIP3    H157196   4.185   6.471  14.206 -0.8037 -0.5398 -2.5216
11927TIP3    H257197   4.330   6.436  14.230 -0.7519  0.9667 -0.3752
11928TIP3   OH257198   1.293   1.187  13.655  0.2743  0.0674 -0.2369
11928TIP3    H157199   1.250   1.243  13.591 -0.5913  0.9573  1.0676
11928TIP3    H257200   1.372   1.156  13.611 -0.7819 -0.1793 -2.0730
11929TIP3   OH257201   3.646   3.739  17.321  0.2707 -0.1833  0.2463
11929TIP3    H157202   3.688   3.823  17.301 -0.0052 -0.3512 -1.1133
11929TIP3    H257203   3.718   3.676  17.323  0.2746 -0.2153 -0.5747
11930TIP3   OH257204   4.799   5.247   3.705  0.8614 -0.7409 -0.9830
11930TIP3    H157205   4.856   5.258   3.781 -0.6077 -2.0383  0.3867
11930TIP3    H257206   4.763   5.159   3.715 -0.8490 -0.2237 -2.1386
11931TIP3   OH257207   6.196   2.872  15.188  0.4180 -0.4532  0.3159
11931TIP3    H157208   6.153   2.802  15.140 -0.8231  1.5854 -1.7712
11931TIP3    H257209   6.125   2.918  15.233  0.9321  0.5361  0.1548
11932TIP3   OH257210   3.151   3.348  14.814 -0.3979  0.4994 -0.0439
11932TIP3    H157211   3.143   3.276  14.752  0.7393 -0.8174  1.2593
11932TIP3    H257212   3.173   3.424  14.761  0.5299 -0.5865 -1.2507
11933TIP3   OH257213   2.141   0.729   1.188  0.5239  0.1880 -0.2140
11933TIP3    H157214   2.066   0.723   1.129  1.2654 -1.4801 -1.0387
11933TIP3    H257215   2.210   0.679   1.145  1.8918  1.0554  0.8832
11934TIP3   OH257216   2.712   0.438  13.997 -0.3818 -0.4459 -0.3719
11934TIP3    H157217   2.757   0.363  14.036 -0.1846 -0.7171 -1.1155
11934TIP3    H257218   2.623   0.408  13.981 -0.1977 -0.6545 -1.0315
11935TIP3   OH257219   4.605   2.104  14.346 -0.1115  0.0832  0.6432
11935TIP3    H157220   4.652   2.051  14.410  0.2918  0.9917  1.1076
11935TIP3    H257221   4.529   2.137  14.393 -0.6512 -0.4893  0.2009
11936TIP3   OH257222   4.972   4.654   1.769 -0.0241  0.2457 -0.6433
11936TIP3    H157223   4.949   4.733   1.722 -0.4210 -0.2160 -1.2351
11936TIP3    H257224   5.011   4.685   1.851  1.9509  1.0688 -1.8471
11937TIP3   OH257225   4.148   5.129  11.280  0.2954  0.3431  1.0474
11937TIP3    H157226   4.100   5.099  11.202  0.8940  1.6980  0.1180
11937TIP3    H257227   4.195   5.051  11.310 -0.5961 -0.4134  0.5763
11938TIP3   OH257228   0.517   6.138  16.716 -0.1643  0.6478  0.3212
11938TIP3    H157229   0.467   6.063  16.684  0.6088  0.4580 -0.4850
11938TIP3    H257230   0.463   6.175  16.786 -0.6860 -0.4904  0.5411
11939TIP3   OH257231   4.262   5.321  14.880 -0.0819 -0.9328 -0.0373
11939TIP3    H157232   4.353   5.301  14.857 -0.3895 -2.1659 -0.2704
11939TIP3    H257233   4.225   5.236  14.904 -1.0383 -0.3646  0.5510
11940TIP3   OH257234   5.831   3.579  11.145 -0.6868  0.0962 -0.4686
11940TIP3    H157235   5.810   3.665  11.108  1.6871  0.1610 -1.9066
11940TIP3    H257236   5.877   3.534  11.074 -0.5333 -1.7948  0.7779
11941TIP3   OH257237   3.398   1.634  16.825  0.5588  0.2621 -0.1485
11941TIP3    H157238   3.319   1.645  16.878  0.6968 -0.7014  0.2949
11941TIP3    H257239   3.451   1.571  16.875  1.6936  1.0291 -0.3334
11942TIP3   OH257240   3.592   5.637  11.962 -0.1569 -0.5453 -0.2201
11942TIP3    H157241   3.641   5.700  12.014 -2.4228 -0.2867  1.7779
11942TIP3    H257242   3.637   5.635  11.877  0.7437  2.7650  0.0603
11943TIP3   OH257243   5.625   4.699   5.818 -0.1035  0.1806  0.3137
11943TIP3    H157244   5.702   4.649   5.845 -0.2320  0.2748  0.8802
11943TIP3    H257245   5.591   4.736   5.900  0.3272  1.6914 -0.1520
11944TIP3   OH257246   4.503   0.899  15.293  0.3411  0.0549  0.2070
11944TIP3    H157247   4.421   0.851  15.307  0.8523 -1.0187 -0.3373
11944TIP3    H257248   4.550   0.848  15.228 -0.1933  2.6962 -2.4494
11945TIP3   OH257249   3.739   4.348   4.260  0.1659 -0.3240 -0.0807
11945TIP3    H157250   3.725   4.434   4.298  0.1590 -0.3840  0.0508
11945TIP3    H257251   3.783   4.298   4.329 -1.5696 -1.0343  0.5424
11946TIP3   OH257252   2.768   4.889  11.118 -0.6579  0.1211 -0.3414
11946TIP3    H157253   2.775   4.955  11.049 -0.3484  0.7035  0.2319
11946TIP3    H257254   2.706   4.927  11.181  0.0969  0.2168  0.3633
11947TIP3   OH257255   3.395   1.061  11.700 -0.1817  0.1253 -0.4496
11947TIP3    H157256   3.327   1.066  11.632 -0.6725  2.9069  0.1036
11947TIP3    H257257   3.350   1.088  11.780  0.8470 -1.2313  0.6317
11948TIP3   OH257258   5.183   0.022  16.542  0.0767  0.1737  0.2164
11948TIP3    H157259   5.141  -0.054  16.583  0.2825  1.0493  2.1716
11948TIP3    H257260   5.254   0.045  16.601  0.2902  1.6205 -0.5646
11949TIP3   OH257261   2.461   3.914   0.388 -0.0769 -1.2687 -0.2496
11949TIP3    H157262   2.426   3.910   0.299  0.4599 -2.9452 -0.4212
11949TIP3    H257263   2.383   3.917   0.444 -0.4462  1.5739 -0.7391
11950TIP3   OH257264   0.959   2.024  16.237 -0.6350 -0.0636  0.2749
11950TIP3    H157265   0.904   2.015  16.315  0.3362  0.7141  1.0706
11950TIP3    H257266   0.954   2.117  16.215  0.3272  0.0147  0.3483
11951TIP3   OH257267   4.021   3.145   1.739  0.1468  0.0224  0.8747
11951TIP3    H157268   3.988   3.123   1.653  1.6425  1.3351 -0.0891
11951TIP3    H257269   4.114   3.124   1.735  0.7690  2.4016  1.2827
11952TIP3   OH257270   6.522   4.844  14.145  0.1249  0.2362 -0.1448
11952TIP3    H157271   6.532   4.775  14.080 -0.0561 -0.1497  0.2293
11952TIP3    H257272   6.611   4.871  14.165  0.2495 -0.4781  0.3176
11953TIP3   OH257273   3.069   4.316   1.503  0.5562  0.0586  0.1017
11953TIP3    H157274   3.083   4.409   1.485 -0.5028  0.0533 -0.8475
11953TIP3    H257275   3.131   4.271   1.445  0.7096  0.1583  0.1883
11954TIP3   OH257276   3.843   6.462  16.553  0.5938 -0.0233 -0.0749
11954TIP3    H157277   3.826   6.509  16.471 -1.3424  0.1142  0.3505
11954TIP3    H257278   3.823   6.371  16.532  2.5778 -0.4188 -0.4049
11955TIP3   OH257279   3.432   5.303  12.610 -0.0991  0.0896 -0.0634
11955TIP3    H157280   3.430   5.265  12.698 -2.3312  1.0686  0.3704
11955TIP3    H257281   3.386   5.239  12.556 -1.3162  0.7987  0.0984
11956TIP3   OH257282   6.054   6.516  14.327 -0.1228  0.1630 -0.1114
11956TIP3    H157283   6.084   6.446  14.385 -0.6990  0.4614  0.5744
11956TIP3    H257284   6.048   6.476  14.241 -0.7730 -0.7295  0.3382
11957TIP3   OH257285   0.913   1.968  15.281  0.0300 -0.7508 -0.4961
11957TIP3    H157286   0.874   1.893  15.235 -0.4541 -0.4526 -0.5768
11957TIP3    H257287   0.838   2.017  15.315  0.3781 -0.9823  0.6461
11958TIP3   OH257288   5.522   2.455   1.314 -0.1177  0.2005 -0.0433
11958TIP3    H157289   5.459   2.493   1.375 -0.5343  2.3090 -1.6593
11958TIP3    H257290   5.593   2.519   1.311  0.4497 -0.4522 -0.8849
11959TIP3   OH257291   2.827   0.341   1.752 -0.0551 -0.0731 -0.2818
11959TIP3    H157292   2.914   0.349   1.712  0.1827 -0.0260  0.2295
11959TIP3    H257293   2.844   0.344   1.846 -0.3755 -2.3868 -0.0960
11960TIP3   OH257294   0.100   0.381  16.339 -0.3290  0.2021  0.0624
11960TIP3    H157295   0.142   0.467  16.351  0.7746 -0.1074 -1.3116
11960TIP3    H257296   0.035   0.397  16.271  1.0513 -0.3643 -1.4596
11961TIP3   OH257297   4.543   1.571  15.640  0.3798  1.0713 -0.2389
11961TIP3    H157298   4.602   1.635  15.679  2.2292 -1.2894  1.1225
11961TIP3    H257299   4.477   1.555  15.707 -1.0966  2.6769 -1.2243
11962TIP3   OH257300   3.241   1.797  12.281  0.3892 -0.0350 -0.0613
11962TIP3    H157301   3.155   1.774  12.246  0.1436 -0.5712  0.8544
11962TIP3    H257302   3.234   1.891  12.301  0.0814 -0.0329 -0.1670
11963TIP3   OH257303   0.040   1.590   3.369  1.0277 -0.2541  0.2914
11963TIP3    H157304   0.050   1.503   3.331 -1.9994 -0.4497 -0.3124
11963TIP3    H257305   0.010   1.645   3.296  1.0361  0.8190  1.0730
11964TIP3   OH257306   0.029   0.659   2.627  0.1020 -0.5055  0.4150
11964TIP3    H157307   0.091   0.589   2.647 -0.2853 -1.2915 -0.9766
11964TIP3    H257308   0.076   0.717   2.567 -0.4057 -0.9731 -0.4553
11965TIP3   OH257309   0.116   4.578   5.609  0.2998  0.3128  0.3799
11965TIP3    H157310   0.132   4.636   5.535  0.1657 -0.1036  0.0236
11965TIP3    H257311   0.042   4.524   5.582  0.6485 -0.2661  0.5687
11966TIP3   OH257312   0.643   4.394  10.821  0.1058  0.1572  0.1345
11966TIP3    H157313   0.694   4.473  10.810 -0.7107  0.6042 -0.5822
11966TIP3    H257314   0.698   4.324  10.786  0.0351  0.7039 -1.1035
11967TIP3   OH257315   6.550   2.433   3.588 -1.0091 -0.3991 -0.3282
11967TIP3    H157316   6.539   2.474   3.502 -1.8203  0.1574  0.0308
11967TIP3    H257317   6.630   2.472   3.623 -0.9181 -0.2980 -0.6443
11968TIP3   OH257318   3.358   5.833   6.608  0.0357 -0.3811 -0.3437
11968TIP3    H157319   3.267   5.826   6.636  0.0204  0.1575 -0.2520
11968TIP3    H257320   3.384   5.743   6.589 -0.8408 -0.4219 -1.4319
11969TIP3   OH257321   0.484   4.761  13.546  0.2060 -0.0479 -0.0294
11969TIP3    H157322   0.528   4.805  13.619  1.3707  2.7967 -2.2341
11969TIP3    H257323   0.554   4.744  13.483 -0.4621 -4.0015  0.0484
11970TIP3   OH257324   3.355   6.371  14.548 -0.0067 -0.0384  0.0967
11970TIP3    H157325   3.351   6.297  14.609 -0.3758 -0.1658 -0.0760
11970TIP3    H257326   3.374   6.330  14.463 -0.9497 -0.0228 -0.1381
11971TIP3   OH257327   3.939   2.751  14.014  0.2690  0.2178  0.3345
11971TIP3    H157328   3.947   2.720  14.104  0.4701  1.5548  0.7880
11971TIP3    H257329   3.901   2.838  14.021  0.4063  0.3969 -0.8740
11972TIP3   OH257330   3.480   3.397   5.143  0.6190 -0.1335  0.4367
11972TIP3    H157331   3.392   3.403   5.107  0.8474 -1.9097 -0.5318
11972TIP3    H257332   3.511   3.488   5.147 -1.0314  0.4595  0.2685
11973TIP3   OH257333   4.536   1.096  17.274 -0.2554 -0.3287 -0.6874
11973TIP3    H157334   4.452   1.052  17.269  0.3814 -1.6536 -0.2918
11973TIP3    H257335   4.601   1.025  17.271  0.8299  0.6196 -0.5724
11974TIP3   OH257336   5.284   2.853   3.958 -0.5427  0.0360  0.2386
11974TIP3    H157337   5.280   2.806   4.041  1.4530  1.7628  1.4258
11974TIP3    H257338   5.366   2.902   3.963 -0.4064  0.2578 -2.7491
11975TIP3   OH257339   1.249   5.049   2.202  0.0411  0.2379 -0.3725
11975TIP3    H157340   1.259   5.027   2.295 -0.4944  0.4387 -0.2649
11975TIP3    H257341   1.155   5.058   2.189  0.1485  0.8490 -0.7897
11976TIP3   OH257342   4.631   1.876   3.058  0.2056 -0.2822  0.6895
11976TIP3    H157343   4.637   1.956   3.005 -2.0241 -0.4463  0.0800
11976TIP3    H257344   4.576   1.901   3.132  0.4901 -0.9468  1.1267
11977TIP3   OH257345   3.788   4.351  14.753  0.2461 -0.2609  0.3051
11977TIP3    H157346   3.752   4.305  14.677  0.3491 -1.3679  0.8955
11977TIP3    H257347   3.712   4.370  14.808  0.3349 -0.9640  0.6915
11978TIP3   OH257348   2.241   0.932   1.031  0.2333 -0.0465  0.0788
11978TIP3    H157349   2.185   1.009   1.027  0.8098  0.3860  0.1794
11978TIP3    H257350   2.212   0.885   1.109 -0.9004 -0.5580 -0.6275
11979TIP3   OH257351   0.846   2.575   2.482 -0.5983 -0.3225  0.3690
11979TIP3    H157352   0.849   2.509   2.551  0.1441 -1.6369 -0.8691
11979TIP3    H257353   0.938   2.593   2.461 -0.8062  0.3682  0.0097
11980TIP3   OH257354   0.593   0.900   4.143  0.1314 -0.3714 -0.4399
11980TIP3    H157355   0.522   0.933   4.198  0.3368 -2.4768  1.2313
11980TIP3    H257356   0.644   0.977   4.120 -1.1828  0.8397  0.5715
11981TIP3   OH257357   0.519   6.280   0.799  0.0075  0.2375  0.1718
11981TIP3    H157358   0.601   6.234   0.781 -0.2533  0.3861 -1.5742
11981TIP3    H257359   0.539   6.372   0.782  0.3591  0.7899  3.0474
11982TIP3   OH257360   2.342   2.162  12.898 -0.2251  0.2395  0.1673
11982TIP3    H157361   2.337   2.190  12.990  2.3762 -0.3023  0.5538
11982TIP3    H257362   2.348   2.067  12.902 -1.7551  0.0844 -0.7023
11983TIP3   OH257363   6.599   5.917  11.737  0.1257  0.2082 -0.0318
11983TIP3    H157364   6.671   5.943  11.679  0.7491  1.1383  1.1001
11983TIP3    H257365   6.550   5.998  11.751  0.5269  0.2214  1.4393
11984TIP3   OH257366   0.866   4.926  13.793  0.1734 -0.2061 -0.4382
11984TIP3    H157367   0.831   5.015  13.781 -0.4614 -0.5872 -1.5480
11984TIP3    H257368   0.796   4.869  13.763  0.3767 -1.1183  0.7528
11985TIP3   OH257369   4.026   0.667   5.401  0.3087  0.5512  0.3440
11985TIP3    H157370   4.117   0.649   5.380  0.5346 -0.4068  1.9859
11985TIP3    H257371   3.982   0.582   5.395 -0.5436  1.0379 -0.6418
11986TIP3   OH257372   3.933   4.524   3.676 -0.2186  0.1872 -1.0418
11986TIP3    H157373   3.957   4.432   3.668 -0.0298 -0.3389  3.1833
11986TIP3    H257374   3.840   4.523   3.697 -0.2338  0.9351 -1.0353
11987TIP3   OH257375   5.293   5.682  10.847 -0.0156 -0.0028 -0.0820
11987TIP3    H157376   5.263   5.607  10.898  1.4463  0.6785  1.8815
11987TIP3    H257377   5.216   5.738  10.837 -0.5962 -0.7236  0.3200
11988TIP3   OH257378   5.731   0.399  12.320  0.2332 -0.4647 -0.7217
11988TIP3    H157379   5.683   0.374  12.241 -0.9954 -0.8300  0.1103
11988TIP3    H257380   5.738   0.317  12.370  1.0687 -0.2535 -0.4775
11989TIP3   OH257381   4.848   6.562  15.119  0.1579  0.1507  0.5095
11989TIP3    H157382   4.869   6.477  15.081  2.2186 -0.0087  1.8845
11989TIP3    H257383   4.754   6.558  15.137 -0.3059 -0.8146 -1.8314
11990TIP3   OH257384   6.395   0.556   2.996 -0.2810 -0.0795 -0.5522
11990TIP3    H157385   6.358   0.504   3.068 -0.7768  0.5681 -0.3221
11990TIP3    H257386   6.409   0.493   2.926 -1.8037 -0.3723 -0.6320
11991TIP3   OH257387   2.121   4.688   2.890 -0.1873 -0.1683  0.0545
11991TIP3    H157388   2.202   4.638   2.881 -0.8615 -1.1991 -0.5560
11991TIP3    H257389   2.125   4.725   2.978  1.2102  0.2940 -0.1820
11992TIP3   OH257390   6.135   2.030  15.094  0.2523  0.3384 -0.8044
11992TIP3    H157391   6.167   2.115  15.124 -1.1659  0.3186  0.9326
11992TIP3    H257392   6.047   2.023  15.130  1.1579 -2.8396  1.2247
11993TIP3   OH257393   1.015   2.634  11.598  0.0427 -0.4289 -0.4051
11993TIP3    H157394   1.052   2.632  11.686 -0.2809 -1.1002 -0.2808
11993TIP3    H257395   1.054   2.712  11.558 -0.1105  0.1110  0.4632
11994TIP3   OH257396   6.354   5.378  10.867  0.0665  0.5733 -0.1160
11994TIP3    H157397   6.342   5.472  10.877 -3.0716  0.0861  2.2282
11994TIP3    H257398   6.357   5.364  10.772  0.6813  2.9788 -0.5185
11995TIP3   OH257399   5.063   2.371  14.427  0.4461 -0.4182  0.4129
11995TIP3    H157400   5.145   2.410  14.398  0.7196 -1.1250  0.2040
11995TIP3    H257401   5.010   2.445  14.456  1.3499  0.0130  1.0464
11996TIP3   OH257402   4.377   2.512  13.426  0.1869  0.5254  1.0108
11996TIP3    H157403   4.472   2.523  13.419  0.2407 -0.1860  0.4531
11996TIP3    H257404   4.357   2.442  13.364 -1.0745  2.5315 -0.9998
11997TIP3   OH257405   2.175   3.118  12.276 -0.0207 -0.0444  0.3344
11997TIP3    H157406   2.145   3.027  12.269  1.3588 -0.5606  0.8169
11997TIP3    H257407   2.269   3.113  12.263  0.0328  1.3720  0.0686
11998TIP3   OH257408   1.505   1.155   4.632  0.3387 -0.1793  0.8290
11998TIP3    H157409   1.558   1.076   4.641 -0.7264 -0.9196  0.8569
11998TIP3    H257410   1.492   1.186   4.722 -0.2727 -0.7026  0.9336
11999TIP3   OH257411   0.798   5.582   6.335 -0.1843 -0.5316  0.4565
11999TIP3    H157412   0.757   5.508   6.381 -3.1619  0.7839  0.1458
11999TIP3    H257413   0.785   5.656   6.393  1.3830  0.0905  0.0709
12000TIP3   OH257414   0.010   0.691  14.015  0.0639  0.4325  0.5145
12000TIP3    H157415   0.049   0.742  14.086  0.0182  0.0454  0.8186
12000TIP3    H257416  -0.044   0.625  14.059 -0.9247  0.9478  0.1082
12001TIP3   OH257417   6.297   0.384   1.504  0.0293 -0.0565  0.3924
12001TIP3    H157418   6.345   0.335   1.572 -0.0249  0.7428  1.0122
12001TIP3    H257419   6.236   0.439   1.552 -0.0125  0.5232 -0.3051
12002TIP3   OH257420   2.836   4.383  15.014  0.2109 -0.2577 -0.2666
12002TIP3    H157421   2.887   4.454  14.975 -0.5798  0.7083  0.4063
12002TIP3    H257422   2.826   4.408  15.106  0.6148 -1.6577  0.1924
12003TIP3   OH257423   4.255   2.504   2.811  0.1327 -0.3574  0.4199
12003TIP3    H157424   4.217   2.428   2.768 -0.2524 -0.3852  0.8049
12003TIP3    H257425   4.209   2.579   2.774  1.5298 -0.1733 -1.0635
12004TIP3   OH257426   5.174   2.925  13.175 -0.0910  0.0573 -0.4904
12004TIP3    H157427   5.213   2.954  13.258 -0.6505 -1.5607  0.3959
12004TIP3    H257428   5.101   2.984  13.161 -2.5684 -1.9971  2.4072
12005TIP3   OH257429   0.632   1.964   3.598  0.6077  0.3775 -0.5305
12005TIP3    H157430   0.691   1.935   3.528  0.2256  2.4470 -1.8024
12005TIP3    H257431   0.679   2.036   3.640  0.4225 -0.2281  0.7372
12006TIP3   OH257432   4.712   4.355   2.462 -0.3270  0.0149 -0.4327
12006TIP3    H157433   4.750   4.286   2.516 -0.0633  1.1198  0.8566
12006TIP3    H257434   4.781   4.379   2.401 -0.1396 -0.3130 -0.3497
12007TIP3   OH257435   0.212   2.360   0.006 -0.3443 -0.0831 -0.1287
12007TIP3    H157436   0.272   2.285   0.001 -1.3034 -0.8135 -1.0451
12007TIP3    H257437   0.206   2.379   0.099 -0.4918 -1.4953  0.1774
12008TIP3   OH257438   4.565   1.658   2.515 -0.1713  0.0229  0.4521
12008TIP3    H157439   4.633   1.694   2.573 -0.8122  1.5355  0.3164
12008TIP3    H257440   4.578   1.704   2.432 -0.7475 -0.3899  0.1292
12009TIP3   OH257441   5.768   2.542  13.163 -0.3748  0.0149  0.0975
12009TIP3    H157442   5.709   2.606  13.203 -0.3607 -0.4731  0.9205
12009TIP3    H257443   5.823   2.511  13.235 -0.6613 -1.2313 -0.1855
12010TIP3   OH257444   5.743   0.117   1.756 -0.1440 -0.1778 -0.1083
12010TIP3    H157445   5.764   0.025   1.766 -0.4053 -0.4840 -2.0368
12010TIP3    H257446   5.827   0.161   1.750 -0.0256 -0.3715  0.1210
12011TIP3   OH257447   2.245   3.264  14.200  0.3270 -0.3513  0.0275
12011TIP3    H157448   2.196   3.190  14.163 -0.6290 -0.0546  0.6519
12011TIP3    H257449   2.208   3.276  14.287 -1.8387  2.8472 -1.1480
12012TIP3   OH257450   0.445   5.575   3.393  0.6284 -0.3646  0.1041
12012TIP3    H157451   0.507   5.596   3.322 -0.2566  0.3106 -0.4861
12012TIP3    H257452   0.408   5.491   3.368  0.9696 -0.5554  0.2303
12013TIP3   OH257453   0.507   3.434  12.198  0.0688  0.0016  0.5629
12013TIP3    H157454   0.509   3.527  12.220  0.0979  0.2140 -0.3008
12013TIP3    H257455   0.569   3.425  12.126  0.6166 -0.8234  1.1234
12014TIP3   OH257456   1.340   5.796   3.881  0.0387 -0.3571 -0.8147
12014TIP3    H157457   1.332   5.789   3.976 -0.2569  0.2084 -0.7941
12014TIP3    H257458   1.414   5.739   3.859  0.6728  0.1779 -0.1398
12015TIP3   OH257459   0.805   2.728   4.810 -0.2525 -0.6900 -0.3199
12015TIP3    H157460   0.851   2.759   4.888 -0.4220 -3.2758  0.9275
12015TIP3    H257461   0.776   2.808   4.766  1.9841  0.9234  0.9130
12016TIP3   OH257462   6.279   2.052  11.498  0.2106  0.0874  0.0183
12016TIP3    H157463   6.201   2.107  11.502  0.8406  0.9531  0.9605
12016TIP3    H257464   6.328   2.084  11.422 -0.1026 -0.1205 -0.2729
12017TIP3   OH257465   5.081   3.046   5.834 -0.0015 -0.8621 -0.1331
12017TIP3    H157466   5.014   3.107   5.863 -0.4452 -1.5756  0.3847
12017TIP3    H257467   5.126   3.019   5.914  1.5913  0.3588 -0.5629
12018TIP3   OH257468   2.292   2.770   2.129  0.2256  0.6484  0.3501
12018TIP3    H157469   2.367   2.719   2.160 -0.3308 -0.4367 -0.0509
12018TIP3    H257470   2.308   2.858   2.164  2.0741  0.6518 -0.3831
12019TIP3   OH257471   6.402   4.832   0.578 -0.6740  0.3870 -0.2472
12019TIP3    H157472   6.489   4.848   0.616 -1.0376 -0.5423  1.0176
12019TIP3    H257473   6.351   4.909   0.603 -0.8329 -0.0916  0.9441
12020TIP3   OH257474   0.919   5.724  15.186  0.2424 -0.1136 -0.4449
12020TIP3    H157475   0.883   5.638  15.208 -2.3162  1.2714  1.2655
12020TIP3    H257476   0.926   5.770  15.269  2.7753  0.9864 -1.1566
12021TIP3   OH257477   1.516   5.788   5.426  0.2805  0.1945  0.3279
12021TIP3    H157478   1.530   5.726   5.497 -2.7338 -0.8126  0.1856
12021TIP3    H257479   1.568   5.754   5.353 -0.0678 -1.2723  0.7401
12022TIP3   OH257480   4.307   3.199   2.409  0.0776 -0.2100  0.0091
12022TIP3    H157481   4.294   3.209   2.315  0.5516  1.5904  0.1011
12022TIP3    H257482   4.301   3.288   2.444  2.0025 -0.5524  1.3872
12023TIP3   OH257483   3.320   1.380  13.335 -0.0191  0.0116  0.0851
12023TIP3    H157484   3.299   1.432  13.412 -1.5809 -0.9769  0.3766
12023TIP3    H257485   3.267   1.417  13.265  0.2723 -0.0261 -0.1600
12024TIP3   OH257486   2.930   4.832   5.619 -0.0326 -0.1622  0.2788
12024TIP3    H157487   2.987   4.872   5.553  0.7037  0.4063  1.2429
12024TIP3    H257488   2.851   4.807   5.570  0.6424 -0.0816 -0.8852
12025TIP3   OH257489   1.896   1.536  13.351  0.1942 -0.4656 -0.0411
12025TIP3    H157490   1.981   1.569  13.321  0.3779 -0.5277  0.4015
12025TIP3    H257491   1.853   1.613  13.388 -1.0097  0.1768 -2.5199
12026TIP3   OH257492   4.629   0.671   2.537  0.4651  0.5776 -0.1932
12026TIP3    H157493   4.666   0.584   2.524  1.4956  0.6185  2.1114
12026TIP3    H257494   4.547   0.656   2.584  0.2496  0.8232 -0.4847
12027TIP3   OH257495   6.108   6.124   4.507  0.3632  0.5808  0.3360
12027TIP3    H157496   6.146   6.089   4.427  1.5924  0.2457  1.0372
12027TIP3    H257497   6.028   6.169   4.479  0.1149 -0.5929 -0.8957
12028TIP3   OH257498   6.207   2.623   0.974  0.1894 -0.0884 -0.1084
12028TIP3    H157499   6.133   2.604   1.031  2.1979 -1.7247  2.1709
12028TIP3    H257500   6.220   2.543   0.923  0.5228  0.0909 -0.3086
12029TIP3   OH257501   5.317   4.209  10.353  0.3729 -0.2376  0.5193
12029TIP3    H157502   5.400   4.240  10.317  0.5726  0.0958  1.2363
12029TIP3    H257503   5.250   4.249  10.297  0.6448  1.1155  1.1082
12030TIP3   OH257504   0.507   6.716   4.573  0.0101 -0.7175 -0.0818
12030TIP3    H157505   0.435   6.694   4.632  0.8905  1.5396  2.0426
12030TIP3    H257506   0.506   6.647   4.507 -3.5357 -1.2304  0.3077
12031TIP3   OH257507   0.470   2.618   2.099 -0.6136  0.1189 -0.2805
12031TIP3    H157508   0.462   2.676   2.023 -0.0900  0.8803  0.2256
12031TIP3    H257509   0.425   2.538   2.073  1.7583 -0.6609 -2.4006
12032TIP3   OH257510   5.809   5.174  13.321 -0.0882  0.2433 -0.1900
12032TIP3    H157511   5.713   5.171  13.330 -0.0623 -0.0528  0.0136
12032TIP3    H257512   5.833   5.082  13.308  0.1530  0.3382 -0.4048
12033TIP3   OH257513   0.396   3.375  17.234 -0.7957 -0.2678  0.3856
12033TIP3    H157514   0.345   3.382  17.153 -0.4722  0.0071  0.2029
12033TIP3    H257515   0.352   3.435  17.295  0.5510  1.6688 -0.4420
12034TIP3   OH257516   1.050   3.618  17.275  0.1767 -0.1191  0.3033
12034TIP3    H157517   1.115   3.553  17.303  0.2292 -0.1604  0.0841
12034TIP3    H257518   1.027   3.592  17.186 -0.7393 -0.5861  0.6524
12035TIP3   OH257519   5.023   2.254   1.046 -0.5292  0.2366  0.3610
12035TIP3    H157520   4.985   2.170   1.072 -1.3157  0.5190  0.1494
12035TIP3    H257521   5.118   2.240   1.050 -0.6379 -0.2745  1.5728
12036TIP3   OH257522   0.644   6.413   6.046  0.8229 -0.2437 -0.1651
12036TIP3    H157523   0.709   6.381   6.109  1.3186 -0.1229 -0.6131
12036TIP3    H257524   0.659   6.507   6.042  0.5021 -0.1920 -0.1393
12037TIP3   OH257525   0.576   3.337  16.027  0.2851  0.2939  0.6278
12037TIP3    H157526   0.589   3.370  15.938  0.5229  0.5361  0.7487
12037TIP3    H257527   0.525   3.257  16.016  1.1618 -0.2301  0.1797
12038TIP3   OH257528   0.326   1.166   4.115  0.5733 -0.1417  0.4967
12038TIP3    H157529   0.283   1.135   4.035  2.2853  1.2704 -1.0669
12038TIP3    H257530   0.257   1.208   4.165 -0.3679 -0.2479 -0.6729
12039TIP3   OH257531   4.718   3.846   5.958 -0.3973  0.0152 -0.0046
12039TIP3    H157532   4.665   3.923   5.980 -2.0071 -0.8092 -0.8137
12039TIP3    H257533   4.715   3.792   6.037 -0.2249  0.2584  0.1703
12040TIP3   OH257534   5.409   5.354  14.059  0.0281 -0.7197 -0.2633
12040TIP3    H157535   5.324   5.391  14.081  0.6878 -0.2300  1.5988
12040TIP3    H257536   5.395   5.310  13.974 -1.7194  0.4708 -0.6336
12041TIP3   OH257537   1.578   0.901   2.189  0.2050  0.1167  0.2101
12041TIP3    H157538   1.544   0.867   2.272  1.3463  0.6410  0.9095
12041TIP3    H257539   1.667   0.867   2.184 -0.0419 -0.3665 -1.0849
12042TIP3   OH257540   5.112   1.255   2.992 -0.1414 -0.7917  0.4274
12042TIP3    H157541   5.093   1.334   3.042  1.4080 -0.5201  0.6170
12042TIP3    H257542   5.109   1.184   3.057 -0.1183 -0.7068  0.5206
12043TIP3   OH257543   0.252   2.376  11.629  0.0758  0.6800  0.0049
12043TIP3    H157544   0.335   2.362  11.583 -0.7203 -1.1739 -0.9713
12043TIP3    H257545   0.189   2.395  11.559 -0.3293  2.2669  0.7461
12044TIP3   OH257546   5.003   3.488   5.617 -0.1062  0.0176  0.5662
12044TIP3    H157547   5.059   3.557   5.580 -0.0875 -0.2276  0.1340
12044TIP3    H257548   5.046   3.464   5.699  0.9151 -0.7870 -0.1807
12045TIP3   OH257549   3.233   4.477   0.511 -0.3803 -0.1172 -0.2926
12045TIP3    H157550   3.138   4.489   0.514 -0.3703  0.2175 -0.9608
12045TIP3    H257551   3.249   4.437   0.426 -0.0977 -2.1381  0.6468
12046TIP3   OH257552   1.272   4.450   2.884  0.3329  0.0555 -0.6254
12046TIP3    H157553   1.235   4.363   2.870 -1.1675  0.6280 -0.4054
12046TIP3    H257554   1.363   4.434   2.909 -0.3152 -1.5567  0.9235
12047TIP3   OH257555   0.600   6.184  17.115 -0.3708 -0.1289 -0.4733
12047TIP3    H157556   0.657   6.239  17.169 -2.3846  1.0492  0.6267
12047TIP3    H257557   0.589   6.103  17.165 -0.5239  0.0992 -0.1310
12048TIP3   OH257558   0.833   1.222  17.020 -0.1811  0.3396 -0.0647
12048TIP3    H157559   0.792   1.291  17.072 -0.0427 -0.2762  0.8714
12048TIP3    H257560   0.762   1.160  17.001 -0.1003  0.2567 -0.1006
12049TIP3   OH257561   4.049   1.549  16.863 -0.1126  0.0527 -0.6458
12049TIP3    H157562   4.039   1.470  16.811 -0.2456 -0.0917 -0.4052
12049TIP3    H257563   4.069   1.518  16.951  1.2096  0.3149 -0.8387
12050TIP3   OH257564   5.532   2.016   3.764 -0.2988 -0.2632 -0.9360
12050TIP3    H157565   5.614   2.063   3.771 -0.7629  0.3056  1.2502
12050TIP3    H257566   5.520   1.973   3.849 -1.4149 -1.7990 -1.7937
12051TIP3   OH257567   1.933   1.587  16.681 -0.2811  0.0872  0.3907
12051TIP3    H157568   1.899   1.521  16.622 -0.6626  0.6532 -0.0345
12051TIP3    H257569   1.989   1.539  16.742 -0.0265 -0.5261 -0.3146
12052TIP3   OH257570   5.406   4.544   2.208 -0.0671  0.2620 -0.2753
12052TIP3    H157571   5.410   4.583   2.295  0.9432 -0.4137 -0.0027
12052TIP3    H257572   5.335   4.590   2.164 -0.3013  0.9102  0.7589
12053TIP3   OH257573   3.524   3.480  17.188 -0.8927 -0.5922 -0.5194
12053TIP3    H157574   3.561   3.410  17.134  0.9466 -0.1961  0.1576
12053TIP3    H257575   3.522   3.443  17.277 -1.6666 -0.4208 -0.4591
12054TIP3   OH257576   3.851   1.389   5.110  0.1320 -0.4220 -0.5919
12054TIP3    H157577   3.794   1.332   5.059  0.6540 -1.5592  0.0709
12054TIP3    H257578   3.929   1.337   5.128 -0.2862 -0.3408  1.9204
12055TIP3   OH257579   4.668   4.816   3.524 -0.3179 -0.0023 -0.3639
12055TIP3    H157580   4.679   4.848   3.435 -0.5738 -0.5465 -0.5990
12055TIP3    H257581   4.575   4.828   3.543 -0.3840 -0.4452 -0.3947
12056TIP3   OH257582   0.004   5.913   1.729 -0.1378  0.0331 -0.0704
12056TIP3    H157583  -0.069   5.975   1.724  0.2947  0.5807  0.3137
12056TIP3    H257584   0.082   5.968   1.725  0.2540 -0.4567  0.6872
12057TIP3   OH257585   5.448   6.057   4.311 -0.4033  0.2078 -0.1736
12057TIP3    H157586   5.500   5.982   4.284  0.8954  0.8001  0.5542
12057TIP3    H257587   5.358   6.025   4.314  0.2894 -1.8217  1.7723
12058TIP3   OH257588   2.870   5.687   3.932  0.0832 -0.0247  0.5155
12058TIP3    H157589   2.812   5.632   3.985 -0.0511  0.6578  1.1003
12058TIP3    H257590   2.958   5.657   3.954 -0.0237 -0.6402  0.1091
12059TIP3   OH257591   2.353   1.644  11.132  0.6037 -0.3059  0.0575
12059TIP3    H157592   2.417   1.703  11.172  1.4736 -1.6478  0.7622
12059TIP3    H257593   2.386   1.630  11.043 -0.8574  1.9967 -0.9327
12060TIP3   OH257594   5.470   3.887   1.383 -0.2389  0.3984 -0.4619
12060TIP3    H157595   5.553   3.864   1.343  1.6230  0.8850  2.7974
12060TIP3    H257596   5.447   3.812   1.438 -0.4029  1.4052  0.8976
12061TIP3   OH257597   5.053   2.640   3.034  0.2254 -0.0496  0.1413
12061TIP3    H157598   5.009   2.699   2.972 -0.1120 -0.9584 -0.4994
12061TIP3    H257599   5.040   2.680   3.119 -0.2966  0.6230 -0.2474
12062TIP3   OH257600   4.446   6.356   6.509 -0.0514 -0.4244 -0.3602
12062TIP3    H157601   4.457   6.309   6.427  1.3840  1.5794 -1.3930
12062TIP3    H257602   4.486   6.441   6.494 -2.1502  1.0194  1.5474
12063TIP3   OH257603   4.775   4.341   1.618  0.1056 -0.3627  0.0327
12063TIP3    H157604   4.760   4.383   1.703 -2.9787  0.2546 -0.6640
12063TIP3    H257605   4.833   4.401   1.571 -1.2492  1.3411  0.4061
12064TIP3   OH257606   2.790   4.630  11.208 -0.3118 -0.1394 -0.5006
12064TIP3    H157607   2.874   4.619  11.163  1.0589  2.5976  1.1051
12064TIP3    H257608   2.763   4.719  11.188 -1.2167  0.1129  1.5416
12065TIP3   OH257609   6.264   1.291   5.591 -0.2791 -0.1108 -0.6396
12065TIP3    H157610   6.259   1.366   5.532 -0.9136 -0.9015 -1.6389
12065TIP3    H257611   6.307   1.223   5.538 -2.2929 -1.3399 -0.7713
12066TIP3   OH257612   4.212   3.802   1.475 -0.0230 -0.1703  0.3908
12066TIP3    H157613   4.154   3.745   1.525 -1.9404  0.0056 -1.5164
12066TIP3    H257614   4.183   3.793   1.385  1.2758  1.9227 -0.3081
12067TIP3   OH257615   3.348   3.255  15.003 -0.0723 -0.1338  0.0782
12067TIP3    H157616   3.328   3.302  15.084  2.5904  2.1112 -0.4299
12067TIP3    H257617   3.277   3.277  14.943 -0.5310  0.5858  0.8762
12068TIP3   OH257618   1.936   1.899  16.962 -0.0270  0.2067  0.1967
12068TIP3    H157619   2.008   1.944  17.006 -0.1830 -0.5077  1.2237
12068TIP3    H257620   1.920   1.950  16.883 -1.1305  2.7783  1.9578
12069TIP3   OH257621   5.922   6.755  14.735 -0.3074  0.2068 -0.3793
12069TIP3    H157622   5.948   6.730  14.646  0.8528  1.0949 -0.3100
12069TIP3    H257623   5.970   6.836  14.752  0.0704 -0.3382  1.3287
12070TIP3   OH257624   3.435   4.601   0.081  0.5128 -0.1739  0.1148
12070TIP3    H157625   3.378   4.525   0.070  0.6394 -0.2065 -0.3276
12070TIP3    H257626   3.460   4.626  -0.008 -1.1650  1.6580  0.1057
12071TIP3   OH257627   2.473   2.327  16.251 -0.0946  0.4010 -0.4420
12071TIP3    H157628   2.478   2.278  16.333 -0.7314 -2.3773 -1.9551
12071TIP3    H257629   2.395   2.382  16.261 -1.0709 -1.0460  0.2872
12072TIP3   OH257630   2.094   4.310  12.030 -0.9836  0.0681 -0.3494
12072TIP3    H157631   2.031   4.370  11.988 -1.1534  0.7330  0.8050
12072TIP3    H257632   2.081   4.324  12.123 -0.1996 -0.9477 -0.0745
12073TIP3   OH257633   6.042   5.162   4.105  0.3370  0.6483  0.2525
12073TIP3    H157634   5.983   5.103   4.152  2.1393 -0.8718  0.7325
12073TIP3    H257635   6.027   5.248   4.144 -0.7855  0.1041  1.0724
12074TIP3   OH257636   4.329   1.813  13.024  0.1816 -0.4422 -1.4264
12074TIP3    H157637   4.364   1.855  13.103 -3.5527  0.9789 -0.3004
12074TIP3    H257638   4.298   1.728  13.054 -1.6894  0.2907 -1.1142
12075TIP3   OH257639   4.198   2.791   5.632  0.2773 -0.0064  0.4966
12075TIP3    H157640   4.141   2.732   5.582  1.0962  0.4941 -1.0781
12075TIP3    H257641   4.139   2.855   5.671 -0.3136 -0.0155 -0.3813
12076TIP3   OH257642   4.928   6.551   0.093  0.2038  0.3150 -0.2419
12076TIP3    H157643   4.995   6.504   0.043 -0.6511 -0.9021 -0.2841
12076TIP3    H257644   4.960   6.641   0.097  1.6530 -0.1581 -0.5816
12077TIP3   OH257645   1.886   1.335  13.555 -0.9787 -0.0299 -0.4460
12077TIP3    H157646   1.909   1.392  13.629  0.4320 -2.6249  1.2774
12077TIP3    H257647   1.875   1.395  13.481 -0.9086  2.5601  1.5097
12078TIP3   OH257648   0.989   0.642   4.673 -1.1634 -0.1947 -0.0082
12078TIP3    H157649   0.984   0.552   4.642 -3.8773  0.1592 -0.7947
12078TIP3    H257650   1.013   0.693   4.595  0.8694 -0.2209  0.5401
12079TIP3   OH257651   3.872   5.381   2.674 -0.2912 -0.1159  0.7415
12079TIP3    H157652   3.844   5.290   2.679  0.4858 -0.4308 -0.3083
12079TIP3    H257653   3.790   5.430   2.662 -0.5478 -0.9257 -1.2136
12080TIP3   OH257654   5.929   1.810  13.933 -0.1166 -0.1556 -0.2117
12080TIP3    H157655   5.999   1.745  13.928 -0.9360 -1.0085 -1.0046
12080TIP3    H257656   5.901   1.822  13.842 -0.5364  0.6991  0.0171
12081TIP3   OH257657   1.890   3.500  14.478 -0.5272  0.2596  0.7933
12081TIP3    H157658   1.839   3.422  14.454  1.4088 -0.5657 -0.8948
12081TIP3    H257659   1.973   3.490  14.432 -0.3466  3.5498  0.1450
12082TIP3   OH257660   6.487   5.106   4.602  0.1940  0.0164  0.0510
12082TIP3    H157661   6.560   5.047   4.619 -0.1682  0.3570  3.3824
12082TIP3    H257662   6.409   5.051   4.606 -0.0142  0.3709  1.3190
12083TIP3   OH257663   2.284   5.188   2.621 -0.2231 -0.1650  0.1762
12083TIP3    H157664   2.295   5.218   2.531 -1.7136  0.7858  0.2670
12083TIP3    H257665   2.217   5.247   2.657  0.2551 -0.6151  1.8595
12084TIP3   OH257666   2.234   1.235   4.070 -0.0822 -0.3862 -0.3307
12084TIP3    H157667   2.261   1.143   4.064  0.9009 -0.0271 -2.5495
12084TIP3    H257668   2.283   1.269   4.145 -0.5646 -1.6762  0.6121
12085TIP3   OH257669   0.666   6.114   3.686 -0.5873 -0.1817  0.2965
12085TIP3    H157670   0.741   6.062   3.658 -1.4463 -0.4879 -1.6014
12085TIP3    H257671   0.627   6.065   3.758 -0.7312 -1.6151 -0.7207
12086TIP3   OH257672   3.098   5.087   0.544  0.0485  0.4831 -0.1203
12086TIP3    H157673   3.071   5.130   0.625  0.8146 -0.3769  0.6134
12086TIP3    H257674   3.159   5.148   0.503 -1.3766  1.5341 -0.7695
12087TIP3   OH257675   0.773   1.509   0.477 -0.5958  0.0473  0.2506
12087TIP3    H157676   0.732   1.537   0.559 -1.5102  0.7072 -0.3999
12087TIP3    H257677   0.790   1.591   0.430 -0.3176 -0.3310 -0.3227
12088TIP3   OH257678   2.496   4.429   4.043  0.4328 -0.1972 -0.1219
12088TIP3    H157679   2.415   4.406   3.999  0.1592 -0.9789  0.7677
12088TIP3    H257680   2.558   4.448   3.972 -0.8043  1.5259 -0.8275
12089TIP3   OH257681   0.062   3.589   3.548  0.1527 -0.2303 -0.4341
12089TIP3    H157682   0.148   3.553   3.570  0.3026  0.0617 -0.5313
12089TIP3    H257683   0.032   3.631   3.628 -0.6734 -1.8084  0.1236
12090TIP3   OH257684   2.092   2.719   3.399  0.1960 -0.0077 -0.1084
12090TIP3    H157685   2.092   2.649   3.334  0.0427  0.7479 -0.9453
12090TIP3    H257686   1.999   2.735   3.416  0.2173  0.2726 -0.2454
12091TIP3   OH257687   5.932   1.436  12.845 -0.1000 -0.1898 -0.8262
12091TIP3    H157688   5.966   1.438  12.755  0.1787  0.1115 -0.7167
12091TIP3    H257689   5.874   1.360  12.847  0.5038 -0.6638 -1.0426
12092TIP3   OH257690   0.979   4.858   1.820  0.5296  0.4183 -0.1348
12092TIP3    H157691   0.888   4.850   1.790  0.0508 -2.1228  1.7154
12092TIP3    H257692   0.985   4.948   1.853 -0.7154  1.2386 -1.9477
12093TIP3   OH257693   0.925   0.935  10.984  0.1230  0.2071 -0.1386
12093TIP3    H157694   0.887   0.852  10.956  0.5925  0.4839 -1.6916
12093TIP3    H257695   1.015   0.933  10.953  0.1850  1.2342 -0.0776
12094TIP3   OH257696   5.449   4.251   3.358  0.5647  0.0440  0.0923
12094TIP3    H157697   5.430   4.183   3.294 -1.6771 -0.0889  0.8102
12094TIP3    H257698   5.515   4.306   3.316  1.5526 -1.8639 -0.9776
12095TIP3   OH257699   4.153   1.229   3.802  0.2521 -0.2884 -0.4475
12095TIP3    H157700   4.151   1.142   3.841 -1.2471 -1.3127 -2.6187
12095TIP3    H257701   4.246   1.252   3.798  0.6204 -1.4715  0.7819
12096TIP3   OH257702   5.163   0.087  13.536  0.3938  0.2156  0.2721
12096TIP3    H157703   5.071   0.099  13.561  0.0121  1.1725 -1.4339
12096TIP3    H257704   5.174  -0.008  13.531 -0.3339  0.0804  1.0365
12097TIP3   OH257705   3.124   3.677   5.720  0.4193 -0.4028 -0.1534
12097TIP3    H157706   3.114   3.747   5.655  0.5864 -0.0153  0.2397
12097TIP3    H257707   3.193   3.708   5.779 -0.2760 -0.3937  0.6746
12098TIP3   OH257708   4.285   1.242  14.566 -0.2833 -0.5511  0.6123
12098TIP3    H157709   4.364   1.273  14.611 -1.3160  1.2085  1.3031
12098TIP3    H257710   4.219   1.237  14.635 -1.1019 -0.8331 -0.1838
12099TIP3   OH257711   6.669   3.627  14.620  0.2454  0.0917 -0.0501
12099TIP3    H157712   6.617   3.631  14.539  0.1421  1.0102  0.0541
12099TIP3    H257713   6.611   3.585  14.684  0.2857 -0.5308 -0.4094
12100TIP3   OH257714   5.823   2.567   1.686  0.0091  0.4608 -0.0824
12100TIP3    H157715   5.825   2.512   1.765 -0.5875 -1.6522 -1.4552
12100TIP3    H257716   5.733   2.560   1.654 -0.2348  2.7160 -0.0659
12101TIP3   OH257717   5.381   0.414  13.271 -0.5005 -0.4038  0.1289
12101TIP3    H157718   5.310   0.421  13.335 -0.9237 -1.7614 -0.1499
12101TIP3    H257719   5.383   0.499  13.228  0.7609  1.0867  2.8660
12102TIP3   OH257720   6.099   3.534   4.119  0.4999  0.1356 -0.1733
12102TIP3    H157721   6.077   3.444   4.095  0.1879  0.2639 -0.3768
12102TIP3    H257722   6.039   3.588   4.067  0.2273  0.4385  0.4379
12103TIP3   OH257723   0.983   0.007  14.219  0.0195 -0.4270  0.3335
12103TIP3    H157724   0.942   0.086  14.255  2.1555  0.8440  0.1156
12103TIP3    H257725   0.941  -0.065  14.266 -0.8963  0.9037  1.6368
12104TIP3   OH257726   6.294   0.185   2.979  0.7195 -0.3815  0.5318
12104TIP3    H157727   6.322   0.095   2.962 -0.9778 -0.7912 -0.3792
12104TIP3    H257728   6.321   0.234   2.901 -0.7129 -0.7147 -0.2126
12105TIP3   OH257729   6.607   6.257   2.141 -0.3810 -0.1944  0.6425
12105TIP3    H157730   6.687   6.293   2.103 -0.2592 -0.0799  0.9994
12105TIP3    H257731   6.560   6.334   2.174 -0.4765 -0.2947  0.7390
12106TIP3   OH257732   3.797   4.208  14.412 -0.3234 -0.4313 -0.4426
12106TIP3    H157733   3.778   4.292  14.371  1.0232 -0.2178 -0.6853
12106TIP3    H257734   3.893   4.203  14.413 -0.3763 -1.8339 -0.1632
12107TIP3   OH257735   4.584   6.437   5.423 -0.4380  0.0509 -0.3699
12107TIP3    H157736   4.635   6.517   5.436 -2.7706  1.8071 -1.3388
12107TIP3    H257737   4.641   6.379   5.373  0.6685  1.8334 -1.2362
12108TIP3   OH257738   3.106   6.256  13.575 -0.1290 -0.3370  0.4623
12108TIP3    H157739   3.124   6.348  13.593  0.6337 -0.2163 -0.7786
12108TIP3    H257740   3.012   6.246  13.591  0.0739  0.2323  2.2331
12109TIP3   OH257741   0.938   3.408   5.241  0.0043  0.0191  0.2106
12109TIP3    H157742   0.917   3.501   5.233 -1.6013 -0.2594  0.8038
12109TIP3    H257743   1.000   3.403   5.314 -0.4248  0.5684  0.6217
12110TIP3   OH257744   0.418   3.781   3.386 -0.4522  0.0207 -0.1184
12110TIP3    H157745   0.384   3.696   3.359  0.4504 -0.5187  0.3859
12110TIP3    H257746   0.437   3.826   3.304 -0.6677 -0.3705 -0.3892
12111TIP3   OH257747   5.200   3.691   1.525 -0.0749 -0.1974  0.2048
12111TIP3    H157748   5.120   3.647   1.497  0.0588  0.6941 -1.6507
12111TIP3    H257749   5.176   3.783   1.534  0.3003 -0.1950  1.5422
12112TIP3   OH257750   6.584   0.587  14.237  0.8925 -0.3308 -0.5424
12112TIP3    H157751   6.521   0.657  14.221  1.6738  0.5205  0.0182
12112TIP3    H257752   6.538   0.507  14.212 -0.5926  0.2192  0.3141
12113TIP3   OH257753   0.389   5.207   4.229  0.3194 -0.4008 -0.6875
12113TIP3    H157754   0.354   5.294   4.246 -1.4636 -1.3062  0.6897
12113TIP3    H257755   0.462   5.197   4.289 -0.1968 -0.2469 -0.0243
12114TIP3   OH257756   1.015   0.280  13.843  0.2585 -0.0602 -0.9388
12114TIP3    H157757   1.104   0.268  13.810  0.3059 -0.1098 -0.7940
12114TIP3    H257758   0.968   0.203  13.812  0.4046 -0.3122 -0.5472
12115TIP3   OH257759   5.642   5.661  15.872  0.2235  0.6115 -0.4113
12115TIP3    H157760   5.687   5.698  15.948  0.7788  1.6695 -1.2301
12115TIP3    H257761   5.572   5.724  15.853  0.0638  0.3309 -0.7540
12116TIP3   OH257762   0.795   0.433   1.333 -0.0325  0.3450 -0.2414
12116TIP3    H157763   0.703   0.444   1.358  0.0658 -0.3680  0.5044
12116TIP3    H257764   0.818   0.346   1.367  0.1695 -0.6533 -2.7596
12117TIP3   OH257765   3.262   4.023  10.680  0.1774 -0.2315 -0.0070
12117TIP3    H157766   3.212   3.948  10.648  1.7307 -1.0706 -0.5816
12117TIP3    H257767   3.221   4.098  10.639 -0.1453 -0.9747 -1.0925
12118TIP3   OH257768   4.009   5.325   2.358  0.1802  0.5410  0.2281
12118TIP3    H157769   4.071   5.305   2.288 -0.3917  0.0298 -0.1353
12118TIP3    H257770   4.036   5.269   2.431 -0.5069 -0.4956 -0.2909
12119TIP3   OH257771   3.464   0.700   4.864  0.2588  0.8197 -0.8639
12119TIP3    H157772   3.488   0.621   4.913  0.1163  0.5383 -1.2425
12119TIP3    H257773   3.504   0.688   4.778 -1.2767  0.3046 -1.5403
12120TIP3   OH257774   2.641   6.290  11.793  0.0281  0.6169 -0.1024
12120TIP3    H157775   2.569   6.236  11.760 -0.5372  0.7226  0.9287
12120TIP3    H257776   2.718   6.257  11.748 -0.0312 -2.1230  1.5913
12121TIP3   OH257777   1.120   5.725  11.528 -0.2000  0.3284  0.7430
12121TIP3    H157778   1.094   5.781  11.601  0.4371  2.1352 -0.3551
12121TIP3    H257779   1.211   5.747  11.511 -0.8178  1.3468 -1.7327
12122TIP3   OH257780   4.878   4.626  13.843  0.4072  0.0854 -0.2518
12122TIP3    H157781   4.847   4.685  13.774  1.2963  0.4741 -0.3206
12122TIP3    H257782   4.882   4.540  13.801 -1.3008 -0.1418 -0.0374
12123TIP3   OH257783   6.073   4.463   0.991 -0.5052 -0.2605 -0.0253
12123TIP3    H157784   6.060   4.469   1.086  0.8896 -0.9750  0.2380
12123TIP3    H257785   5.990   4.492   0.954 -0.8021  0.8808  1.3955
12124TIP3   OH257786   4.221   1.780  13.416  0.1372  0.0308  0.2132
12124TIP3    H157787   4.313   1.792  13.394 -0.0556  1.9683  0.2535
12124TIP3    H257788   4.182   1.744  13.336  0.7070  0.3586 -0.2204
12125TIP3   OH257789   0.663   1.594   0.708 -0.1954  0.2034  0.1753
12125TIP3    H157790   0.644   1.543   0.787  0.2270 -0.8754 -0.4035
12125TIP3    H257791   0.577   1.623   0.677 -0.3003  1.5293  1.5876
12126TIP3   OH257792   4.114   4.379  12.844  0.0305 -0.4955  0.4834
12126TIP3    H157793   4.194   4.377  12.793  0.4260 -1.3214  1.1196
12126TIP3    H257794   4.144   4.381  12.935 -0.6614 -1.2208  0.7389
12127TIP3   OH257795   6.040   1.620  15.299 -0.5991  0.2285 -0.3494
12127TIP3    H157796   6.022   1.654  15.386 -1.3140 -2.3379  0.5941
12127TIP3    H257797   6.135   1.608  15.297 -0.2520  2.6269 -0.9155
12128TIP3   OH257798   1.288   4.278  14.919 -0.0610 -0.1372 -0.4097
12128TIP3    H157799   1.259   4.317  14.837 -0.3352  1.4192  0.4049
12128TIP3    H257800   1.382   4.294  14.921 -0.0902  0.0164 -0.3096
12129TIP3   OH257801   4.650   1.801   4.148 -0.5052  0.0218  0.1185
12129TIP3    H157802   4.632   1.892   4.123  0.2985  0.1306 -0.0983
12129TIP3    H257803   4.746   1.796   4.153 -0.5756 -0.3762  1.7954
12130TIP3   OH257804   3.076   1.753  14.871  0.0269  0.4396 -0.0521
12130TIP3    H157805   3.034   1.801  14.800 -0.2113  2.3420  1.3028
12130TIP3    H257806   3.119   1.821  14.924  1.9772 -1.1167  0.4765
12131TIP3   OH257807   0.994   6.661   6.702  0.0330 -0.3085 -0.4365
12131TIP3    H157808   1.067   6.668   6.765 -1.2214 -2.3876  1.4174
12131TIP3    H257809   0.918   6.691   6.751 -0.8631 -1.2846 -1.1832
12132TIP3   OH257810   2.289   5.177   4.249 -0.1414  0.0858 -0.6699
12132TIP3    H157811   2.241   5.095   4.260 -0.0666  0.2044  0.7021
12132TIP3    H257812   2.305   5.183   4.154  1.2229 -2.2671 -0.6721
12133TIP3   OH257813   2.854   2.518   3.049 -0.6506 -0.0892  0.6922
12133TIP3    H157814   2.844   2.610   3.025  1.7017  0.3656  1.1889
12133TIP3    H257815   2.947   2.499   3.032 -0.6115 -1.7996  2.4868
12134TIP3   OH257816   4.007   5.883  12.535  0.8951 -0.8026 -0.0197
12134TIP3    H157817   4.083   5.900  12.591  0.5723 -0.8594  0.4415
12134TIP3    H257818   4.038   5.902  12.446  1.2237 -0.0712  0.2414
12135TIP3   OH257819   5.553   1.364  17.306  0.3010  0.1597 -0.1957
12135TIP3    H157820   5.646   1.365  17.284  0.4346 -0.1349  0.3443
12135TIP3    H257821   5.509   1.397  17.227  0.8023 -0.4921 -0.7642
12136TIP3   OH257822   2.216   4.169  13.105 -0.2471 -0.3734  0.6579
12136TIP3    H157823   2.194   4.077  13.090 -0.0885 -0.3734  0.4265
12136TIP3    H257824   2.183   4.188  13.193  1.7244 -1.2630  1.6454
12137TIP3   OH257825   0.544   2.976   2.704 -0.1894  0.9972  0.4642
12137TIP3    H157826   0.570   2.923   2.780  0.1597  0.2293 -0.1771
12137TIP3    H257827   0.625   2.990   2.656 -0.5138  0.8980 -0.1234
12138TIP3   OH257828   2.613   3.629   6.134  0.6493  0.5036 -0.6929
12138TIP3    H157829   2.517   3.633   6.140  0.6474 -0.5176  0.4657
12138TIP3    H257830   2.641   3.608   6.223  2.0029  1.3693 -0.8811
12139TIP3   OH257831   0.425   0.050  13.421  0.5456  0.1800  0.1570
12139TIP3    H157832   0.408   0.135  13.462 -3.9240 -0.2157 -0.3982
12139TIP3    H257833   0.441  -0.009  13.494  1.0327  0.9848  0.7172
12140TIP3   OH257834   5.058   0.230   4.987 -0.5676  0.2734 -0.2795
12140TIP3    H157835   4.966   0.247   4.966 -0.8092 -0.8934 -0.2097
12140TIP3    H257836   5.100   0.214   4.903 -0.1775  1.8442 -0.4210
12141TIP3   OH257837   6.483   4.037   4.960 -0.0925  0.0559  0.5680
12141TIP3    H157838   6.533   3.972   5.010 -0.2883  0.3854  1.1950
12141TIP3    H257839   6.487   4.117   5.013 -0.6714  0.2906  0.2686
12142TIP3   OH257840   0.061   6.302  12.632 -0.0014  0.0257  0.2833
12142TIP3    H157841   0.033   6.370  12.693 -1.1425 -0.8977  0.8207
12142TIP3    H257842   0.149   6.279  12.662 -0.2048  0.1983  1.0435
12143TIP3   OH257843   2.374   1.067  14.206  0.5806 -0.2874  0.2428
12143TIP3    H157844   2.350   0.975  14.221  0.9883 -0.1443  1.9412
12143TIP3    H257845   2.296   1.106  14.166  0.0856 -1.1610  0.3312
12144TIP3   OH257846   2.209   5.632   0.826 -0.0857 -0.3903  0.1218
12144TIP3    H157847   2.198   5.679   0.743 -1.3363 -0.9244 -0.0361
12144TIP3    H257848   2.165   5.688   0.891 -1.1928 -1.1038  0.0073
12145TIP3   OH257849   0.769   3.146   0.455 -0.2591 -0.0600 -0.3892
12145TIP3    H157850   0.729   3.098   0.383  1.9894 -0.2887 -1.5523
12145TIP3    H257851   0.753   3.090   0.532 -1.9417 -0.2183 -0.8075
12146TIP3   OH257852   1.924   4.854  15.395  0.6187  0.3861  0.0023
12146TIP3    H157853   1.852   4.806  15.353 -0.4102  0.0684  2.0042
12146TIP3    H257854   1.946   4.802  15.472  0.6726  2.2073  1.2886
12147TIP3   OH257855   0.087   2.025   2.733 -0.5874 -0.3839  0.4990
12147TIP3    H157856   0.020   2.090   2.714 -0.3104 -0.6603 -1.7168
12147TIP3    H257857   0.169   2.067   2.706  0.0166 -0.4838  2.0708
12148TIP3   OH257858   0.512   6.199   3.104 -0.0414  0.4620 -0.1895
12148TIP3    H157859   0.472   6.186   3.018 -0.3922 -0.2322  0.0709
12148TIP3    H257860   0.443   6.176   3.166  0.3180  0.6316  0.2733
12149TIP3   OH257861   3.565   6.538  14.232  0.3245  0.5877 -0.2780
12149TIP3    H157862   3.483   6.584  14.210 -0.4530  0.0213  1.2756
12149TIP3    H257863   3.575   6.472  14.163 -0.7262  0.4374 -0.3045
12150TIP3   OH257864   0.181   2.714  12.182 -0.2097  0.5097 -0.4560
12150TIP3    H157865   0.259   2.671  12.146  0.0509  1.2498 -0.7945
12150TIP3    H257866   0.109   2.684  12.126 -0.2981 -0.6935  0.2540
12151TIP3   OH257867   6.114   4.357   2.589 -0.8160  0.0541  0.7998
12151TIP3    H157868   6.129   4.305   2.510 -0.9857  0.8602  0.2339
12151TIP3    H257869   6.150   4.443   2.569 -2.0728  0.6767  1.0955
12152TIP3   OH257870   0.767   5.579  17.067 -0.1804  0.1048  0.1624
12152TIP3    H157871   0.832   5.509  17.059 -0.9122 -0.5966  0.1109
12152TIP3    H257872   0.817   5.660  17.064  0.6455 -0.4106 -0.3253
12153TIP3   OH257873   2.303   3.121  13.046 -0.5835  0.2131 -0.2977
12153TIP3    H157874   2.319   3.031  13.075  1.6202  1.4222  2.7314
12153TIP3    H257875   2.209   3.134  13.057 -0.4828 -0.7894  2.3763
12154TIP3   OH257876   4.080   6.003  13.250  0.3901  0.1518  0.7890
12154TIP3    H157877   4.116   6.075  13.197 -3.1173  0.4238 -1.5986
12154TIP3    H257878   3.997   6.037  13.283 -1.8905 -2.9071 -1.2039
12155TIP3   OH257879   1.417   3.186   3.330  0.2118  0.4777  0.0793
12155TIP3    H157880   1.502   3.142   3.331  0.4474  0.8664 -0.9555
12155TIP3    H257881   1.424   3.254   3.397  0.7445  0.5337 -0.0299
12156TIP3   OH257882   2.416   1.121   2.776  0.2172  0.1720 -0.3518
12156TIP3    H157883   2.511   1.121   2.761  0.4575  1.2970  0.9922
12156TIP3    H257884   2.401   1.196   2.833 -1.2152 -1.1541  1.1029
12157TIP3   OH257885   5.516   1.737   4.219  0.1369  0.5131  0.0946
12157TIP3    H157886   5.580   1.675   4.185 -0.3401  0.8643 -1.5303
12157TIP3    H257887   5.563   1.789   4.284  1.8425  1.5404 -1.8802
12158TIP3   OH257888   0.213   4.310  15.928  0.2567 -0.2655  0.4909
12158TIP3    H157889   0.236   4.403  15.928 -0.8079  0.0571 -1.4910
12158TIP3    H257890   0.199   4.289  16.020 -0.8802  1.9277  0.8865
12159TIP3   OH257891   5.965   3.657  15.639  0.2151  0.1028  0.3778
12159TIP3    H157892   5.916   3.579  15.664  1.0025 -0.5004  0.0687
12159TIP3    H257893   5.910   3.700  15.573 -0.4746  0.1165  0.9454
12160TIP3   OH257894   4.224   2.030   1.842 -0.3653  0.0961  0.1818
12160TIP3    H157895   4.202   2.101   1.782  0.2419 -0.1391 -0.3325
12160TIP3    H257896   4.182   2.054   1.925 -1.1192  0.4805 -0.3011
12161TIP3   OH257897   5.571   4.747   3.097  0.0622  0.2528 -0.3395
12161TIP3    H157898   5.591   4.685   3.027  2.9704 -0.3118  0.8160
12161TIP3    H257899   5.510   4.701   3.155 -0.3263 -0.2604 -1.1495
12162TIP3   OH257900   3.128   3.410   3.241  0.2380  0.1022 -0.1932
12162TIP3    H157901   3.108   3.389   3.332  2.4231 -0.6586  0.1566
12162TIP3    H257902   3.098   3.334   3.192 -0.6722  0.3874 -0.1031
12163TIP3   OH257903   2.544   3.491   3.363  0.1872 -0.2577 -0.0763
12163TIP3    H157904   2.632   3.515   3.332 -0.0869 -0.3868 -0.9594
12163TIP3    H257905   2.499   3.458   3.286 -0.4214 -0.8427  0.5163
12164TIP3   OH257906   3.420   5.345  16.701  0.7146  0.2071  0.2368
12164TIP3    H157907   3.401   5.252  16.718  1.2590  0.0047 -0.2291
12164TIP3    H257908   3.335   5.383  16.682  0.7705 -0.9134 -2.8992
12165TIP3   OH257909   6.598   1.688  15.851  0.0154  0.0169  0.2256
12165TIP3    H157910   6.670   1.643  15.807  1.5491  1.2758  1.3093
12165TIP3    H257911   6.603   1.659  15.942  0.5213  1.6430  0.7693
12166TIP3   OH257912   6.132   5.607   1.705  0.5175  0.5941 -0.3933
12166TIP3    H157913   6.060   5.634   1.649 -0.0987  1.4764  0.7880
12166TIP3    H257914   6.207   5.601   1.646 -0.8102 -2.0676 -2.0101
12167TIP3   OH257915   6.139   1.501   5.431  0.4934 -0.0337 -0.0700
12167TIP3    H157916   6.151   1.549   5.513  0.0099  2.6442 -1.4370
12167TIP3    H257917   6.159   1.566   5.363 -3.6020 -0.6399 -2.1544
12168TIP3   OH257918   4.616   0.933  16.294  0.0448 -0.0513 -0.0229
12168TIP3    H157919   4.594   0.942  16.386  0.7333  1.4100  0.0163
12168TIP3    H257920   4.711   0.932  16.292  0.0762 -2.1565 -0.5678
12169TIP3   OH257921   6.254   1.606  13.492  0.2840 -0.5935  0.1555
12169TIP3    H157922   6.300   1.687  13.473 -0.3145 -0.3809 -0.4542
12169TIP3    H257923   6.322   1.540  13.499  0.6679 -0.3532 -1.0700
12170TIP3   OH257924   0.116   4.724   0.887  0.3941 -0.2185  0.2761
12170TIP3    H157925   0.072   4.790   0.941  1.0568  1.5246 -1.2070
12170TIP3    H257926   0.045   4.676   0.845 -0.0949 -0.1338  0.9860
12171TIP3   OH257927   3.327   2.648  11.000  0.1623 -0.1619 -0.1550
12171TIP3    H157928   3.358   2.595  10.926 -1.0928  1.9598 -2.3313
12171TIP3    H257929   3.232   2.650  10.991  0.1612  2.8163 -0.5152
12172TIP3   OH257930   5.561   1.813  12.462 -0.0357 -0.1494 -0.4588
12172TIP3    H157931   5.606   1.818  12.546  0.1353 -0.6504 -0.5175
12172TIP3    H257932   5.499   1.740  12.472 -2.5478  1.9622  0.4362
12173TIP3   OH257933   1.518   6.539  11.536  0.2080  0.1797  0.0906
12173TIP3    H157934   1.558   6.453  11.525  1.0129  0.3137  1.6745
12173TIP3    H257935   1.541   6.587  11.456  0.4069 -0.7978 -0.4591
12174TIP3   OH257936   5.373   3.668   0.288  0.6170  0.3353 -0.3936
12174TIP3    H157937   5.347   3.618   0.365  0.3038 -1.3360 -1.5268
12174TIP3    H257938   5.463   3.640   0.271  0.7813  0.9050 -0.4993
12175TIP3   OH257939   0.695   3.309   5.159  0.2998 -0.2497  0.5340
12175TIP3    H157940   0.658   3.359   5.086 -0.1146 -0.0561  0.8790
12175TIP3    H257941   0.771   3.360   5.187  0.5231 -0.3778  0.1738
12176TIP3   OH257942   1.163   5.617   5.680  0.8017 -0.1934 -0.5472
12176TIP3    H157943   1.175   5.534   5.727  0.6081 -0.2515 -0.5974
12176TIP3    H257944   1.119   5.592   5.599 -1.6825  0.2286  0.5798
12177TIP3   OH257945   3.613   1.758   0.207  0.2774  0.5092  0.2459
12177TIP3    H157946   3.687   1.801   0.251  0.9845  0.2077 -0.6042
12177TIP3    H257947   3.566   1.713   0.277  0.6947  0.9953  0.8528
12178TIP3   OH257948   1.929   5.402  14.710 -0.7183 -0.8027  0.2078
12178TIP3    H157949   1.874   5.326  14.689 -0.3845 -0.6045 -1.4864
12178TIP3    H257950   1.907   5.467  14.644  1.1412 -0.5137 -0.1732
12179TIP3   OH257951   0.117   3.185  12.714 -0.6408  0.8457  0.0694
12179TIP3    H157952   0.029   3.154  12.692  0.6891 -2.8198 -0.7914
12179TIP3    H257953   0.123   3.170  12.809 -0.8698  0.9264  0.0990
12180TIP3   OH257954   0.632   1.501   3.367  0.4048  0.0991 -0.4665
12180TIP3    H157955   0.639   1.581   3.315  2.1135  0.5458  0.3750
12180TIP3    H257956   0.577   1.525   3.441  0.1676  0.2400 -0.6888
12181TIP3   OH257957   0.575   1.854  12.011  0.0694  0.0590 -1.0070
12181TIP3    H157958   0.629   1.781  12.041 -1.4696  0.5693  3.8752
12181TIP3    H257959   0.497   1.813  11.973  0.5427 -0.7701 -1.0967
12182TIP3   OH257960   2.870   6.591  11.491  0.3711 -0.7644  0.2047
12182TIP3    H157961   2.914   6.615  11.409 -0.4258 -1.6973 -0.5273
12182TIP3    H257962   2.940   6.558  11.547  1.0494  0.6565  0.2108
12183TIP3   OH257963   1.547   3.652   1.628  0.1863 -0.6265 -0.4189
12183TIP3    H157964   1.459   3.641   1.593  0.7300  0.8487 -2.4655
12183TIP3    H257965   1.545   3.737   1.672  0.7307 -0.2264 -1.1302
12184TIP3   OH257966   0.205   0.811   2.496 -0.0023 -0.1567 -0.0593
12184TIP3    H157967   0.191   0.836   2.404  2.0738  0.0757 -0.3556
12184TIP3    H257968   0.191   0.892   2.545  2.1387  0.5802 -0.5514
12185TIP3   OH257969   0.973   2.829   4.390  0.1085  0.0136 -0.0528
12185TIP3    H157970   1.001   2.880   4.466  2.0049 -0.1269 -0.6007
12185TIP3    H257971   0.929   2.891   4.333 -1.0050  0.1977  0.9847
12186TIP3   OH257972   4.735   5.215   4.511 -0.4803 -0.1353 -0.1632
12186TIP3    H157973   4.710   5.231   4.602 -0.8967 -1.1057 -0.0983
12186TIP3    H257974   4.808   5.276   4.496  0.4726 -0.8561  1.2241
12187TIP3   OH257975   0.969   2.854  16.365 -0.1332  0.7552  0.0166
12187TIP3    H157976   1.061   2.844  16.389 -0.3033 -0.6346  0.1594
12187TIP3    H257977   0.928   2.772  16.391 -1.0044  0.5227 -1.9468
12188TIP3   OH257978   1.502   3.203   0.280  0.2529 -0.1016  0.0818
12188TIP3    H157979   1.566   3.215   0.210  0.0486  1.3702  0.1232
12188TIP3    H257980   1.503   3.285   0.328 -0.8227 -0.4880  0.7954
12189TIP3   OH257981   0.774   5.991   2.340  0.8087 -0.3083  0.0163
12189TIP3    H157982   0.822   5.961   2.262  0.7031 -0.5973  0.0634
12189TIP3    H257983   0.742   5.911   2.381  0.7371 -0.1459  0.2778
12190TIP3   OH257984   6.738   2.844  14.601  0.2358  0.1395 -0.3498
12190TIP3    H157985   6.795   2.767  14.597  1.6147  1.1715 -4.5316
12190TIP3    H257986   6.650   2.808  14.589  0.3677 -1.0414  1.6878
12191TIP3   OH257987   0.123   4.493   1.297 -0.7239  0.0235 -0.0011
12191TIP3    H157988   0.153   4.436   1.227 -0.7334  0.2408 -0.1854
12191TIP3    H257989   0.049   4.447   1.336 -1.7968  0.6415 -1.2221
12192TIP3   OH257990   0.552   1.315   4.693 -0.4602 -0.7475  0.4682
12192TIP3    H157991   0.615   1.326   4.764  0.3167  2.6113 -0.5380
12192TIP3    H257992   0.472   1.286   4.735  0.7312 -1.5286  2.3081
12193TIP3   OH257993   1.295   6.346   5.929  0.0504  0.0305 -0.2427
12193TIP3    H157994   1.351   6.281   5.971  0.5438  0.5399 -0.1038
12193TIP3    H257995   1.243   6.296   5.866 -0.7655 -0.7575  1.0055
12194TIP3   OH257996   0.597   1.703  11.355 -0.3181  0.3689  0.7189
12194TIP3    H157997   0.570   1.777  11.409  0.1275  0.2129  1.1605
12194TIP3    H257998   0.539   1.631  11.381  0.7207 -0.0599  1.9078
12195TIP3   OH257999   3.832   3.536  17.343 -0.0377  0.2530 -0.0392
12195TIP3    H158000   3.912   3.491  17.315 -0.7578 -0.0112 -1.7495
12195TIP3    H258001   3.831   3.525  17.438  0.1068 -2.9027 -0.2996
12196TIP3   OH258002   0.654   0.944   2.768 -0.0017 -0.4987  0.4584
12196TIP3    H158003   0.709   0.993   2.706  0.4192 -1.3380  0.1525
12196TIP3    H258004   0.588   1.007   2.796 -0.9814 -0.4202 -1.8202
12197TIP3   OH258005   1.912   6.696  15.791  0.4109  0.1249  0.2546
12197TIP3    H158006   1.877   6.701  15.702 -1.8635  1.8540  1.1322
12197TIP3    H258007   1.957   6.612  15.795 -1.0129 -0.8334 -1.9843
12198TIP3   OH258008   2.692   4.258  16.614 -0.5050  0.0252  0.0753
12198TIP3    H158009   2.666   4.331  16.557 -0.2371 -1.0247 -1.4674
12198TIP3    H258010   2.612   4.233  16.659 -0.3520  2.0314  1.5958
12199TIP3   OH258011   2.155   2.154   3.690 -0.3221 -0.8095 -0.5482
12199TIP3    H158012   2.224   2.180   3.629 -1.8903  0.6513 -1.8002
12199TIP3    H258013   2.173   2.203   3.770  0.4120 -0.9028 -0.6521
12200TIP3   OH258014   4.340   0.830   4.792 -0.3226 -0.7472  0.0531
12200TIP3    H158015   4.308   0.740   4.790 -0.8138 -0.5688 -1.8823
12200TIP3    H258016   4.299   0.872   4.717 -1.2510  1.5229  1.7214
12201TIP3   OH258017   2.440   5.517  13.099 -0.2603 -0.2552  0.4601
12201TIP3    H158018   2.466   5.599  13.141 -1.1183 -0.0883  0.6821
12201TIP3    H258019   2.373   5.542  13.036  1.1109 -0.4880 -1.1582
12202TIP3   OH258020   0.577   0.737  16.265  0.0784 -0.3951 -0.5357
12202TIP3    H158021   0.590   0.829  16.285  0.1365 -0.3676 -0.7007
12202TIP3    H258022   0.483   0.728  16.252  0.0897 -0.3321 -0.6577
12203TIP3   OH258023   2.127   1.075  12.972  0.0267 -0.2824 -0.9986
12203TIP3    H158024   2.041   1.094  13.008 -0.2609 -0.4372 -1.6031
12203TIP3    H258025   2.115   0.996  12.918  1.0156 -1.7299  0.7657
12204TIP3   OH258026   1.055   1.098  17.159  0.0766  0.1278 -0.4089
12204TIP3    H158027   0.974   1.124  17.203  0.1261  0.6278 -0.6154
12204TIP3    H258028   1.048   1.133  17.071  0.8080  0.7431 -0.2344
12205TIP3   OH258029   1.958   2.566   5.013  0.0290 -0.4357  0.1315
12205TIP3    H158030   1.951   2.653   4.972  2.0033  0.6783  1.9798
12205TIP3    H258031   1.977   2.507   4.940 -1.8617  0.5154 -1.2475
12206TIP3   OH258032   1.774   3.092   0.844 -0.1502  0.0372 -0.5102
12206TIP3    H158033   1.865   3.064   0.843 -0.4076 -0.8558 -0.4850
12206TIP3    H258034   1.777   3.187   0.843  0.7372  0.0643 -3.8118
12207TIP3   OH258035   0.626   0.650  14.332  0.2118  0.2606  0.0241
12207TIP3    H158036   0.612   0.730  14.281  0.1112  1.2220  1.5089
12207TIP3    H258037   0.571   0.661  14.409  2.8762  0.4242  2.0288
12208TIP3   OH258038   1.112   0.883  13.300 -0.2197  0.0162  0.3837
12208TIP3    H158039   1.126   0.854  13.210  2.0674  1.7843  0.1058
12208TIP3    H258040   1.172   0.956  13.312 -1.3266  0.6108  2.9937
12209TIP3   OH258041   1.501   4.835  13.256  0.0506  0.3570  0.3860
12209TIP3    H158042   1.591   4.811  13.280  0.2734 -1.0453 -1.5807
12209TIP3    H258043   1.511   4.895  13.182 -0.6455  1.8142  1.4307
12210TIP3   OH258044   4.086   5.651  12.935 -0.0867  0.1107 -0.2255
12210TIP3    H158045   4.112   5.604  13.014  1.3696  0.9047 -0.2160
12210TIP3    H258046   4.103   5.743  12.954 -3.1071  0.7589 -0.1610
12211TIP3   OH258047   6.615   1.129  16.228 -0.5548 -0.3118 -0.5247
12211TIP3    H158048   6.689   1.121  16.287 -1.4165  0.2542  0.6672
12211TIP3    H258049   6.591   1.038  16.208  0.7036 -0.5024 -1.2793
12212TIP3   OH258050   1.999   1.169   3.138 -0.2736  0.5520 -0.1759
12212TIP3    H158051   2.082   1.178   3.184 -0.8967 -0.9948  1.3775
12212TIP3    H258052   2.011   1.092   3.083 -0.5388  0.5587 -0.2425
12213TIP3   OH258053   0.129   5.444  16.439 -0.0738  0.2375  0.4026
12213TIP3    H158054   0.088   5.411  16.519  0.9515  0.0784  0.8814
12213TIP3    H258055   0.142   5.537  16.456  1.0939  0.0041  0.8546
12214TIP3   OH258056   4.080   2.203   4.523  0.0526  0.0137  0.2464
12214TIP3    H158057   4.117   2.287   4.495 -2.1935  0.7178 -0.8939
12214TIP3    H258058   4.151   2.140   4.515  1.3255  1.4960 -0.5278
12215TIP3   OH258059   2.384   5.807  12.848 -0.0159 -0.1720  0.2786
12215TIP3    H158060   2.359   5.897  12.871 -2.2978 -1.2069  2.1866
12215TIP3    H258061   2.408   5.812  12.755  0.8391  2.5422  0.5530
12216TIP3   OH258062   4.965   5.003   2.795  0.3417 -0.3540 -0.0801
12216TIP3    H158063   4.957   4.932   2.859  0.3415 -0.2454  0.0399
12216TIP3    H258064   5.054   5.036   2.806  0.0695  0.2213  0.4503
12217TIP3   OH258065   4.195   4.815   4.804 -0.0580 -0.0005 -0.0498
12217TIP3    H158066   4.117   4.785   4.757 -1.5574  0.4483  2.0163
12217TIP3    H258067   4.241   4.735   4.828  0.4550 -0.2497 -1.7692
12218TIP3   OH258068   4.566   2.259   0.356 -0.2250 -0.0279  0.0615
12218TIP3    H158069   4.612   2.300   0.429 -0.9751 -1.9627  1.7280
12218TIP3    H258070   4.567   2.166   0.377 -3.3174 -0.3398 -0.7278
12219TIP3   OH258071   0.233   2.399  11.921  0.4896  0.0563 -0.3046
12219TIP3    H158072   0.243   2.381  11.828 -1.9565  2.9264 -1.3146
12219TIP3    H258073   0.162   2.341  11.949  1.1748 -0.7551 -0.2296
12220TIP3   OH258074   0.918   5.991   3.646 -0.0228 -0.3735  0.5462
12220TIP3    H158075   0.900   6.024   3.558  1.9578 -0.0505  0.2081
12220TIP3    H258076   0.932   5.897   3.634  2.7596  0.0249  0.0018
12221TIP3   OH258077   3.517   2.052  12.521 -0.4543  0.1114  0.2058
12221TIP3    H158078   3.585   2.105  12.481  0.9862 -1.8422 -0.1124
12221TIP3    H258079   3.439   2.107  12.520  1.1620  2.5541  0.8869
12222TIP3   OH258080   4.948   5.504  15.711 -0.1813 -0.1864  0.2244
12222TIP3    H158081   4.935   5.599  15.711 -0.0483 -0.1578  1.3159
12222TIP3    H258082   4.859   5.468  15.704 -0.1424 -0.0194 -2.0256
12223TIP3   OH258083   0.889   5.899   0.205 -0.1686 -0.3520 -0.2815
12223TIP3    H158084   0.874   5.824   0.148  1.2170 -1.5428  0.8281
12223TIP3    H258085   0.806   5.946   0.206 -0.9071 -1.5729 -1.4366
12224TIP3   OH258086   0.189   6.323  16.635  0.0500 -0.1711 -0.1213
12224TIP3    H158087   0.273   6.363  16.616  0.2598 -0.2765  0.5603
12224TIP3    H258088   0.135   6.341  16.558  0.9756 -0.8968 -0.9529
12225TIP3   OH258089   3.019   0.077  16.284 -0.5276  0.1835  0.0624
12225TIP3    H158090   3.109   0.056  16.309 -0.1388  1.5738 -0.0540
12225TIP3    H258091   2.968   0.000  16.309  0.7473 -0.7881 -0.2442
12226TIP3   OH258092   4.108   6.652   2.580 -0.1321  0.3026 -0.0826
12226TIP3    H158093   4.045   6.713   2.618 -0.9801 -0.8322  0.3974
12226TIP3    H258094   4.114   6.677   2.488 -1.7299  0.0875 -0.2662
12227TIP3   OH258095   1.459   5.146   5.505 -0.8795  0.5232 -0.1472
12227TIP3    H158096   1.418   5.071   5.548 -1.8821  0.4974 -1.1334
12227TIP3    H258097   1.552   5.137   5.527 -1.2569  0.1630  1.4810
12228TIP3   OH258098   5.348   4.052   2.889  0.1441  0.1410 -0.9141
12228TIP3    H158099   5.420   4.113   2.904 -0.4768  0.2506  2.5990
12228TIP3    H258100   5.378   3.970   2.930 -1.9168  0.4354  1.4120
12229TIP3   OH258101   6.467   1.483   3.876 -0.1728  0.2921 -0.0656
12229TIP3    H158102   6.458   1.420   3.804  1.2863  2.8820 -2.7311
12229TIP3    H258103   6.377   1.496   3.907 -0.7574 -1.5294 -0.8621
12230TIP3   OH258104   2.109   5.979  13.058  0.3056  0.0312  0.0963
12230TIP3    H158105   2.094   5.885  13.049 -1.8527  0.4288 -1.0950
12230TIP3    H258106   2.022   6.018  13.054  1.2856  2.2968 -2.2958
12231TIP3   OH258107   2.010   6.310   0.034 -0.3919 -0.1063 -0.3078
12231TIP3    H158108   1.995   6.220   0.065  0.5050 -0.7673 -1.6876
12231TIP3    H258109   2.041   6.300  -0.056  1.3679  1.4782  0.0413
12232TIP3   OH258110   3.502   6.544  14.826  0.1900  0.6662 -0.3309
12232TIP3    H158111   3.563   6.473  14.804  0.5237  0.4198  1.2684
12232TIP3    H258112   3.515   6.608  14.756  0.3862 -0.5201 -1.4273
12233TIP3   OH258113   3.142   5.084   0.043 -0.6375 -0.3107 -0.3248
12233TIP3    H158114   3.161   5.176   0.025 -0.3711 -0.3935 -0.4718
12233TIP3    H258115   3.174   5.037  -0.034  0.5897 -0.6833  0.3840
12234TIP3   OH258116   0.385   0.375   5.166 -0.1767  0.1910  0.1693
12234TIP3    H158117   0.447   0.372   5.092  1.5711  0.0313  1.5734
12234TIP3    H258118   0.299   0.369   5.125  0.7573 -0.5476 -1.8194
12235TIP3   OH258119   0.021   3.024  16.799  0.0362 -0.5282 -0.5818
12235TIP3    H158120  -0.010   3.102  16.845 -0.3913 -1.0973  0.1033
12235TIP3    H258121   0.094   3.056  16.745  1.3678 -0.0392  1.3717
12236TIP3   OH258122   0.202   4.652  15.750  0.6686 -0.4141  0.0985
12236TIP3    H158123   0.198   4.674  15.843  0.0519 -1.7885  0.4091
12236TIP3    H258124   0.282   4.600  15.741  0.2447 -1.0726  0.0493
12237TIP3   OH258125   4.561   3.308   3.700 -0.4592  0.0111  0.0702
12237TIP3    H158126   4.608   3.275   3.623 -1.6431 -2.2491  0.2164
12237TIP3    H258127   4.478   3.260   3.700 -1.6683  1.9611  1.2619
12238TIP3   OH258128   1.576   0.707  17.235  0.0028  0.1976  0.1645
12238TIP3    H158129   1.556   0.687  17.143  1.6717  0.7394 -0.3447
12238TIP3    H258130   1.671   0.713  17.238 -0.0129 -0.0004  1.9871
12239TIP3   OH258131   0.621   4.144  14.289 -0.0423  0.1291  0.5921
12239TIP3    H158132   0.543   4.197  14.270  0.1404  0.9946  2.1037
12239TIP3    H258133   0.672   4.148  14.208 -1.0685  0.4339 -0.0674
12240TIP3   OH258134   3.763   5.063   0.111 -0.2103 -0.2084 -0.2721
12240TIP3    H158135   3.853   5.030   0.112  0.4034  1.3863 -0.0515
12240TIP3    H258136   3.716   5.003   0.053  0.8524 -1.4091  0.0693
12241TIP3   OH258137   6.273   1.382  15.621  0.2554 -0.4164 -0.1838
12241TIP3    H158138   6.223   1.363  15.541  0.2481 -0.3060 -0.2066
12241TIP3    H258139   6.356   1.417  15.589  1.0810 -2.2806 -0.1883
12242TIP3   OH258140   4.702   0.425   2.409 -0.2014  0.3183  0.2102
12242TIP3    H158141   4.742   0.478   2.340  1.6053 -0.9240  0.2220
12242TIP3    H258142   4.687   0.340   2.369 -0.2172 -0.0684  1.0229
12243TIP3   OH258143   3.190   3.351  16.707  0.0478  0.3764 -0.2502
12243TIP3    H158144   3.276   3.314  16.686 -0.1082  1.0670 -2.3309
12243TIP3    H258145   3.191   3.362  16.802  0.9956 -2.7053  0.2167
12244TIP3   OH258146   6.698   3.068  12.448 -0.0047  0.0910  0.0397
12244TIP3    H158147   6.712   3.142  12.389  0.9868 -1.2600 -1.4826
12244TIP3    H258148   6.748   2.996  12.409 -0.8242 -1.3578  1.5528
12245TIP3   OH258149   1.934   3.239   4.926  0.4415 -0.0948 -0.5865
12245TIP3    H158150   1.848   3.272   4.952  0.1258 -1.1669 -0.2066
12245TIP3    H258151   1.936   3.248   4.831  0.0622  0.2773 -0.5636
12246TIP3   OH258152   0.996   1.805   5.544  0.1433 -0.5135  0.0935
12246TIP3    H158153   0.916   1.768   5.582 -0.4538  0.3481 -0.2767
12246TIP3    H258154   1.045   1.729   5.511  0.3800 -1.2227  1.9892
12247TIP3   OH258155   3.639   3.852   3.896  0.1186 -0.2815 -0.3093
12247TIP3    H158156   3.587   3.917   3.848 -0.4450 -1.3280 -1.1741
12247TIP3    H258157   3.714   3.901   3.930 -0.3469  0.8357 -0.8343
12248TIP3   OH258158   4.396   2.749   3.342  0.1524  0.5328  0.5698
12248TIP3    H158159   4.456   2.676   3.329  0.1267  0.5818  0.1699
12248TIP3    H258160   4.309   2.710   3.332  0.1515  0.7091 -0.0956
12249TIP3   OH258161   6.095   1.492  17.165  0.0450  0.5523  0.5072
12249TIP3    H158162   6.055   1.579  17.159 -2.1866 -0.4034  0.5079
12249TIP3    H258163   6.171   1.505  17.222  0.8701  2.8268 -0.9533
12250TIP3   OH258164   6.466   1.527  17.209  0.5066  0.2597 -0.4572
12250TIP3    H158165   6.519   1.504  17.132  0.8836 -0.6709  0.0668
12250TIP3    H258166   6.416   1.448  17.229  0.8199  0.3025  0.5765
12251TIP3   OH258167   4.295   2.861  11.113 -0.0996 -0.2038  0.6086
12251TIP3    H158168   4.332   2.780  11.079 -0.2898 -0.2783  0.5761
12251TIP3    H258169   4.298   2.922  11.040 -1.5852 -0.7072  0.0781
12252TIP3   OH258170   4.185   6.567  14.715 -0.4323 -0.5667  0.0685
12252TIP3    H158171   4.129   6.620  14.772  1.1857  0.2851  0.9381
12252TIP3    H258172   4.158   6.592  14.626 -1.5245 -0.3058  0.4469
12253TIP3   OH258173   4.105   4.471   0.532  0.7408  0.3453 -0.1807
12253TIP3    H158174   4.199   4.457   0.520  0.8981  0.3112  1.0128
12253TIP3    H258175   4.084   4.424   0.612 -0.2788  0.4649 -0.3644
12254TIP3   OH258176   1.232   1.585   1.720  0.1491 -0.2160  0.1743
12254TIP3    H158177   1.267   1.509   1.674 -1.9881 -2.4428  1.8719
12254TIP3    H258178   1.309   1.634   1.749  1.5703 -0.7756 -2.3939
12255TIP3   OH258179   1.406   4.071  12.097 -0.0041 -0.0433 -1.0354
12255TIP3    H158180   1.427   4.143  12.038 -0.7069 -0.2828 -1.6035
12255TIP3    H258181   1.321   4.038  12.065 -1.8017  1.5369  1.7422
12256TIP3   OH258182   2.877   1.353  16.747 -0.2106 -0.2863 -0.3860
12256TIP3    H158183   2.799   1.395  16.781 -0.0228  1.0885 -1.5694
12256TIP3    H258184   2.905   1.295  16.817 -2.3679 -0.9514  0.0034
12257TIP3   OH258185   3.103   1.861   4.408 -0.3730 -0.3992 -0.0928
12257TIP3    H158186   3.160   1.822   4.474 -1.0223  1.1461  1.4533
12257TIP3    H258187   3.157   1.927   4.365 -0.1919 -0.8429 -0.5519
12258TIP3   OH258188   5.416   0.604   4.105  0.1523 -0.3403  0.3420
12258TIP3    H158189   5.482   0.583   4.170  2.4543 -0.4722 -1.8682
12258TIP3    H258190   5.376   0.520   4.082  0.5656 -0.5275  0.3161
12259TIP3   OH258191   4.221   2.607   6.403 -0.3305 -0.6581  0.0976
12259TIP3    H158192   4.232   2.695   6.365 -1.4127 -0.1989  0.7738
12259TIP3    H258193   4.242   2.547   6.332  1.1086  0.1316 -0.1796
12260TIP3   OH258194   1.490   5.228   1.165  0.3019  0.2967  0.0455
12260TIP3    H158195   1.512   5.165   1.096 -1.4915  0.9011 -1.1649
12260TIP3    H258196   1.394   5.232   1.163  0.2347  0.7112  2.2826
12261TIP3   OH258197   0.643   3.079   3.050 -0.3457  0.0121  0.2701
12261TIP3    H158198   0.681   3.075   3.138 -0.0695 -0.6211  0.1277
12261TIP3    H258199   0.598   2.996   3.040 -0.8673  0.3218  0.0277
12262TIP3   OH258200   0.337   5.730  10.901 -0.8688 -0.0341 -0.1833
12262TIP3    H158201   0.337   5.648  10.851 -0.4729  0.6243 -1.2890
12262TIP3    H258202   0.371   5.705  10.987 -0.9097 -1.0570 -0.4486
12263TIP3   OH258203   1.339   1.476   2.598 -0.3409 -0.2273 -0.0390
12263TIP3    H158204   1.405   1.428   2.648  0.6906  1.5055  0.3262
12263TIP3    H258205   1.373   1.477   2.508 -0.8493 -0.9797 -0.2537
12264TIP3   OH258206   3.690   1.156   5.799  0.0506  0.4698  0.3555
12264TIP3    H158207   3.614   1.119   5.754  0.1963  1.2516 -0.5623
12264TIP3    H258208   3.753   1.084   5.804 -0.1359  0.2542 -0.3205
12265TIP3   OH258209   0.717   3.366  11.745 -0.0171 -0.1275  0.1504
12265TIP3    H158210   0.789   3.305  11.732  0.4512  0.3560  0.4384
12265TIP3    H258211   0.716   3.420  11.666  1.6235  1.5712  1.2025
12266TIP3   OH258212   6.253   4.989   0.992 -0.4553 -0.1886 -0.8763
12266TIP3    H158213   6.248   4.935   0.914 -0.5450  1.0549 -1.7626
12266TIP3    H258214   6.239   5.078   0.961 -0.0781  0.3869  0.4994
12267TIP3   OH258215   1.789   6.143   5.886 -0.1210 -0.4151  0.2529
12267TIP3    H158216   1.859   6.170   5.945  1.4004 -0.8410 -1.2593
12267TIP3    H258217   1.726   6.097   5.941  1.1333 -0.6198  1.5501
12268TIP3   OH258218   1.409   6.608   4.864  0.7361 -0.6593  0.1126
12268TIP3    H158219   1.340   6.575   4.921  0.7133  1.6227  1.5284
12268TIP3    H258220   1.487   6.559   4.890  0.2073 -1.4386  0.2854
12269TIP3   OH258221   5.864   3.679   3.763 -0.8017 -0.2413 -0.2341
12269TIP3    H158222   5.869   3.747   3.695 -1.2730  0.5246  0.4744
12269TIP3    H258223   5.832   3.602   3.717  0.4560 -0.2142 -1.2107
12270TIP3   OH258224   2.612   3.589   4.550 -0.1559 -0.4264  0.8372
12270TIP3    H158225   2.607   3.684   4.539  1.8965 -0.3846 -0.3801
12270TIP3    H258226   2.654   3.577   4.636  0.0621 -0.2038  0.7641
12271TIP3   OH258227   3.538   3.078  11.868  0.3212 -0.7911  0.2335
12271TIP3    H158228   3.630   3.077  11.896  0.4264 -1.4685 -0.1237
12271TIP3    H258229   3.490   3.041  11.942  0.3730 -0.7429  0.2912
12272TIP3   OH258230   0.062   5.534  15.555 -0.0219  0.1221 -0.2721
12272TIP3    H158231   0.117   5.468  15.596  0.4077 -0.0104 -1.0379
12272TIP3    H258232   0.045   5.598  15.623 -0.0830 -0.5555  0.3609
12273TIP3   OH258233   6.735   5.611   0.211  0.0835 -0.6475  0.0835
12273TIP3    H158234   6.643   5.619   0.238 -0.4146 -0.5967 -1.5031
12273TIP3    H258235   6.733   5.626   0.116  1.7810 -0.3550  0.0671
12274TIP3   OH258236   5.894   1.229  15.757 -0.1118 -0.3109  0.1931
12274TIP3    H158237   5.872   1.293  15.825  0.5331  0.6216 -0.4496
12274TIP3    H258238   5.956   1.170  15.800  1.5030  1.1781  0.0294
12275TIP3   OH258239   3.340   0.559   2.867  0.5212  0.3723  0.1046
12275TIP3    H158240   3.253   0.575   2.830  0.7223  1.9387  0.2543
12275TIP3    H258241   3.323   0.535   2.958  0.2124 -0.3296 -0.1234
12276TIP3   OH258242   1.320   2.389  17.128  0.5109  0.4884 -0.2827
12276TIP3    H158243   1.278   2.441  17.059 -1.5536 -0.2555  0.3356
12276TIP3    H258244   1.408   2.370  17.093 -0.2177  0.7113 -2.4150
12277TIP3   OH258245   5.473   3.693  13.722 -0.4423  0.4876  0.2387
12277TIP3    H158246   5.411   3.688  13.649  0.3824  0.5490 -0.4887
12277TIP3    H258247   5.558   3.707  13.680  0.2144 -0.5716  1.1517
12278TIP3   OH258248   0.316   4.114   1.047  0.1863 -0.4258 -0.0143
12278TIP3    H158249   0.386   4.170   1.014  1.9148 -2.4095  0.0962
12278TIP3    H258250   0.249   4.118   0.979  0.4577  1.3577 -0.2271
12279TIP3   OH258251   0.673   6.232   0.311  0.5126  0.0665  0.1560
12279TIP3    H158252   0.618   6.237   0.390  1.7179  1.4359  0.9650
12279TIP3    H258253   0.739   6.166   0.331  1.4941  1.2034  0.7803
12280TIP3   OH258254   6.536   5.638   1.632  0.8138 -0.3185 -0.2888
12280TIP3    H158255   6.481   5.561   1.619  1.0254 -0.5407  0.0894
12280TIP3    H258256   6.620   5.602   1.661  0.5708  0.1063  1.0002
12281TIP3   OH258257   2.867   5.424   0.038  0.4555  0.0399 -0.1093
12281TIP3    H158258   2.808   5.464   0.101 -0.9664 -2.1562  0.0704
12281TIP3    H258259   2.951   5.467   0.052 -0.6899  2.1006  0.7680
12282TIP3   OH258260   5.875   3.199  15.537  0.9030  0.0232  0.0132
12282TIP3    H158261   5.825   3.119  15.519 -0.1489  0.3530  1.3140
12282TIP3    H258262   5.874   3.247  15.454 -0.7704 -0.1008 -0.0790
12283TIP3   OH258263   1.249   4.725   3.960 -0.3843  0.0995  0.2057
12283TIP3    H158264   1.262   4.806   4.010 -0.0194  0.3633 -0.2990
12283TIP3    H258265   1.250   4.754   3.869 -0.1536 -0.4890  0.0200
12284TIP3   OH258266   3.148   0.647   4.869  0.4318 -0.8468 -0.3305
12284TIP3    H158267   3.210   0.576   4.885 -1.5419 -3.0399 -1.7913
12284TIP3    H258268   3.069   0.621   4.916 -0.3333  0.4754 -0.8277
12285TIP3   OH258269   0.001   6.179  13.824 -0.6936  0.0780 -0.1254
12285TIP3    H158270   0.007   6.262  13.870  0.2525  1.5806 -2.7426
12285TIP3    H258271  -0.046   6.121  13.884 -0.6592  2.2241  2.1155
12286TIP3   OH258272   0.041   3.797   4.315  0.2338 -0.1839 -0.0550
12286TIP3    H158273   0.098   3.869   4.342 -0.6392 -0.0940  1.6827
12286TIP3    H258274   0.048   3.796   4.220 -1.3001  3.5624 -0.3888
12287TIP3   OH258275   2.738   2.130  15.957  0.2312  0.2126 -0.2765
12287TIP3    H158276   2.684   2.165  15.886  0.0016  0.0206 -0.1976
12287TIP3    H258277   2.747   2.203  16.019 -0.6847 -0.0172  0.1423
12288TIP3   OH258278   4.493   0.516   3.429  0.0897 -0.0976  0.6902
12288TIP3    H158279   4.437   0.581   3.472  0.0307  0.6050 -0.4290
12288TIP3    H258280   4.560   0.496   3.494 -0.0451  0.8881  1.1534
12289TIP3   OH258281   2.654   4.746   5.191  0.6635  0.1096  0.2623
12289TIP3    H158282   2.686   4.715   5.106 -0.8390 -2.0823  0.4189
12289TIP3    H258283   2.571   4.790   5.171  0.0925 -0.7860  0.6053
12290TIP3   OH258284   1.383   0.149  12.983 -1.0236 -0.4278  0.0283
12290TIP3    H158285   1.433   0.068  12.982  0.6726  0.5775 -0.6001
12290TIP3    H258286   1.420   0.201  12.911 -1.0870  1.4623  1.3005
12291TIP3   OH258287   5.441   2.787   0.038 -0.1510  0.0408  0.3884
12291TIP3    H158288   5.499   2.749  -0.027 -2.1722 -1.0398 -0.9131
12291TIP3    H258289   5.496   2.803   0.114  2.3314  1.4031 -1.5630
12292TIP3   OH258290   2.483   6.195   4.980 -0.6109  0.5873 -0.3171
12292TIP3    H158291   2.504   6.241   5.061  0.1226  0.6410 -0.5265
12292TIP3    H258292   2.391   6.171   4.989 -0.2387 -0.4865  1.0804
12293TIP3   OH258293   2.690   0.603  16.023 -0.1772 -0.3252  0.7265
12293TIP3    H158294   2.721   0.599  16.113 -0.2467  0.1582  0.7713
12293TIP3    H258295   2.682   0.511  15.997  0.4147 -0.4575  1.0107
12294TIP3   OH258296   6.235   1.718  16.879 -0.0564 -0.7910 -0.4899
12294TIP3    H158297   6.295   1.701  16.952 -0.2460 -0.6846 -0.3090
12294TIP3    H258298   6.148   1.715  16.919 -0.3136 -2.7546 -1.0708
12295TIP3   OH258299   2.349   2.255   3.455  0.4015 -0.0487 -0.2659
12295TIP3    H158300   2.378   2.343   3.476  0.7598 -0.5668  1.5876
12295TIP3    H258301   2.385   2.237   3.368  0.1834  1.6594 -0.7437
12296TIP3   OH258302   4.642   1.842  13.739  0.6549  0.0311  0.0993
12296TIP3    H158303   4.725   1.823  13.783  0.6643  1.0557  0.5392
12296TIP3    H258304   4.599   1.756  13.732  0.7528 -0.2071  1.9142
12297TIP3   OH258305   4.986   0.133   0.834  0.0525 -0.4545  0.2604
12297TIP3    H158306   4.923   0.079   0.787 -1.9374  1.7886  0.2413
12297TIP3    H258307   4.998   0.087   0.918 -1.9731 -0.7089  0.4564
12298TIP3   OH258308   4.749   5.036  11.466 -0.7401  0.2118  0.3013
12298TIP3    H158309   4.755   5.102  11.396 -0.0915 -1.3185 -1.1730
12298TIP3    H258310   4.777   4.954  11.423  4.3485 -0.1161  3.3841
12299TIP3   OH258311   1.587   3.121   0.615 -0.2102  0.4591 -0.2277
12299TIP3    H158312   1.617   3.056   0.679 -0.6974  0.6398  0.1942
12299TIP3    H258313   1.538   3.184   0.667  1.6663  2.1188 -0.3560
12300TIP3   OH258314   6.125   2.427  14.724 -0.3794 -0.4011 -0.8503
12300TIP3    H158315   6.211   2.399  14.693  0.3004 -0.3803  0.9020
12300TIP3    H258316   6.094   2.356  14.779 -0.9779  0.0881 -0.5376
12301TIP3   OH258317   4.266   2.772   5.351  0.2736  0.3232 -0.0711
12301TIP3    H158318   4.184   2.753   5.397  1.1146 -0.9309  0.9924
12301TIP3    H258319   4.256   2.730   5.266  0.0210 -0.3183  0.2699
12302TIP3   OH258320   6.681   5.735   5.770 -0.4839  0.1011 -0.2041
12302TIP3    H158321   6.602   5.746   5.823  0.5187  0.5522  1.2976
12302TIP3    H258322   6.736   5.809   5.796  0.1180  0.2492 -1.8136
12303TIP3   OH258323   4.823   1.770  13.954 -0.5402  0.4821 -0.1844
12303TIP3    H158324   4.917   1.755  13.957 -0.5692  0.0609 -1.0779
12303TIP3    H258325   4.798   1.786  14.045 -0.0706 -2.2828  0.5380
12304TIP3   OH258326   1.396   3.841   4.497 -0.1057  0.1157  0.7647
12304TIP3    H158327   1.489   3.823   4.510 -0.3444 -0.5109  1.7157
12304TIP3    H258328   1.374   3.796   4.416  0.4910  0.5266  0.3725
12305TIP3   OH258329   4.945   5.755   2.408 -0.1450  0.4700 -0.0955
12305TIP3    H158330   4.853   5.732   2.417 -0.2552  0.7648 -0.4028
12305TIP3    H258331   4.989   5.710   2.479 -0.9847  2.9533  2.1553
12306TIP3   OH258332   2.842   1.192   0.698  0.4578 -0.1595 -0.1306
12306TIP3    H158333   2.813   1.199   0.607 -2.1446 -1.1580  0.5188
12306TIP3    H258334   2.868   1.280   0.723  0.7822  0.2027 -1.6962
12307TIP3   OH258335   6.547   2.739   5.630 -0.0187 -0.2638 -0.1792
12307TIP3    H158336   6.533   2.660   5.682  0.6401 -1.6443 -1.9784
12307TIP3    H258337   6.610   2.790   5.680 -0.1674 -1.0618  0.8572
12308TIP3   OH258338   6.325   1.944   0.151  0.4734 -0.1179 -0.2634
12308TIP3    H158339   6.347   1.910   0.237  0.2938 -1.4345 -0.7181
12308TIP3    H258340   6.372   1.886   0.090 -0.0315  0.3055 -1.0713
12309TIP3   OH258341   0.275   1.855   4.361 -0.6444 -0.5796 -0.0106
12309TIP3    H158342   0.289   1.771   4.318 -1.3601  0.5079 -2.5528
12309TIP3    H258343   0.322   1.918   4.306 -1.4364  0.8909  0.9451
12310TIP3   OH258344   3.266   3.566  12.107  0.0226 -0.3301 -0.0632
12310TIP3    H158345   3.301   3.522  12.029 -1.2631 -0.8395 -0.3787
12310TIP3    H258346   3.222   3.644  12.073  0.6622  0.2000  0.3071
12311TIP3   OH258347   3.889   5.567   6.440 -0.7553  0.2737  0.1961
12311TIP3    H158348   3.942   5.536   6.367 -0.6500  1.4490 -0.2430
12311TIP3    H258349   3.930   5.528   6.517  0.5549  0.8585 -0.1684
12312TIP3   OH258350   4.102   6.201   1.847  0.4158  0.4716  0.4858
12312TIP3    H158351   4.163   6.185   1.776 -1.0424 -2.0824 -0.3000
12312TIP3    H258352   4.142   6.160   1.923  0.5534  0.5205  0.4402
12313TIP3   OH258353   0.346   3.758  17.187 -0.8317  0.5151  0.3351
12313TIP3    H158354   0.401   3.721  17.118 -0.2450 -0.4812  1.2976
12313TIP3    H258355   0.297   3.829  17.144  0.4596  0.7730 -0.7861
12314TIP3   OH258356   4.105   6.193   3.209  0.1350  0.1964  0.2359
12314TIP3    H158357   4.151   6.258   3.156  1.3132 -0.1753  0.7478
12314TIP3    H258358   4.137   6.108   3.177 -1.0007 -0.1221 -0.0892
12315TIP3   OH258359   4.650   1.144  15.140 -0.2072 -0.5185  0.0730
12315TIP3    H158360   4.611   1.227  15.112  0.9693  0.2803  0.7083
12315TIP3    H258361   4.576   1.084  15.146 -1.6571  1.3352  2.7613
12316TIP3   OH258362   3.542   3.474  14.821  0.3968 -0.4044  0.0091
12316TIP3    H158363   3.528   3.379  14.826  0.1406 -0.3165  2.9251
12316TIP3    H258364   3.493   3.509  14.896  2.1360  1.8082  0.2111
12317TIP3   OH258365   4.786   1.896  11.155  0.3319  0.2387 -0.4259
12317TIP3    H158366   4.722   1.901  11.084 -0.5507 -1.3158  0.1968
12317TIP3    H258367   4.736   1.919  11.234  0.7063 -0.3094 -0.0206
12318TIP3   OH258368   2.667   1.895   2.460 -0.3530  0.0504 -0.3495
12318TIP3    H158369   2.663   1.862   2.550 -0.8537  0.8193 -0.0850
12318TIP3    H258370   2.746   1.949   2.457 -0.2606 -0.0870 -0.4135
12319TIP3   OH258371   1.310   2.061  15.997  0.2797  0.1620 -0.0215
12319TIP3    H158372   1.285   1.991  15.938 -0.2794  0.1716  0.2019
12319TIP3    H258373   1.352   2.017  16.072 -1.8319 -0.1238  1.0649
12320TIP3   OH258374   1.936   3.722   0.667 -0.4516  0.2186 -0.2456
12320TIP3    H158375   1.930   3.768   0.583 -1.3164 -0.4360 -0.5547
12320TIP3    H258376   1.918   3.790   0.733 -1.4369  0.3988 -0.6804
12321TIP3   OH258377   1.172   0.999  16.561  0.1334 -0.5896 -0.5962
12321TIP3    H158378   1.102   0.971  16.620  0.3275 -1.2080 -0.6523
12321TIP3    H258379   1.208   1.077  16.602 -0.6882 -0.1740 -0.6411
12322TIP3   OH258380   4.647   4.116  16.870 -0.7454  0.3387  0.1470
12322TIP3    H158381   4.695   4.172  16.931 -1.0799  0.7143  0.0719
12322TIP3    H258382   4.648   4.163  16.787  0.4454 -0.5654 -0.3827
12323TIP3   OH258383   4.287   0.501  15.043 -0.1749  0.2631 -0.4834
12323TIP3    H158384   4.346   0.496  14.967 -0.3651  0.8295 -0.6759
12323TIP3    H258385   4.208   0.455  15.014  0.3563 -0.9599 -0.0378
12324TIP3   OH258386   3.842   5.722   2.406 -0.5917 -0.2570  0.3141
12324TIP3    H158387   3.926   5.690   2.437 -0.6986  0.1247  1.0161
12324TIP3    H258388   3.806   5.772   2.480 -1.6239 -0.7673  0.1790
12325TIP3   OH258389   0.110   1.728  13.105  0.3114 -0.4760 -0.2463
12325TIP3    H158390   0.073   1.749  13.019 -0.7337 -0.8523  0.0940
12325TIP3    H258391   0.083   1.637  13.121  0.6245 -0.4579  0.4141
12326TIP3   OH258392   0.870   2.887  10.647  0.1810  0.3593  0.3408
12326TIP3    H158393   0.844   2.831  10.573  1.4120 -0.5033  0.5154
12326TIP3    H258394   0.819   2.967  10.636 -1.1544 -0.5357 -0.3001
12327TIP3   OH258395   5.208   4.579  16.089  0.3108  0.6366  0.1403
12327TIP3    H158396   5.167   4.575  16.175 -0.3742  1.0535 -0.1580
12327TIP3    H258397   5.290   4.531  16.099 -0.6859 -1.0797  0.4937
12328TIP3   OH258398   0.964   5.374  13.167 -0.3313  0.0430  0.0490
12328TIP3    H158399   0.999   5.461  13.145 -2.4034  1.6485  2.4199
12328TIP3    H258400   0.896   5.359  13.102 -1.1967  1.1063  0.6691
12329TIP3   OH258401   3.389   5.924   1.076 -0.4465 -0.3906  0.4734
12329TIP3    H158402   3.332   5.848   1.071 -0.5899 -0.2756  0.3353
12329TIP3    H258403   3.423   5.924   1.165 -1.1107 -0.1405  0.7310
12330TIP3   OH258404   4.446   3.754  11.982 -0.0626  0.3973 -0.3313
12330TIP3    H158405   4.477   3.738  12.071 -0.5316  0.5762 -0.1349
12330TIP3    H258406   4.357   3.719  11.980  0.9942 -2.5939 -1.6603
12331TIP3   OH258407   3.099   2.567   4.747 -0.1397  0.0997  0.1601
12331TIP3    H158408   3.025   2.592   4.801 -0.2630 -1.0873  0.5614
12331TIP3    H258409   3.060   2.532   4.667  0.0412  2.6821 -1.1529
12332TIP3   OH258410   5.549   2.156  15.371 -0.3096 -0.0539  0.5656
12332TIP3    H158411   5.596   2.220  15.424 -0.3456 -0.3522  0.9629
12332TIP3    H258412   5.564   2.072  15.415 -0.8855 -0.2084  0.4858
12333TIP3   OH258413   0.108   3.506   2.471  0.3020  0.0889  0.1724
12333TIP3    H158414   0.126   3.600   2.473  0.1782  0.1056  0.7437
12333TIP3    H258415   0.014   3.500   2.455  0.6047  0.0164 -1.8675
12334TIP3   OH258416   3.416   2.965  14.484 -0.4599  0.3901 -0.1525
12334TIP3    H158417   3.356   2.891  14.469 -1.9485  1.3415  0.8373
12334TIP3    H258418   3.374   3.039  14.441  0.0640  1.0573  0.4664
12335TIP3   OH258419   1.206   2.975   5.454 -0.0130  0.0565  0.0576
12335TIP3    H158420   1.137   3.039   5.436 -0.8387 -0.2988  1.7941
12335TIP3    H258421   1.258   3.014   5.524  1.4791  0.2441 -1.1157
12336TIP3   OH258422   1.297   2.693  15.835 -0.0523 -0.6245 -0.5476
12336TIP3    H158423   1.384   2.721  15.861 -0.2280  0.4548 -1.0697
12336TIP3    H258424   1.310   2.605  15.799  1.1988  0.3387 -2.6086
12337TIP3   OH258425   5.863   3.000   6.058 -0.0798  0.0928 -0.1309
12337TIP3    H158426   5.834   2.910   6.041  0.4667  0.1159 -1.2562
12337TIP3    H258427   5.943   2.989   6.110 -0.1215 -0.0719 -0.0995
12338TIP3   OH258428   6.303   2.557   3.166 -0.3706  0.1235 -0.0986
12338TIP3    H158429   6.275   2.468   3.183  1.3988 -0.4162  0.1721
12338TIP3    H258430   6.253   2.583   3.089 -0.7227 -1.1956 -0.3402
12339TIP3   OH258431   2.047   2.668   4.680 -0.3881 -0.7440 -0.3997
12339TIP3    H158432   2.020   2.664   4.588 -1.8263 -0.3823 -0.0215
12339TIP3    H258433   2.025   2.582   4.715  1.7120 -1.4868 -0.7527
12340TIP3   OH258434   6.595   3.626   1.874  0.0870 -0.1821  0.2496
12340TIP3    H158435   6.544   3.592   1.801 -2.1293  1.5345  0.8814
12340TIP3    H258436   6.543   3.605   1.952  1.1314  0.2373  1.0944
12341TIP3   OH258437   3.623   4.920  17.225  0.2321 -0.2418 -0.2870
12341TIP3    H158438   3.589   4.831  17.211 -1.4596  0.3199  0.1192
12341TIP3    H258439   3.612   4.963  17.141 -0.2343 -0.0113 -0.1112
12342TIP3   OH258440   4.740   6.603  15.869 -0.2093 -0.4291 -0.1988
12342TIP3    H158441   4.788   6.524  15.894 -0.3595 -0.1200  1.1151
12342TIP3    H258442   4.788   6.636  15.793  1.2861 -0.4980  0.6574
12343TIP3   OH258443   4.814   1.641   1.129 -0.1506 -0.5051 -0.0432
12343TIP3    H158444   4.904   1.651   1.162  0.0768 -0.0605 -0.7835
12343TIP3    H258445   4.777   1.571   1.184  0.4124 -0.2128  0.7350
12344TIP3   OH258446   2.339   2.575  13.507  0.3058  0.7051  0.2684
12344TIP3    H158447   2.402   2.506  13.487 -2.5370 -1.5875 -1.5236
12344TIP3    H258448   2.303   2.549  13.592  1.5010  1.8680  1.1636
12345TIP3   OH258449   3.012   3.634   3.131 -0.2364 -0.1196  0.1436
12345TIP3    H158450   3.047   3.548   3.154 -1.5614 -1.0535 -1.1349
12345TIP3    H258451   2.925   3.636   3.170  0.1480  1.0687  1.0000
12346TIP3   OH258452   4.446   2.121   5.372 -0.2366  0.3465  0.2910
12346TIP3    H158453   4.471   2.132   5.464 -0.6551  0.1910  0.4254
12346TIP3    H258454   4.383   2.050   5.373 -0.4529  0.5322 -0.0835
12347TIP3   OH258455   2.905   0.942  15.393  0.3163 -0.6036 -0.2365
12347TIP3    H158456   2.974   0.940  15.459  1.2587 -0.9204 -1.2067
12347TIP3    H258457   2.887   0.850  15.374  0.1901 -0.5158 -0.5470
12348TIP3   OH258458   6.158   6.143   3.156  0.0313 -0.6085 -0.3234
12348TIP3    H158459   6.146   6.049   3.172 -1.8755 -0.1427  1.4347
12348TIP3    H258460   6.185   6.179   3.240  0.0231  0.5337 -0.7861
12349TIP3   OH258461   2.391   6.251  11.632 -0.3041 -0.6422 -0.3487
12349TIP3    H158462   2.307   6.217  11.663  1.0335 -2.9180  1.0477
12349TIP3    H258463   2.395   6.340  11.668 -2.0361 -0.5237 -0.3496
12350TIP3   OH258464   2.146   6.678   0.320 -0.3301  0.2906  0.6728
12350TIP3    H158465   2.059   6.710   0.296 -0.4454 -0.0750  0.5926
12350TIP3    H258466   2.170   6.729   0.397 -1.6499 -1.2628  2.1962
12351TIP3   OH258467   4.787   1.008   2.823  0.0237 -0.1181  0.4246
12351TIP3    H158468   4.771   0.948   2.750 -2.2825  0.8097  0.0606
12351TIP3    H258469   4.712   0.995   2.882  1.1895  0.0477  2.0212
12352TIP3   OH258470   6.129   5.841   5.975  0.3061 -0.6729 -0.7532
12352TIP3    H158471   6.124   5.774   5.907 -0.3094 -2.2832  0.7957
12352TIP3    H258472   6.100   5.796   6.055  2.3430  0.7279  0.8755
12353TIP3   OH258473   2.516   1.811  16.588 -0.4429  0.3042  0.0193
12353TIP3    H158474   2.589   1.812  16.649 -0.1198  2.4573 -0.3112
12353TIP3    H258475   2.464   1.735  16.613  1.8278 -1.2165  0.3280
12354TIP3   OH258476   0.431   3.106   6.142 -0.7676 -0.1474 -0.0623
12354TIP3    H158477   0.357   3.162   6.167 -0.0291  1.3712 -1.1091
12354TIP3    H258478   0.505   3.167   6.133 -0.2035 -1.0719 -2.4442
12355TIP3   OH258479   1.380   1.180   0.683  0.2492  0.1597  0.7220
12355TIP3    H158480   1.342   1.092   0.692  1.8932 -0.8865 -1.4800
12355TIP3    H258481   1.305   1.238   0.678 -0.9033 -1.1796  1.5854
12356TIP3   OH258482   0.292   4.079   1.490 -0.4589 -0.3983  0.5748
12356TIP3    H158483   0.339   4.140   1.433 -0.5238  0.1733  1.1228
12356TIP3    H258484   0.315   4.107   1.578 -1.9608 -0.0055  0.8554
12357TIP3   OH258485   5.772   0.960  13.991  0.2883  0.2280 -0.1092
12357TIP3    H158486   5.747   0.937  13.901  1.7286 -1.0498 -0.2143
12357TIP3    H258487   5.688   0.972  14.036 -0.4801 -0.3823 -1.3082
12358TIP3   OH258488   1.529   6.295  16.177 -0.2195 -0.3555  0.5114
12358TIP3    H158489   1.581   6.294  16.096 -0.4945 -0.9841  0.3376
12358TIP3    H258490   1.593   6.312  16.246  0.3906 -2.0633  0.4015
12359TIP3   OH258491   6.125   5.743   4.136  0.0789 -0.0345 -0.7896
12359TIP3    H158492   6.171   5.665   4.166  0.4881 -0.6392 -2.8460
12359TIP3    H258493   6.043   5.743   4.185  1.9931  0.9219  2.7714
12360TIP3   OH258494   5.127   2.655  11.690 -0.2962 -0.9010  0.1725
12360TIP3    H158495   5.214   2.626  11.716  0.2603 -1.0891 -1.7793
12360TIP3    H258496   5.095   2.587  11.631 -0.6941  0.4030 -1.1813
12361TIP3   OH258497   2.038   6.694   1.979 -0.2224  0.3190  0.2655
12361TIP3    H158498   2.114   6.702   2.037 -0.1974 -0.7594  0.4107
12361TIP3    H258499   2.051   6.761   1.912  1.8139 -1.0155 -0.7787
12362TIP3   OH258500   1.402   1.260   1.963  0.1878  0.1194 -0.7429
12362TIP3    H158501   1.434   1.174   1.938 -0.4613 -0.3942  0.1195
12362TIP3    H258502   1.479   1.306   1.998  0.2902 -0.5601 -0.0596
12363TIP3   OH258503   3.325   4.668   3.757  0.6114  0.1028 -0.5912
12363TIP3    H158504   3.311   4.655   3.851 -1.2848 -0.4568 -0.8983
12363TIP3    H258505   3.416   4.643   3.742  0.4258 -1.5841  0.7916
12364TIP3   OH258506   3.112   2.151   1.568 -0.4188  0.4352 -0.1944
12364TIP3    H158507   3.076   2.206   1.638 -0.4907 -0.0784  0.1777
12364TIP3    H258508   3.041   2.089   1.548 -0.3899  0.5670 -0.7110
12365TIP3   OH258509   3.224   3.100   5.146  0.2897 -0.8345 -0.2733
12365TIP3    H158510   3.145   3.143   5.113 -1.4462 -3.1654  0.5858
12365TIP3    H258511   3.272   3.075   5.068 -0.8602 -1.1525 -0.9041
12366TIP3   OH258512   5.205   3.136   2.747  0.3229  0.2871  0.0534
12366TIP3    H158513   5.172   3.107   2.832  0.2067 -0.4306 -0.2289
12366TIP3    H258514   5.133   3.186   2.709 -0.0062 -0.2593 -0.0517
12367TIP3   OH258515   2.359   0.744  13.948 -0.7078  0.1712 -0.1359
12367TIP3    H158516   2.416   0.796  14.004 -0.1938  0.1515 -0.6341
12367TIP3    H258517   2.271   0.780  13.962 -0.4744  0.6283  0.1400
12368TIP3   OH258518   6.052   5.694  17.118 -0.3643  0.2751 -0.0726
12368TIP3    H158519   6.002   5.775  17.106  0.5939  0.8771 -0.1136
12368TIP3    H258520   6.075   5.694  17.211 -0.1311  0.1940 -0.1298
12369TIP3   OH258521   1.260   4.774  13.037  0.1971  0.0212 -0.3142
12369TIP3    H158522   1.251   4.723  13.118 -0.4765 -1.5091 -1.3124
12369TIP3    H258523   1.347   4.752  13.004  0.3895  0.4884 -0.1375
12370TIP3   OH258524   6.728   2.034   0.653 -0.7351 -0.2497  0.3884
12370TIP3    H158525   6.634   2.047   0.669 -0.6938  2.6068 -1.0423
12370TIP3    H258526   6.731   1.984   0.571 -1.0755  0.8582 -0.3270
12371TIP3   OH258527   3.559   4.329  14.517 -0.2353  0.3694  0.2526
12371TIP3    H158528   3.589   4.418  14.530  0.2032  0.3464 -0.5568
12371TIP3    H258529   3.639   4.278  14.502 -0.6293  0.3385 -2.0920
12372TIP3   OH258530   4.628   1.010  11.783  0.1554  0.5490  0.1519
12372TIP3    H158531   4.669   1.071  11.722  0.2485  0.5634  0.2283
12372TIP3    H258532   4.635   0.925  11.740  3.8275 -0.1933  1.7634
12373TIP3   OH258533   2.577   3.188   3.163  0.6850 -0.7908  0.4799
12373TIP3    H158534   2.566   3.135   3.084 -1.2280  1.1236 -0.6619
12373TIP3    H258535   2.647   3.250   3.140 -0.2641  0.1432 -0.0007
12374TIP3   OH258536   0.482   3.061  14.068 -0.0115  0.5446 -0.1307
12374TIP3    H158537   0.506   3.057  13.975 -0.9074  0.0214 -0.3547
12374TIP3    H258538   0.387   3.075  14.067 -0.1632 -0.3389  0.6970
12375TIP3   OH258539   1.542   0.112   2.934 -0.5675  0.5051 -0.9166
12375TIP3    H158540   1.504   0.199   2.938 -1.1080  0.2615 -0.5380
12375TIP3    H258541   1.567   0.092   3.024 -2.0852 -0.4170 -0.6514
12376TIP3   OH258542   0.434   0.975   6.689  0.3839 -0.2096 -0.3127
12376TIP3    H158543   0.364   1.016   6.638 -0.3605 -0.3804  0.5402
12376TIP3    H258544   0.500   0.951   6.624 -1.1051 -1.6111 -1.3884
12377TIP3   OH258545   0.873   5.735   3.527  0.0508 -0.8740  0.1829
12377TIP3    H158546   0.824   5.709   3.604  0.5267 -2.2907  0.0321
12377TIP3    H258547   0.843   5.677   3.457 -0.5455  0.5364 -0.7829
12378TIP3   OH258548   0.837   1.806  12.614  0.0336  0.2982 -0.3877
12378TIP3    H158549   0.866   1.720  12.645 -1.6565  0.3334  1.4505
12378TIP3    H258550   0.828   1.795  12.519  1.2818 -1.0767 -0.3879
12379TIP3   OH258551   1.746   1.601  16.314 -0.4605  0.1302 -0.2696
12379TIP3    H158552   1.775   1.534  16.377 -0.7717  0.8744  0.6901
12379TIP3    H258553   1.824   1.653  16.297 -0.0045 -0.9328 -1.6574
12380TIP3   OH258554   4.630   1.242   2.090  0.1170 -0.8664 -0.1636
12380TIP3    H158555   4.540   1.272   2.081 -0.2108 -1.2625  1.5385
12380TIP3    H258556   4.679   1.292   2.024 -0.9116  1.1464  0.5368
12381TIP3   OH258557   4.295   3.295   2.874 -0.7421  0.1005 -0.5077
12381TIP3    H158558   4.376   3.335   2.905 -0.1952  1.9683 -3.8727
12381TIP3    H258559   4.322   3.210   2.838 -0.2006  0.7468 -1.6796
12382TIP3   OH258560   1.139   5.357   3.504  0.2733 -0.3512 -0.3015
12382TIP3    H158561   1.162   5.277   3.456 -0.7944 -0.6069 -0.4271
12382TIP3    H258562   1.093   5.411   3.439 -0.6537 -0.4443  0.2628
12383TIP3   OH258563   6.638   1.384   4.061  1.3185 -0.1316  0.0503
12383TIP3    H158564   6.604   1.429   3.983 -0.1009  1.9965  1.7523
12383TIP3    H258565   6.709   1.440   4.092  0.6442  0.1106  1.2601
12384TIP3   OH258566   4.134   4.654   0.849 -0.1681  0.3380 -0.3100
12384TIP3    H158567   4.203   4.698   0.800  0.7141 -0.5880  0.0541
12384TIP3    H258568   4.156   4.669   0.940 -0.4493  0.0357 -0.1910
12385TIP3   OH258569   2.929   5.000  13.582  0.2214  0.2055  0.0172
12385TIP3    H158570   2.965   5.031  13.665 -0.0447  0.7639 -0.0729
12385TIP3    H258571   2.950   5.070  13.520 -2.2415  1.2389  0.2434
12386TIP3   OH258572   4.615   3.506   2.792 -0.2434 -0.0185 -0.2183
12386TIP3    H158573   4.574   3.489   2.877  1.4675 -0.9646  0.4491
12386TIP3    H258574   4.706   3.479   2.803  0.2225  0.6507 -2.1048
12387TIP3   OH258575   4.190   6.750  13.969  0.4743 -0.2092 -0.3633
12387TIP3    H158576   4.211   6.781  14.057  1.2801  0.1438 -0.6746
12387TIP3    H258577   4.116   6.804  13.942 -0.6245 -1.1919  0.5829
12388TIP3   OH258578   2.561   6.477   3.977 -0.4107  0.0073  0.0585
12388TIP3    H158579   2.630   6.466   4.043 -0.8746 -2.0034  0.2796
12388TIP3    H258580   2.606   6.518   3.903  0.7971 -0.3274  0.5677
12389TIP3   OH258581   6.160   4.954  12.906 -0.2971  0.1283 -0.0571
12389TIP3    H158582   6.123   4.999  12.831  0.8355 -0.2831 -0.8896
12389TIP3    H258583   6.181   5.024  12.968 -1.1166  0.4809 -0.1692
12390TIP3   OH258584   2.367   0.526   1.725  0.0471 -0.4067  0.0879
12390TIP3    H158585   2.451   0.532   1.680  0.2506  3.4778  0.6666
12390TIP3    H258586   2.308   0.581   1.675 -1.3767 -0.7577  1.2950
12391TIP3   OH258587   1.285   4.844  16.423  0.0781  0.6898 -0.0757
12391TIP3    H158588   1.316   4.793  16.348 -0.3454  0.3163 -0.0018
12391TIP3    H258589   1.339   4.816  16.496 -0.0314  0.4733 -0.0755
12392TIP3   OH258590   3.587   0.931   2.684 -0.5060 -0.3775  0.1073
12392TIP3    H158591   3.527   0.928   2.609 -0.9362  0.6254  0.3851
12392TIP3    H258592   3.538   0.890   2.755 -0.0437 -1.4562 -0.1878
12393TIP3   OH258593   4.449   5.224  15.762  1.1940 -0.2987 -0.3945
12393TIP3    H158594   4.392   5.268  15.699  0.5004  0.2678  0.5935
12393TIP3    H258595   4.401   5.145  15.787 -0.1652  1.0977  1.8611
12394TIP3   OH258596   6.738   0.900   3.932 -0.1174 -0.4587 -1.2216
12394TIP3    H158597   6.698   0.825   3.976  1.6134 -0.3336  0.7397
12394TIP3    H258598   6.693   0.976   3.969 -1.2339 -0.4527 -2.5229
12395TIP3   OH258599   1.923   1.777  13.480  0.2310  0.2652 -0.4087
12395TIP3    H158600   1.847   1.798  13.534  0.5963 -0.3947  0.3913
12395TIP3    H258601   1.998   1.792  13.538  0.5934 -1.2134 -0.4543
12396TIP3   OH258602   0.870   5.560   4.673  0.8279 -0.4959 -0.0918
12396TIP3    H158603   0.830   5.476   4.651  1.2323 -0.3397 -1.5345
12396TIP3    H258604   0.918   5.585   4.594  0.3598  1.2989  0.1388
12397TIP3   OH258605   6.720   5.100  16.495 -0.3347  0.1954 -0.1119
12397TIP3    H158606   6.765   5.167  16.546 -0.2034 -0.3597  0.5113
12397TIP3    H258607   6.698   5.143  16.412 -0.8523  1.2088  0.5365
12398TIP3   OH258608   5.724   0.495  17.019  0.0945  0.5434 -0.4163
12398TIP3    H158609   5.772   0.468  17.097  1.6088  1.4078 -1.0051
12398TIP3    H258610   5.639   0.526  17.052  0.7289  0.9470  0.8897
12399TIP3   OH258611   3.309   6.524   3.954  0.1913 -0.2029 -0.6345
12399TIP3    H158612   3.365   6.521   4.032 -1.0647  2.8001  0.5338
12399TIP3    H258613   3.349   6.589   3.897  0.9512 -2.1879 -2.5078
12400TIP3   OH258614   5.919   6.142  12.336  0.3502  0.0559  0.0324
12400TIP3    H158615   5.835   6.132  12.292  0.1654 -0.6507  0.5277
12400TIP3    H258616   5.908   6.220  12.392 -0.0875 -0.2315  0.3462
12401TIP3   OH258617   3.631   2.310  17.139  0.3285  0.4821  0.4954
12401TIP3    H158618   3.600   2.399  17.158 -1.9616 -0.4990  1.7111
12401TIP3    H258619   3.593   2.290  17.053  0.1192  0.3675  0.6146
12402TIP3   OH258620   0.842   4.742  16.606 -0.7915 -0.6714  0.1518
12402TIP3    H158621   0.869   4.656  16.638 -1.5961 -0.7183  0.7455
12402TIP3    H258622   0.916   4.800  16.625 -1.0904 -0.7791  1.7991
12403TIP3   OH258623   2.003   0.928   4.230 -0.1699 -0.3290  0.2322
12403TIP3    H158624   2.094   0.949   4.208 -0.3683  0.3323  0.0171
12403TIP3    H258625   2.009   0.878   4.311  0.3040  1.0510  1.0921
12404TIP3   OH258626   3.183   6.231  16.390 -0.0746  0.0056  0.6767
12404TIP3    H158627   3.156   6.266  16.306  2.1894  0.7758  0.1894
12404TIP3    H258628   3.262   6.281  16.413  1.9014 -3.0387  1.1661
12405TIP3   OH258629   1.353   2.193   5.854  0.7084 -0.0225 -0.5859
12405TIP3    H158630   1.313   2.174   5.769  0.9965 -0.0551 -0.7157
12405TIP3    H258631   1.423   2.128   5.863  1.0467  0.3380 -0.5794
12406TIP3   OH258632   0.888   0.085   2.954  0.8770 -0.0542  0.3882
12406TIP3    H158633   0.922   0.143   2.886  0.5987 -1.4167 -0.9679
12406TIP3    H258634   0.952   0.014   2.958 -0.1726 -1.0537  0.0338
12407TIP3   OH258635   0.727   2.883  16.172 -0.0388  0.2149 -0.6204
12407TIP3    H158636   0.769   2.799  16.188  0.1276  0.3012 -0.5997
12407TIP3    H258637   0.800   2.944  16.158 -0.1630  0.2534 -1.1490
12408TIP3   OH258638   2.495   4.580  13.275  0.3401 -0.1475 -0.0336
12408TIP3    H158639   2.531   4.669  13.265  3.8203 -1.2972  0.8534
12408TIP3    H258640   2.503   4.541  13.189  1.4483 -0.4419  0.1902
12409TIP3   OH258641   0.166   4.803   5.914  0.5319  0.2942  0.1913
12409TIP3    H158642   0.151   4.872   5.849 -1.2916 -0.6109 -0.4065
12409TIP3    H258643   0.129   4.838   5.995  0.9077  0.5823  0.2407
12410TIP3   OH258644   3.160   5.286  13.007 -0.0605 -0.3621  0.0660
12410TIP3    H158645   3.161   5.255  13.098  0.8367  1.7690  0.8433
12410TIP3    H258646   3.229   5.235  12.964  0.2119 -0.6645  0.8487
12411TIP3   OH258647   5.448   1.510  14.240  0.1042  0.0400 -0.2850
12411TIP3    H158648   5.357   1.526  14.264 -0.2842 -1.7715 -0.4207
12411TIP3    H258649   5.496   1.516  14.322 -0.5022 -1.3519  0.1959
12412TIP3   OH258650   5.381   6.138  14.906 -0.1318 -0.2158  0.4353
12412TIP3    H158651   5.326   6.146  14.984 -0.5972 -3.3864  0.5793
12412TIP3    H258652   5.462   6.099  14.939  0.2425 -0.2022 -0.4524
12413TIP3   OH258653   2.963   1.297   2.087  0.7492 -0.4164 -0.3719
12413TIP3    H158654   2.953   1.366   2.153 -0.4205  1.3338 -2.2399
12413TIP3    H258655   2.907   1.326   2.015  2.8452 -1.6247 -2.5991
12414TIP3   OH258656   5.406   6.439   3.970 -0.2191  0.0044 -0.1331
12414TIP3    H158657   5.474   6.429   3.904 -1.1547  0.0211 -1.1352
12414TIP3    H258658   5.354   6.359   3.963 -0.9501  0.4738 -0.1549
12415TIP3   OH258659   0.994   1.782  17.170  0.2418  0.0815  0.2034
12415TIP3    H158660   1.020   1.716  17.234 -1.0623 -0.4830  0.1676
12415TIP3    H258661   0.951   1.733  17.100 -1.5475  1.0199  0.5887
12416TIP3   OH258662   5.874   3.170   3.838  0.0518  0.3643  0.3781
12416TIP3    H158663   5.876   3.218   3.756 -0.3085  0.9181  0.6900
12416TIP3    H258664   5.929   3.093   3.822 -1.9447 -0.8479 -1.1747
12417TIP3   OH258665   0.702   5.427   1.865  0.3740  0.1803 -0.2332
12417TIP3    H158666   0.728   5.390   1.781 -2.0411  0.9013 -1.3883
12417TIP3    H258667   0.626   5.375   1.891  0.7945  0.2888  1.2762
12418TIP3   OH258668   5.283   2.383  15.045  0.8550  0.3752 -0.1329
12418TIP3    H158669   5.307   2.427  14.964  0.5812  0.4756 -0.1612
12418TIP3    H258670   5.251   2.454  15.102  1.7505  0.4108  0.3295
12419TIP3   OH258671   0.758   2.295  11.692 -0.7462 -0.2700  0.5721
12419TIP3    H158672   0.854   2.292  11.687 -0.8176 -1.0041 -1.5437
12419TIP3    H258673   0.739   2.344  11.771  1.4073  1.8594 -0.1267
12420TIP3   OH258674   5.757   4.699  13.203 -0.2344 -0.2046 -0.2690
12420TIP3    H158675   5.711   4.736  13.279  1.3591 -0.8375  1.0571
12420TIP3    H258676   5.726   4.608  13.199 -1.7156  0.3161 -1.5588
12421TIP3   OH258677   6.148   4.115  13.245  0.0452 -0.2678  0.4353
12421TIP3    H158678   6.221   4.053  13.250  0.2372 -0.1225 -0.3916
12421TIP3    H258679   6.176   4.189  13.298  0.5349 -0.1886  0.0776
12422TIP3   OH258680   4.906   1.273  13.296 -0.3900  0.1645  0.4981
12422TIP3    H158681   4.905   1.366  13.321 -1.4677 -0.0904  1.4704
12422TIP3    H258682   4.941   1.229  13.373  1.4231 -0.1378 -0.4475
12423TIP3   OH258683   0.444   1.729  15.614  0.1066  0.5290  0.0778
12423TIP3    H158684   0.439   1.644  15.659 -0.5682  0.2897 -0.4337
12423TIP3    H258685   0.364   1.733  15.562  1.2521  0.4170 -1.7988
12424TIP3   OH258686   1.067   2.389  17.250  0.5732 -0.0328  0.5498
12424TIP3    H158687   1.158   2.379  17.222  0.1123  1.1298 -1.6365
12424TIP3    H258688   1.025   2.433  17.176 -1.6657 -0.1184  1.7075
12425TIP3   OH258689   3.619   2.576   2.738  0.0928  0.0282  0.0814
12425TIP3    H158690   3.684   2.597   2.804 -1.1378 -0.8001  1.6398
12425TIP3    H258691   3.549   2.639   2.752 -0.8851 -1.1398  0.6947
12426TIP3   OH258692   4.799   3.783   2.610 -0.9415  0.6428  1.1862
12426TIP3    H158693   4.885   3.816   2.583 -0.7155 -0.5505  0.3780
12426TIP3    H258694   4.807   3.770   2.705  0.1241 -0.4529  0.9638
12427TIP3   OH258695   2.705   1.398  14.026  0.1120 -0.0381  0.3087
12427TIP3    H158696   2.626   1.439  14.060  1.1404  2.6098 -0.2132
12427TIP3    H258697   2.771   1.413  14.093  1.1140  1.4627 -0.9356
12428TIP3   OH258698   2.996   0.059   3.175 -0.1248  0.1436  0.1504
12428TIP3    H158699   2.919   0.002   3.180  0.1886 -0.5385 -1.8631
12428TIP3    H258700   3.066   0.002   3.142  0.8761  1.1139  0.5309
12429TIP3   OH258701   6.766   6.071   3.936 -0.3503 -0.1334  0.4960
12429TIP3    H158702   6.777   6.011   3.863  0.0293  0.9675 -0.3756
12429TIP3    H258703   6.792   6.020   4.013 -1.5593 -1.5765  0.0090
12430TIP3   OH258704   5.577   0.883   1.704 -0.2283 -0.3775  0.0285
12430TIP3    H158705   5.616   0.886   1.791  1.3181 -0.4511 -0.6286
12430TIP3    H258706   5.520   0.806   1.706  0.8635 -1.2109  0.5667
12431TIP3   OH258707   1.930   5.626   4.987  0.1020 -0.0679 -0.1179
12431TIP3    H158708   1.892   5.541   5.009  0.1199 -0.7427 -2.4285
12431TIP3    H258709   2.021   5.606   4.964  0.3140  0.7027  0.0249
12432TIP3   OH258710   5.928   4.129  12.058  0.1419 -0.3103 -0.6492
12432TIP3    H158711   5.841   4.093  12.072  0.2278  0.2326  1.7195
12432TIP3    H258712   5.926   4.214  12.102  1.6771 -0.0015 -1.1110
12433TIP3   OH258713   1.115   4.113  15.817 -0.0529  0.3603  0.1396
12433TIP3    H158714   1.116   4.190  15.873  0.7165  0.2541  0.2803
12433TIP3    H258715   1.061   4.138  15.742  2.3095  1.9967 -1.1313
12434TIP3   OH258716   2.048   5.226   5.584  0.0028  0.8088  0.3011
12434TIP3    H158717   2.056   5.282   5.662  1.1894 -0.1187  0.8787
12434TIP3    H258718   2.080   5.141   5.613  0.5509  0.4689 -1.2358
12435TIP3   OH258719   3.417   6.646  13.775  0.2933 -0.2532  0.6377
12435TIP3    H158720   3.492   6.623  13.830 -0.3687 -1.2361  1.1512
12435TIP3    H258721   3.432   6.597  13.694 -0.6780 -1.9082  1.4105
12436TIP3   OH258722   4.977   4.306  11.840 -0.4991 -0.4656  0.4153
12436TIP3    H158723   5.019   4.282  11.923 -0.1869 -1.7898 -0.0972
12436TIP3    H258724   5.050   4.311  11.777 -0.9495 -1.4318 -0.1955
12437TIP3   OH258725   3.756   2.536   2.511  0.4467 -0.2819  0.0393
12437TIP3    H158726   3.711   2.599   2.454  0.1129 -1.4319 -1.0176
12437TIP3    H258727   3.705   2.536   2.592  0.2877  0.5868 -0.0529
12438TIP3   OH258728   2.214   4.582  10.584 -0.0022  0.1424 -0.3652
12438TIP3    H158729   2.284   4.640  10.614  0.6376 -0.3631 -0.8522
12438TIP3    H258730   2.192   4.529  10.661 -0.0563  0.4963 -0.1321
12439TIP3   OH258731   4.325   3.332   4.204 -0.5883  0.0951  0.4835
12439TIP3    H158732   4.340   3.323   4.298 -0.7130  2.0209  0.7244
12439TIP3    H258733   4.382   3.266   4.164  0.2558 -0.0409  1.8545
12440TIP3   OH258734   2.092   1.560  11.074  0.4681 -0.0880 -0.2553
12440TIP3    H158735   2.180   1.598  11.078  0.5984 -0.4287  0.1920
12440TIP3    H258736   2.037   1.630  11.037 -0.1981  2.2411  4.3098
12441TIP3   OH258737   2.482   3.711  15.386  0.3460  0.2881 -0.1556
12441TIP3    H158738   2.499   3.776  15.319 -0.4263  0.1814 -0.4645
12441TIP3    H258739   2.495   3.757  15.469  2.9655  0.0023 -0.3191
12442TIP3   OH258740   4.596   3.868  15.035  0.5906 -0.3057 -0.2081
12442TIP3    H158741   4.621   3.952  14.997 -0.5440  1.4724  2.6445
12442TIP3    H258742   4.677   3.833  15.072  0.3106  2.6364  3.9007
12443TIP3   OH258743   0.260   0.874   2.938  0.3928 -0.1302  0.5223
12443TIP3    H158744   0.301   0.951   2.897  0.8941 -0.3175  0.6641
12443TIP3    H258745   0.168   0.899   2.949  0.9289  1.2804  2.4465
12444TIP3   OH258746   0.513   0.839   1.590  0.5080  0.3317 -0.4970
12444TIP3    H158747   0.429   0.794   1.596  1.0103 -0.5540  0.3044
12444TIP3    H258748   0.578   0.769   1.594  1.3983  1.1361  3.0427
12445TIP3   OH258749   5.079   2.611   5.192 -0.1923 -0.1881 -0.0689
12445TIP3    H158750   5.002   2.555   5.183 -0.3431  0.1692 -1.1570
12445TIP3    H258751   5.068   2.653   5.277 -1.7528  0.6666 -0.6612
12446TIP3   OH258752   3.984   1.975   0.026 -0.1433 -0.5317 -0.9809
12446TIP3    H158753   4.068   1.953   0.068  0.4374  0.6687 -1.4699
12446TIP3    H258754   3.978   1.915  -0.048 -0.6319 -1.8998  0.1332
12447TIP3   OH258755   3.058   4.481  11.464 -1.0755  0.0692  0.2698
12447TIP3    H158756   3.057   4.437  11.549 -0.8668  2.1284  1.3903
12447TIP3    H258757   3.151   4.497  11.447 -1.2121  4.0010  2.1270
12448TIP3   OH258758   1.478   5.268   5.801  0.9646 -0.1824  0.4845
12448TIP3    H158759   1.406   5.324   5.773 -0.2503 -1.5404  0.8298
12448TIP3    H258760   1.552   5.329   5.810 -0.1276  1.2528  0.2193
12449TIP3   OH258761   1.442   3.116  15.293  0.4284  0.1591  0.2484
12449TIP3    H158762   1.484   3.030  15.288 -1.2251 -0.7155  0.4228
12449TIP3    H258763   1.348   3.097  15.282 -0.0432  1.8638  0.9971
12450TIP3   OH258764   5.282   3.690   4.261  0.1203 -0.2646  0.1312
12450TIP3    H158765   5.377   3.687   4.274  0.0080  0.5624  1.3225
12450TIP3    H258766   5.261   3.609   4.214  1.2077 -1.2283  1.2561
12451TIP3   OH258767   3.947   4.561  14.697 -0.0521 -0.1136 -0.0501
12451TIP3    H158768   3.896   4.635  14.731  0.1091  0.1591 -0.3950
12451TIP3    H258769   3.889   4.486  14.707 -1.7530  0.6079 -3.1023
12452TIP3   OH258770   1.621   5.719   4.376  0.6961  1.1340  0.0690
12452TIP3    H158771   1.583   5.659   4.440  0.8618  0.7767 -0.1670
12452TIP3    H258772   1.702   5.676   4.348  1.1086  1.7350  0.3253
12453TIP3   OH258773   2.175   5.395   1.849 -0.3397 -0.6420  0.5079
12453TIP3    H158774   2.191   5.393   1.943  0.2264 -1.3864  0.4124
12453TIP3    H258775   2.202   5.308   1.819  0.3294 -0.1147 -0.4716
12454TIP3   OH258776   5.925   5.306  12.760 -0.0303  0.4928 -0.2554
12454TIP3    H158777   5.874   5.387  12.759 -0.1203  0.4322 -0.8036
12454TIP3    H258778   5.947   5.293  12.853  0.0165  1.1592 -0.1655
12455TIP3   OH258779   0.601   5.882  16.928 -1.0875  0.5193 -0.2883
12455TIP3    H158780   0.521   5.898  16.879 -1.6857 -0.2157  0.4349
12455TIP3    H258781   0.660   5.841  16.864 -1.5627  0.3255 -0.6078
12456TIP3   OH258782   0.806   4.757   3.269  0.0395  0.2055  0.6989
12456TIP3    H158783   0.808   4.850   3.247  0.9050 -0.2117 -1.2384
12456TIP3    H258784   0.894   4.726   3.248 -0.3971 -1.1611  0.7981
12457TIP3   OH258785   3.381   3.872   4.391 -0.4535  0.6158 -0.1936
12457TIP3    H158786   3.418   3.838   4.310  1.8217 -0.9286  1.3945
12457TIP3    H258787   3.456   3.906   4.439 -1.9663  3.0161  0.6351
12458TIP3   OH258788   0.310   4.525  14.293  0.3816 -0.6776 -0.3467
12458TIP3    H158789   0.241   4.583  14.261  0.2292  1.1920  2.8728
12458TIP3    H258790   0.271   4.438  14.290 -0.6574 -0.2032 -2.2024
12459TIP3   OH258791   4.090   2.224  14.507 -0.5500 -0.1589 -0.9721
12459TIP3    H158792   4.009   2.199  14.551 -0.6213  0.7910 -0.5346
12459TIP3    H258793   4.070   2.309  14.468  1.0035  1.4586  1.4569
12460TIP3   OH258794   5.296   5.647   3.463 -0.0854  0.2270  0.3540
12460TIP3    H158795   5.312   5.736   3.433  2.1905  0.1852  1.2633
12460TIP3    H258796   5.316   5.591   3.388 -1.2883  0.4135 -0.1422
12461TIP3   OH258797   0.251   0.431  14.565  0.5444 -0.0990  0.3717
12461TIP3    H158798   0.305   0.399  14.637 -2.3774 -3.4798  1.3416
12461TIP3    H258799   0.277   0.377  14.490  2.1321  2.0103 -0.7087
12462TIP3   OH258800   1.826   4.585   1.727  0.4453 -0.0041 -0.0077
12462TIP3    H158801   1.747   4.635   1.711 -0.1138 -0.1451  2.1273
12462TIP3    H258802   1.796   4.494   1.732  0.9072 -0.1686 -0.1440
12463TIP3   OH258803   2.036   3.961   0.121 -0.4202 -0.3513  0.3872
12463TIP3    H158804   1.960   3.990   0.071 -0.1221 -0.4316 -0.1126
12463TIP3    H258805   2.008   3.969   0.213 -0.5087  1.0295  0.2527
12464TIP3   OH258806   3.982   5.035   5.339  0.6562  0.6009 -0.2321
12464TIP3    H158807   4.005   4.979   5.414 -0.1760  0.6388  0.0540
12464TIP3    H258808   4.049   5.103   5.340  2.0212 -0.6644 -0.9038
12465TIP3   OH258809   2.131   1.027  16.917  0.2000  0.1500 -0.1196
12465TIP3    H158810   2.047   1.017  16.872  1.2800 -0.9530 -2.0222
12465TIP3    H258811   2.140   1.121  16.931 -1.9625  0.2025  1.4499
12466TIP3   OH258812   6.409   5.404   3.439 -0.0569  0.2865 -0.0195
12466TIP3    H158813   6.327   5.360   3.461  0.2465 -0.8795 -1.1122
12466TIP3    H258814   6.383   5.494   3.419 -0.9960  0.0635  0.1403
12467TIP3   OH258815   5.479   5.839  14.551  0.2460  0.5309 -0.2294
12467TIP3    H158816   5.529   5.795  14.620 -0.7920 -1.4229 -0.6332
12467TIP3    H258817   5.494   5.932  14.565  1.0960  0.1280  1.8346
12468TIP3   OH258818   0.506   0.438  13.856 -0.8044  0.4574 -0.5951
12468TIP3    H158819   0.510   0.448  13.761 -1.9774  0.9274 -0.6144
12468TIP3    H258820   0.584   0.482  13.888 -0.0630 -0.2543 -1.3644
12469TIP3   OH258821   4.921   0.201  16.578  0.2081  0.0770 -0.1136
12469TIP3    H158822   4.901   0.110  16.601  0.2778 -0.2625 -1.2823
12469TIP3    H258823   5.007   0.217  16.617  0.8334 -0.8384 -1.0377
12470TIP3   OH258824   1.861   3.004  11.150  0.1521  0.6199  0.9069
12470TIP3    H158825   1.813   2.957  11.081  0.9062  0.3872  0.5387
12470TIP3    H258826   1.858   3.096  11.124  0.5903  0.5110  0.4717
12471TIP3   OH258827   2.113   4.660   2.565 -0.1862  0.4886  0.2145
12471TIP3    H158828   2.187   4.659   2.626 -0.8531  0.8031  1.0561
12471TIP3    H258829   2.104   4.752   2.539  0.1104  0.3524 -0.3848
12472TIP3   OH258830   4.041   0.988   3.943  0.1865  0.3951 -0.1765
12472TIP3    H158831   3.958   1.001   3.987 -0.5003  0.4227 -1.4384
12472TIP3    H258832   4.102   0.965   4.013 -0.7753  0.7856  0.8165
12473TIP3   OH258833   1.637   3.231  14.801 -0.2879  0.0892 -0.3816
12473TIP3    H158834   1.581   3.307  14.785 -0.2697  0.4208  0.9956
12473TIP3    H258835   1.718   3.268  14.837  0.3303 -0.4812 -1.1433
12474TIP3   OH258836   2.167   1.756   0.933 -0.1514 -0.6078 -0.2914
12474TIP3    H158837   2.169   1.852   0.941 -1.1157 -0.6371  0.4943
12474TIP3    H258838   2.259   1.731   0.925  0.3358  0.1967  2.0357
12475TIP3   OH258839   5.602   6.739   4.276 -0.1157  0.0743 -0.3801
12475TIP3    H158840   5.611   6.644   4.264 -0.2305  0.1538 -1.1241
12475TIP3    H258841   5.512   6.750   4.308 -0.4705  0.0124 -1.3188
12476TIP3   OH258842   1.367   0.693   2.731  0.0760 -0.6837  0.1016
12476TIP3    H158843   1.373   0.629   2.660 -1.0693 -0.0516 -0.5998
12476TIP3    H258844   1.287   0.742   2.712  1.2985  1.4750  0.1735
12477TIP3   OH258845   4.320   2.021   4.219  0.0116  0.5524  0.5990
12477TIP3    H158846   4.340   1.942   4.170 -0.8529  0.2797  0.6805
12477TIP3    H258847   4.383   2.021   4.291  1.8395  1.3683 -0.8905
12478TIP3   OH258848   0.257   1.544  13.991 -0.2932  0.2631  0.4827
12478TIP3    H158849   0.217   1.457  13.981  0.6762 -0.2757  1.0519
12478TIP3    H258850   0.285   1.568  13.903 -2.4292  0.9606 -0.0506
12479TIP3   OH258851   1.869   4.167  15.100  0.5060  0.5357 -0.6778
12479TIP3    H158852   1.957   4.204  15.103  1.3688 -1.3846 -1.0993
12479TIP3    H258853   1.826   4.202  15.178  1.5386  1.6764 -0.5844
12480TIP3   OH258854   3.093   5.045   1.332 -0.2545  0.0659  0.4853
12480TIP3    H158855   3.052   4.971   1.287  0.5445 -1.0534  1.5403
12480TIP3    H258856   3.020   5.096   1.367 -0.7975 -1.4312  1.6263
12481TIP3   OH258857   4.426   2.813   1.688 -0.4687 -0.4680  0.2119
12481TIP3    H158858   4.337   2.834   1.715 -0.0536 -0.7031  1.9221
12481TIP3    H258859   4.416   2.746   1.621 -1.6202  1.1866 -1.3551
12482TIP3   OH258860   6.330   0.490   4.344 -0.0560 -0.0293  0.0317
12482TIP3    H158861   6.304   0.575   4.380 -1.0686 -0.5987  0.7163
12482TIP3    H258862   6.248   0.452   4.314  0.6112 -0.0572 -1.9049
12483TIP3   OH258863   2.717   6.732   3.086 -0.6663 -0.1452 -0.3938
12483TIP3    H158864   2.641   6.694   3.130 -1.5151  0.8111 -1.0145
12483TIP3    H258865   2.681   6.776   3.009  0.5014  0.4134 -0.6362
12484TIP3   OH258866   5.342   2.771  10.591 -0.4929 -0.9180 -0.1259
12484TIP3    H158867   5.307   2.778  10.680  2.0217 -0.2032  0.8806
12484TIP3    H258868   5.346   2.676  10.575 -0.3566 -1.0826  0.7982
12485TIP3   OH258869   5.492   3.270   0.725  0.3696 -0.2426  0.0344
12485TIP3    H158870   5.458   3.240   0.809  1.1787 -0.5436  0.2655
12485TIP3    H258871   5.566   3.212   0.707  1.4458  1.0534  0.0889
12486TIP3   OH258872   3.381   3.739  16.723  0.2283  0.1314  0.2595
12486TIP3    H158873   3.466   3.711  16.758 -0.2374 -0.7195  0.7384
12486TIP3    H258874   3.400   3.820  16.676  1.6069 -0.8734 -1.0159
12487TIP3   OH258875   1.220   0.159   6.304 -0.0237 -0.3227  0.6268
12487TIP3    H158876   1.275   0.091   6.342  2.9044  1.4957 -0.0105
12487TIP3    H258877   1.238   0.237   6.356 -2.0554  0.3916  0.3650
12488TIP3   OH258878   1.546   4.672  13.665 -0.3117 -0.2757  0.2936
12488TIP3    H158879   1.576   4.680  13.756  0.8234  0.6284 -0.1380
12488TIP3    H258880   1.536   4.578  13.651 -1.8015 -0.3829  1.7486
12489TIP3   OH258881   1.328   0.018   2.044  0.3733  0.1040  0.5213
12489TIP3    H158882   1.353   0.087   1.982 -0.5199 -0.7879 -0.8804
12489TIP3    H258883   1.238  -0.003   2.021  0.6957 -1.6668  0.7852
12490TIP3   OH258884   0.333   4.696  16.594  0.5102  0.1918  0.5830
12490TIP3    H158885   0.408   4.755  16.604  0.1002  0.5788  1.4520
12490TIP3    H258886   0.263   4.737  16.644 -0.7589  0.6110 -1.4337
12491TIP3   OH258887   2.109   0.161   1.803 -0.0986 -0.0593  0.4122
12491TIP3    H158888   2.068   0.208   1.730 -1.4167 -0.0084  1.1413
12491TIP3    H258889   2.096   0.218   1.879  0.7336 -0.3739  0.7996
12492TIP3   OH258890   4.114   1.338   1.283  0.4772 -0.1273 -0.0143
12492TIP3    H158891   4.158   1.274   1.339  0.7474 -2.4401 -2.7093
12492TIP3    H258892   4.183   1.402   1.263  0.4102  0.6902  2.0570
12493TIP3   OH258893   5.422   3.879   1.878  0.6328 -0.1020 -0.5370
12493TIP3    H158894   5.335   3.848   1.901  0.3970  0.4985 -0.5952
12493TIP3    H258895   5.416   3.902   1.785  0.1492  2.2270  0.0134
12494TIP3   OH258896   3.406   1.185  13.532  0.1476  0.6345 -0.1185
12494TIP3    H158897   3.424   1.116  13.469 -0.0174 -0.6563  1.1780
12494TIP3    H258898   3.353   1.249  13.485 -0.8791 -0.8196 -0.9826
12495TIP3   OH258899   3.419   2.839   5.983  0.3101  0.0038  0.2046
12495TIP3    H158900   3.494   2.813   6.036  0.8677 -1.6243 -1.2785
12495TIP3    H258901   3.449   2.915   5.933  0.5535  0.1151  0.5221
12496TIP3   OH258902   2.133   3.937   4.086  0.2711  0.7266  0.5203
12496TIP3    H158903   2.149   4.025   4.121  1.0703  0.6760  0.2926
12496TIP3    H258904   2.213   3.889   4.105  0.8774  0.7737 -1.6443
12497TIP3   OH258905   1.839   3.478   3.904  0.1766 -0.4760  0.0304
12497TIP3    H158906   1.838   3.441   3.993  1.4422  0.0318  0.2813
12497TIP3    H258907   1.798   3.564   3.913 -6.0213 -2.7818 -1.1589
12498TIP3   OH258908   1.276   5.530   0.430 -0.1281 -0.1455 -0.2554
12498TIP3    H158909   1.335   5.455   0.418  1.6719  0.9392  1.3424
12498TIP3    H258910   1.295   5.587   0.356 -1.4514 -1.1479 -1.4386
12499TIP3   OH258911   0.247   5.615   4.927 -0.0096 -0.2619  0.0146
12499TIP3    H158912   0.280   5.546   4.984  1.2213  0.5384  0.3229
12499TIP3    H258913   0.323   5.672   4.913 -1.4073  2.0827  1.3318
12500TIP3   OH258914   6.029   3.422  11.308 -0.3156  0.0164 -0.2470
12500TIP3    H158915   6.004   3.333  11.285 -1.2533  0.3483 -0.5643
12500TIP3    H258916   5.969   3.478  11.259  2.3127  0.9646 -2.6570
12501TIP3   OH258917   0.908   6.570  14.699 -0.0460 -0.2823  0.5073
12501TIP3    H158918   0.952   6.545  14.618 -0.2814  1.5651 -0.2407
12501TIP3    H258919   0.826   6.520  14.699  1.8118 -3.6968  1.8573
12502TIP3   OH258920   6.477   6.326   4.883  0.0541  0.1542 -0.0234
12502TIP3    H158921   6.572   6.335   4.889  0.0569 -0.0439  0.2251
12502TIP3    H258922   6.449   6.299   4.970 -0.2633  0.4789 -0.0207
12503TIP3   OH258923   1.172   4.962   3.171  0.3024 -0.4113  0.8713
12503TIP3    H158924   1.266   4.968   3.152  0.1407  0.3975  0.2916
12503TIP3    H258925   1.145   4.880   3.130  0.9588 -1.2029  1.9668
12504TIP3   OH258926   4.516   4.255  11.978 -0.2996  0.2638  0.1438
12504TIP3    H158927   4.482   4.166  11.967 -1.0289  0.5283  0.2652
12504TIP3    H258928   4.439   4.310  11.984  0.1083  1.1997 -2.1312
12505TIP3   OH258929   1.126   1.595   6.147  0.1106 -0.0604  0.1065
12505TIP3    H158930   1.092   1.574   6.060 -1.1910  0.7721  0.3884
12505TIP3    H258931   1.221   1.600   6.135 -0.1677  2.4391 -1.8253
12506TIP3   OH258932   6.373   3.095  15.988 -0.0052 -0.9423  0.0573
12506TIP3    H158933   6.441   3.153  16.023  0.1612 -0.3968 -1.1174
12506TIP3    H258934   6.416   3.048  15.917 -0.2483 -2.2590  0.7500
12507TIP3   OH258935   4.632   3.757   5.166 -0.5519  0.1345 -0.6002
12507TIP3    H158936   4.617   3.811   5.243  1.7401  1.2840 -0.8860
12507TIP3    H258937   4.609   3.813   5.092 -2.4949 -0.8787 -0.8396
12508TIP3   OH258938   1.670   1.463  11.421  0.0703 -0.4982 -0.0532
12508TIP3    H158939   1.724   1.514  11.360  0.2696  0.6248  1.0377
12508TIP3    H258940   1.733   1.407  11.466 -0.0158 -0.9750 -0.5104
12509TIP3   OH258941   3.325   3.061   4.220 -0.0868  0.3333 -0.3146
12509TIP3    H158942   3.353   3.090   4.307  1.2069 -0.4244 -0.4491
12509TIP3    H258943   3.402   3.017   4.184 -1.5098 -1.9351 -0.7176
12510TIP3   OH258944   4.692   1.612  16.170  0.1232  0.4754 -0.3360
12510TIP3    H158945   4.691   1.645  16.260 -1.1431 -1.6979  0.5223
12510TIP3    H258946   4.756   1.541  16.170 -2.3314 -1.9297 -0.1004
12511TIP3   OH258947   4.601   2.214   1.100 -0.0989 -0.2461  0.3436
12511TIP3    H158948   4.559   2.207   1.186 -0.7567 -1.4265 -0.0515
12511TIP3    H258949   4.678   2.268   1.116  0.2456 -1.1113  1.8591
12512TIP3   OH258950   2.504   3.525   1.863 -0.1843 -0.6635  0.6172
12512TIP3    H158951   2.496   3.499   1.954  0.4519 -0.1277  0.8336
12512TIP3    H258952   2.597   3.544   1.851 -0.4481  0.5219  0.2122
12513TIP3   OH258953   6.279   4.544  13.714  0.7504 -0.3389 -0.0555
12513TIP3    H158954   6.273   4.593  13.796  0.7527  0.6608 -0.6449
12513TIP3    H258955   6.263   4.608  13.646  0.6032 -1.1918 -0.8474
12514TIP3   OH258956   2.456   2.405  13.783 -0.1528 -0.0931 -0.3467
12514TIP3    H158957   2.373   2.370  13.815 -0.1364  0.6820  0.5584
12514TIP3    H258958   2.521   2.372  13.844 -0.1548  1.6005  0.6447
12515TIP3   OH258959   2.638   6.651   1.357  0.1704 -0.0524 -0.0773
12515TIP3    H158960   2.645   6.555   1.360 -1.6886 -0.2300 -0.0829
12515TIP3    H258961   2.687   6.676   1.279  0.9514 -0.9576  0.0964
12516TIP3   OH258962   6.264   5.624  16.266 -0.0412 -0.3096 -0.3368
12516TIP3    H158963   6.216   5.678  16.203 -0.3893  0.7170  0.7665
12516TIP3    H258964   6.204   5.617  16.341  0.4831 -1.2595  0.0090
12517TIP3   OH258965   5.753   0.117  14.502 -0.1273 -0.5434  0.4472
12517TIP3    H158966   5.832   0.062  14.501  0.3986  0.1598 -1.4762
12517TIP3    H258967   5.781   0.198  14.545  1.0984  0.7884 -2.5648
12518TIP3   OH258968   0.404   0.209   4.504 -0.1814  0.0212 -0.3191
12518TIP3    H158969   0.461   0.140   4.539 -0.2593  1.0235  1.9450
12518TIP3    H258970   0.437   0.224   4.415  4.2085  1.5812  1.2740
12519TIP3   OH258971   3.789   3.436   5.259 -0.9002  0.1543  0.8400
12519TIP3    H158972   3.706   3.402   5.292 -0.8079 -0.9225  0.0079
12519TIP3    H258973   3.827   3.364   5.210 -0.4341  1.2733 -0.5218
12520TIP3   OH258974   5.177   4.104  13.632  0.3340  0.8453  0.2951
12520TIP3    H158975   5.081   4.105  13.634  0.3103  1.3494 -0.6316
12520TIP3    H258976   5.201   4.190  13.597  1.1240  0.6597  0.3674
12521TIP3   OH258977   3.373   4.432   5.877 -0.1769  0.0165 -0.2592
12521TIP3    H158978   3.412   4.498   5.933  0.2961 -0.1673 -0.3618
12521TIP3    H258979   3.310   4.480   5.823  1.1200  0.6388 -1.2768
12522TIP3   OH258980   3.810   3.951   1.595  0.0012 -0.2055 -0.1056
12522TIP3    H158981   3.855   3.878   1.552 -0.7937 -0.5004 -0.4474
12522TIP3    H258982   3.721   3.950   1.559  0.4622  2.1037 -1.5561
12523TIP3   OH258983   0.195   2.368  14.401  0.0895  0.4493  0.0342
12523TIP3    H158984   0.255   2.436  14.370 -0.0508  0.9033  0.7370
12523TIP3    H258985   0.126   2.416  14.447  1.0064 -0.2289  2.2953
12524TIP3   OH258986   0.426   3.117   0.534 -0.2694 -0.4744 -0.2364
12524TIP3    H158987   0.459   3.048   0.591  0.5504 -0.7423 -0.9999
12524TIP3    H258988   0.491   3.123   0.464  0.5530  2.1885  0.6303
12525TIP3   OH258989   6.540   5.666   6.295  0.6175  0.3164  0.4030
12525TIP3    H158990   6.511   5.584   6.256  2.8349  0.2804 -1.3610
12525TIP3    H258991   6.618   5.690   6.246  0.6278  2.9767  1.5388
12526TIP3   OH258992   2.259   5.207  14.043  0.0776 -0.1497  0.3087
12526TIP3    H158993   2.172   5.218  14.081 -0.2969 -0.6903 -0.3676
12526TIP3    H258994   2.289   5.122  14.074 -0.3349 -0.7049 -0.7850
12527TIP3   OH258995   0.490   4.613  12.797  0.3014 -0.2738  0.4019
12527TIP3    H158996   0.581   4.603  12.771  0.6632 -1.5422  1.9801
12527TIP3    H258997   0.449   4.529  12.775 -0.8928  0.7851 -1.6503
12528TIP3   OH258998   1.348   3.845   4.172  0.1370 -0.1505 -0.2601
12528TIP3    H158999   1.393   3.770   4.132 -0.1899 -0.4264 -0.1152
12528TIP3    H259000   1.365   3.918   4.113  1.6698  0.0046  0.3306
12529TIP3   OH259001   4.095   2.708  10.856 -0.4163 -0.3808 -0.4022
12529TIP3    H159002   4.007   2.699  10.819 -0.3075 -1.1200 -0.4977
12529TIP3    H259003   4.127   2.618  10.864  0.5835 -0.0860 -0.9695
12530TIP3   OH259004   2.156   3.796   1.262  0.8101 -0.5096 -0.3900
12530TIP3    H159005   2.151   3.784   1.357 -2.7349  1.3706 -0.1499
12530TIP3    H259006   2.236   3.847   1.249  1.2298 -0.5651  1.6117
12531TIP3   OH259007   5.485   0.896  12.197 -0.3156  0.0039  0.2170
12531TIP3    H159008   5.544   0.831  12.158 -0.0670  0.0517  0.5135
12531TIP3    H259009   5.484   0.968  12.133 -0.7267 -0.3597 -0.1954
12532TIP3   OH259010   6.653   5.352   2.456 -0.0801  0.2573  0.6573
12532TIP3    H159011   6.700   5.435   2.447 -0.8498  0.7746  1.2690
12532TIP3    H259012   6.631   5.327   2.366  0.2997  0.6275  0.4573
12533TIP3   OH259013   6.477   5.007  16.805 -0.3471  0.2772  0.0615
12533TIP3    H159014   6.509   4.933  16.857  0.8415 -0.7713 -2.0123
12533TIP3    H259015   6.405   4.970  16.754 -0.6964  0.9368  0.0774
12534TIP3   OH259016   6.527   1.809  11.291  0.2290  0.5518  0.5268
12534TIP3    H159017   6.506   1.756  11.214  0.9045  1.1181 -0.0691
12534TIP3    H259018   6.599   1.865  11.262  0.3649  0.9119  1.5213
12535TIP3   OH259019   5.978   1.401   0.131 -0.5547 -0.0761  0.2415
12535TIP3    H159020   6.058   1.354   0.155 -0.6481 -0.9585 -1.0562
12535TIP3    H259021   5.972   1.474   0.194  0.3925 -0.9323  1.3603
12536TIP3   OH259022   2.911   4.216  11.698  0.2034 -0.1988 -0.0326
12536TIP3    H159023   2.989   4.253  11.657  0.4006 -0.1109  0.4206
12536TIP3    H259024   2.849   4.207  11.626 -0.6083  2.9734  0.1048
12537TIP3   OH259025   3.666   0.442   2.952  0.4920  0.3846  0.2846
12537TIP3    H159026   3.677   0.407   2.864 -1.2369  1.9524 -0.6140
12537TIP3    H259027   3.747   0.419   2.997  1.2648 -0.7829 -1.5784
12538TIP3   OH259028   3.447   1.568   0.919  0.6680 -0.5862 -0.2543
12538TIP3    H159029   3.536   1.589   0.945  0.0879  1.3562  0.3810
12538TIP3    H259030   3.448   1.575   0.824  1.0109  0.3777 -0.1969
12539TIP3   OH259031   4.152   5.350   0.902 -0.2972  0.7150  0.5191
12539TIP3    H159032   4.191   5.434   0.923  1.5374  0.4135 -1.2999
12539TIP3    H259033   4.198   5.322   0.823  0.2431 -2.6702  1.8522
12540TIP3   OH259034   5.253   0.622  15.898  0.1012  0.4333 -0.2046
12540TIP3    H159035   5.173   0.570  15.886 -0.1699  0.7284  0.3047
12540TIP3    H259036   5.309   0.596  15.826 -0.3542  0.0251 -0.4161
12541TIP3   OH259037   4.195   5.944  12.734  0.3696  0.0989 -0.3601
12541TIP3    H159038   4.191   5.911  12.824  0.6237  0.0960 -0.3486
12541TIP3    H259039   4.277   5.907  12.699  0.6744  0.7490 -0.3381
12542TIP3   OH259040   0.216   5.660  16.546  0.0394  0.0264 -0.3224
12542TIP3    H159041   0.227   5.746  16.507  0.0047 -0.3782 -1.2471
12542TIP3    H259042   0.160   5.675  16.623  1.4476  1.0758  0.5366
12543TIP3   OH259043   5.390   0.699   1.683  0.4613  0.1053 -0.0665
12543TIP3    H159044   5.421   0.619   1.640  0.6237 -0.7809  1.6031
12543TIP3    H259045   5.340   0.668   1.758 -0.8449  1.5826 -0.2836
12544TIP3   OH259046   2.504   4.280   2.909 -0.0712 -0.1545 -0.0150
12544TIP3    H159047   2.410   4.291   2.927  0.2259  2.8710  0.2222
12544TIP3    H259048   2.511   4.290   2.814  0.1023  0.6504  0.0782
12545TIP3   OH259049   6.230   1.100  15.714 -0.9068 -0.0553 -0.0406
12545TIP3    H159050   6.282   1.077  15.791 -0.5868 -0.7490 -0.4508
12545TIP3    H259051   6.216   1.194  15.721 -1.4047 -0.1953  1.1859
12546TIP3   OH259052   5.905   2.247  16.085  0.4072 -0.8175  0.0995
12546TIP3    H159053   5.820   2.265  16.124  1.5764 -0.1696  2.5919
12546TIP3    H259054   5.904   2.294  16.001 -1.6408 -0.7968  0.1028
12547TIP3   OH259055   5.903   1.279  12.311 -0.2189  0.1702  0.1577
12547TIP3    H159056   5.838   1.286  12.381 -1.8530  0.4567 -1.2881
12547TIP3    H259057   5.951   1.199  12.330 -2.1552 -1.0003  0.4296
12548TIP3   OH259058   3.337   6.693   0.279 -0.5738 -0.6633 -0.1169
12548TIP3    H159059   3.347   6.626   0.346 -1.3135 -1.5359 -0.8511
12548TIP3    H259060   3.269   6.658   0.220 -2.0573  1.3453  0.2887
12549TIP3   OH259061   6.731   2.695  13.474  0.3117 -0.0830  0.0283
12549TIP3    H159062   6.691   2.721  13.391 -0.3644  1.4199  0.7844
12549TIP3    H259063   6.707   2.604  13.485 -0.6910  0.0663 -0.8022
12550TIP3   OH259064   5.337   0.637  12.276  0.3941  0.2910  0.6134
12550TIP3    H159065   5.396   0.684  12.218 -0.7447  0.0568 -0.7981
12550TIP3    H259066   5.279   0.705  12.313 -0.7411  0.1398 -0.8113
12551TIP3   OH259067   0.911   2.563   0.615  0.3353  0.4027  0.1711
12551TIP3    H159068   0.850   2.496   0.585  0.0011  1.0433 -0.6353
12551TIP3    H259069   0.867   2.646   0.596  1.2880  0.8752 -0.0525
12552TIP3   OH259070   2.773   4.234  11.334 -0.3345 -0.2682  0.4993
12552TIP3    H159071   2.852   4.181  11.334 -1.7330 -2.5498 -1.4323
12552TIP3    H259072   2.802   4.321  11.361  2.4982 -1.3983  1.4349
12553TIP3   OH259073   0.800   3.097  15.035  0.5044 -0.1912 -0.4075
12553TIP3    H159074   0.813   3.128  15.125 -2.3133 -0.4064  0.1893
12553TIP3    H259075   0.888   3.091  14.998  1.7492  0.0356  2.2842
12554TIP3   OH259076   1.973   6.333  12.915 -0.4296 -0.3359 -0.2734
12554TIP3    H159077   2.017   6.415  12.894  0.4555 -0.9772 -1.0247
12554TIP3    H259078   1.961   6.290  12.830 -1.4128 -0.7275  0.0435
12555TIP3   OH259079   3.214   4.920  11.671 -0.0739 -0.1062  0.1586
12555TIP3    H159080   3.230   4.888  11.582 -0.5970  0.0486  0.0074
12555TIP3    H259081   3.272   4.995  11.680 -2.3722  1.9905 -1.2603
12556TIP3   OH259082   4.126   1.622   3.876 -0.5742 -0.0449 -0.9946
12556TIP3    H159083   4.068   1.551   3.902 -0.4775 -0.0649 -0.8253
12556TIP3    H259084   4.153   1.662   3.959  0.0992 -0.3951 -1.0327
12557TIP3   OH259085   6.168   2.597   2.892  0.0527 -0.5734  0.7185
12557TIP3    H159086   6.159   2.689   2.868  1.2264 -0.0035  2.2513
12557TIP3    H259087   6.080   2.561   2.885 -0.4871  0.7680  0.4193
12558TIP3   OH259088   3.587   6.074   3.766  0.2419 -0.3575 -0.3949
12558TIP3    H159089   3.519   6.050   3.829  0.4872 -1.8595 -0.6759
12558TIP3    H259090   3.580   6.169   3.759 -2.4142 -0.5379 -1.0891
12559TIP3   OH259091   3.194   1.075  14.009  0.0466  0.0510  0.2237
12559TIP3    H159092   3.229   1.135  13.943 -0.1047 -0.3006 -0.1858
12559TIP3    H259093   3.102   1.065  13.985  0.1467 -0.5919  0.1001
12560TIP3   OH259094   4.986   5.726   6.055 -0.0504 -0.1895 -0.2639
12560TIP3    H159095   5.032   5.658   6.104 -0.5866 -0.0949  0.4030
12560TIP3    H259096   4.894   5.714   6.079 -0.0458  1.4597  0.7805
12561TIP3   OH259097   5.786   5.008  12.505 -0.1268 -0.3711  0.1168
12561TIP3    H159098   5.766   5.093  12.465 -0.6822 -0.2761  0.5746
12561TIP3    H259099   5.704   4.958  12.496 -0.2951 -0.3183  1.1841
12562TIP3   OH259100   3.172   1.669   5.100  0.0613 -0.6923  0.0110
12562TIP3    H159101   3.216   1.628   5.174  1.1700  0.2742 -0.0774
12562TIP3    H259102   3.114   1.734   5.138 -0.0016 -0.7812  0.0662
12563TIP3   OH259103   3.420   0.691  15.014 -0.5116  0.3405  0.0566
12563TIP3    H159104   3.460   0.718  14.931  0.2712  1.7588  0.8489
12563TIP3    H259105   3.435   0.597  15.018  1.6125  0.6029 -0.3146
12564TIP3   OH259106   3.097   2.515   2.428 -0.4587  0.1681 -0.3940
12564TIP3    H159107   3.077   2.594   2.478 -0.4647 -0.7886  1.1683
12564TIP3    H259108   3.161   2.544   2.362 -0.4942  1.4719  0.1245
12565TIP3   OH259109   1.762   6.310   4.497  0.1239  0.5518 -0.0129
12565TIP3    H159110   1.744   6.216   4.507  1.1486  0.4229  0.9134
12565TIP3    H259111   1.719   6.335   4.416 -1.6257 -0.3413  0.6038
12566TIP3   OH259112   5.627   5.931   2.664 -0.0412 -0.2898  0.1298
12566TIP3    H159113   5.592   5.962   2.580 -1.4690 -2.0483  0.0190
12566TIP3    H259114   5.713   5.897   2.643 -0.6891 -1.4157 -0.8106
12567TIP3   OH259115   1.111   5.596  17.294  0.0970  1.0625 -0.6055
12567TIP3    H159116   1.108   5.502  17.280  2.2252  0.8574 -0.0498
12567TIP3    H259117   1.026   5.617  17.334  0.2627 -0.9278  0.9711
12568TIP3   OH259118   6.221   6.665   6.008 -0.1893  0.0123  0.0783
12568TIP3    H159119   6.285   6.736   6.008 -0.7416  0.5278  0.6527
12568TIP3    H259120   6.236   6.619   6.091  1.1267 -1.4642 -0.9231
12569TIP3   OH259121   6.190   3.883  14.629 -0.6733  0.3446  0.5269
12569TIP3    H159122   6.162   3.854  14.716  0.3557 -1.6108  0.2552
12569TIP3    H259123   6.108   3.891  14.579 -1.1939  0.4652  1.3751
12570TIP3   OH259124   3.579   0.658  11.466 -0.3210 -0.5659  0.0794
12570TIP3    H159125   3.649   0.723  11.473  1.0440 -1.9947  0.2371
12570TIP3    H259126   3.618   0.577  11.501 -2.4814 -1.1043  1.4098
12571TIP3   OH259127   0.102   0.167   5.735 -0.0988 -0.3525  0.7868
12571TIP3    H159128   0.008   0.157   5.724 -0.1734  1.7752 -1.3137
12571TIP3    H259129   0.136   0.077   5.733 -1.7822 -1.0631 -2.1073
12572TIP3   OH259130   1.347   6.718  16.071  0.1327 -0.6113 -0.2726
12572TIP3    H159131   1.441   6.738  16.067  0.3799 -1.8552 -1.0595
12572TIP3    H259132   1.343   6.628  16.103 -0.9279  0.3459  2.6509
12573TIP3   OH259133   4.155   4.758   1.136  0.4600 -0.2584  0.4540
12573TIP3    H159134   4.130   4.784   1.225 -2.1153 -1.2669  0.1235
12573TIP3    H259135   4.249   4.776   1.131 -0.0335  3.6762  1.9853
12574TIP3   OH259136   3.897   1.916  12.682 -0.1947  0.2617  0.7911
12574TIP3    H159137   3.830   1.921  12.751 -2.2258 -0.1847 -1.0377
12574TIP3    H259138   3.926   2.006  12.670  0.4172  0.3040  2.4107
12575TIP3   OH259139   4.395   3.634   3.646 -0.5453 -0.6286  0.0855
12575TIP3    H159140   4.452   3.595   3.712  2.0224 -0.0765 -1.6340
12575TIP3    H259141   4.351   3.560   3.606  0.3102 -1.2771  0.3092
12576TIP3   OH259142   0.037   4.269  15.710 -0.8919 -0.6135 -0.3157
12576TIP3    H159143   0.032   4.177  15.683  1.2103 -0.4757 -1.3339
12576TIP3    H259144   0.113   4.273  15.768  0.5088  0.8532 -2.1348
12577TIP3   OH259145   1.006   1.236  12.750 -0.1006 -0.2951  0.1027
12577TIP3    H159146   1.062   1.280  12.813 -0.2878 -0.9063  0.7066
12577TIP3    H259147   0.958   1.307  12.707  1.5055  0.2865 -0.8223
12578TIP3   OH259148   4.511   5.059  11.603 -0.8860  0.2001 -0.6908
12578TIP3    H159149   4.603   5.064  11.576 -0.3372  0.9985  1.1176
12578TIP3    H259150   4.487   4.967  11.589 -0.0068  0.1065 -1.7253
12579TIP3   OH259151   0.869   4.296  11.357 -0.3269 -0.1053 -0.0910
12579TIP3    H159152   0.829   4.377  11.389  1.4768  0.7606  0.0437
12579TIP3    H259153   0.841   4.290  11.265 -0.7784  0.4437  0.0039
12580TIP3   OH259154   1.975   0.022  16.755  0.4778 -0.8105 -0.3539
12580TIP3    H159155   1.979   0.111  16.721  0.5229 -1.1635 -1.3274
12580TIP3    H259156   1.993  -0.033  16.679 -0.0948 -1.6697  0.1127
12581TIP3   OH259157   0.631   1.271  15.132  0.9912  0.0886  0.5942
12581TIP3    H159158   0.705   1.212  15.149  0.6420 -0.7612 -0.6184
12581TIP3    H259159   0.671   1.352  15.100  1.4400  0.0629  1.0904
12582TIP3   OH259160   5.655   5.042   0.650 -0.4464  0.4734 -0.5012
12582TIP3    H159161   5.710   5.113   0.618 -0.1269  1.2357  1.5733
12582TIP3    H259162   5.713   4.990   0.707 -1.4339  0.3590  0.4472
12583TIP3   OH259163   6.110   4.307   4.898  0.3941  0.3743 -0.1041
12583TIP3    H159164   6.056   4.354   4.835  0.8177  0.9211 -0.0707
12583TIP3    H259165   6.172   4.373   4.930  0.1053  0.1516  0.9772
12584TIP3   OH259166   0.262   2.300   4.667 -0.0547 -0.2356  0.2559
12584TIP3    H159167   0.351   2.265   4.656  1.0272  1.2396  3.0136
12584TIP3    H259168   0.216   2.275   4.587  2.1755 -2.9701 -0.3544
12585TIP3   OH259169   1.195   4.154   5.552 -0.1321  0.0807 -0.0312
12585TIP3    H159170   1.134   4.221   5.584  0.8903  0.5105  1.1081
12585TIP3    H259171   1.216   4.182   5.463 -0.7375  0.5443 -0.0370
12586TIP3   OH259172   0.250   1.107   6.553  0.4778 -0.5999  0.4042
12586TIP3    H159173   0.251   1.178   6.489  2.1737  0.7891  1.8676
12586TIP3    H259174   0.160   1.072   6.549  0.6594 -1.0572 -3.1188
12587TIP3   OH259175   4.622   5.670   1.115 -0.5273 -0.2592  0.6167
12587TIP3    H159176   4.644   5.763   1.120 -2.3717  0.2716 -0.0254
12587TIP3    H259177   4.616   5.641   1.206  0.6408  0.0849  0.8104
12588TIP3   OH259178   2.119   3.086   2.729 -0.1558  0.3782 -0.0594
12588TIP3    H159179   2.211   3.059   2.733 -0.7618 -1.8195 -0.0132
12588TIP3    H259180   2.086   3.071   2.817 -1.2386 -1.5333 -0.7489
12589TIP3   OH259181   1.167   0.614   0.136  0.0455 -0.0505  0.1055
12589TIP3    H159182   1.197   0.703   0.150 -1.5817  1.0270 -2.5375
12589TIP3    H259183   1.230   0.577   0.074  0.6574 -0.7496  1.1141
12590TIP3   OH259184   5.318   2.211   1.050  0.4009  0.3906 -0.2193
12590TIP3    H159185   5.379   2.186   1.120  1.4025  3.6388  0.2444
12590TIP3    H259186   5.327   2.142   0.985  3.3517 -0.1292  0.5897
12591TIP3   OH259187   3.386   0.181   3.967  0.0374  0.1024 -0.1190
12591TIP3    H159188   3.398   0.134   3.885 -2.4562  0.9860 -1.0911
12591TIP3    H259189   3.403   0.273   3.944 -0.2990  0.3110  0.4554
12592TIP3   OH259190   4.372   2.971   4.769 -0.1961 -0.1458  0.0264
12592TIP3    H159191   4.343   2.895   4.717 -0.5958  0.7752 -1.1433
12592TIP3    H259192   4.291   3.018   4.790 -0.0739 -0.6508  1.7876
12593TIP3   OH259193   3.546   6.390   3.363  0.3850 -0.1313 -0.0413
12593TIP3    H159194   3.495   6.436   3.297 -0.2113 -0.5247  0.1360
12593TIP3    H259195   3.522   6.298   3.352 -0.2590 -0.1308  1.1785
12594TIP3   OH259196   2.409   3.954   3.673 -0.3146 -0.5943 -0.2059
12594TIP3    H159197   2.329   3.947   3.621  0.0416  0.5464 -0.9267
12594TIP3    H259198   2.470   3.893   3.631 -0.5552 -0.9079 -0.1079
12595TIP3   OH259199   3.599   4.384  13.588  0.2289  0.1707  0.1593
12595TIP3    H159200   3.588   4.460  13.531  1.5520  1.0068  0.9637
12595TIP3    H259201   3.535   4.396  13.658 -1.2828 -0.7735 -1.0087
12596TIP3   OH259202   4.197   5.119   2.651 -0.2348  0.1628  0.1742
12596TIP3    H159203   4.227   5.066   2.726 -0.9828 -0.2260  0.2041
12596TIP3    H259204   4.261   5.101   2.583 -1.1241 -1.7641 -0.2232
12597TIP3   OH259205   5.658   3.366   3.105 -0.2614  0.1943 -0.3243
12597TIP3    H159206   5.627   3.285   3.065 -0.6201  1.4757 -2.8837
12597TIP3    H259207   5.711   3.408   3.037 -0.9389  2.5730  0.4969
12598TIP3   OH259208   5.752   6.337  17.276  0.1149 -0.3743 -0.6491
12598TIP3    H159209   5.688   6.371  17.213  1.3157 -0.2228 -1.8342
12598TIP3    H259210   5.749   6.399  17.349 -1.2673 -0.5214 -0.5464
12599TIP3   OH259211   4.450   2.912   0.031  0.2110 -0.2369  0.0451
12599TIP3    H159212   4.498   2.935  -0.048  0.0339 -2.0237 -0.6366
12599TIP3    H259213   4.368   2.961   0.026  0.4370  0.0665 -0.6125
12600TIP3   OH259214   4.896   6.198  14.571 -0.1997  0.3378 -0.1720
12600TIP3    H159215   4.989   6.200  14.548 -0.4808  1.7769 -1.3623
12600TIP3    H259216   4.880   6.108  14.599  1.5746  0.0988  0.2113
12601TIP3   OH259217   3.399   3.041   4.553  0.4093 -0.1394 -0.0507
12601TIP3    H159218   3.309   3.059   4.576  0.2057 -0.8825 -0.2202
12601TIP3    H259219   3.430   3.121   4.510 -0.2790 -0.0159 -0.3217
12602TIP3   OH259220   0.484   5.787   4.504  0.1373 -0.4493  0.2358
12602TIP3    H159221   0.397   5.785   4.466 -0.0424 -2.1279  0.6607
12602TIP3    H259222   0.537   5.731   4.447  0.6693 -0.3173  0.5866
12603TIP3   OH259223   3.054   0.178  11.561  0.2864  0.4164  0.0850
12603TIP3    H159224   3.119   0.114  11.533  2.0079  1.8143  0.7634
12603TIP3    H259225   3.056   0.246  11.494 -0.6915  0.3770 -0.0097
12604TIP3   OH259226   5.848   1.999   1.089  0.1434 -0.4131  0.0194
12604TIP3    H159227   5.924   1.987   1.145  2.0946 -0.2699 -2.4210
12604TIP3    H259228   5.829   2.093   1.093  1.0806 -0.1901 -0.4987
12605TIP3   OH259229   0.579   3.410  12.665  0.1929  0.1046 -0.2893
12605TIP3    H159230   0.549   3.432  12.753  1.6627 -2.0574  0.8580
12605TIP3    H259231   0.599   3.495  12.624  1.2917  1.1240  2.1575
12606TIP3   OH259232   3.559   5.736   0.928  0.5727  0.0554  0.0878
12606TIP3    H159233   3.507   5.786   0.991  1.4673 -0.2042  1.0553
12606TIP3    H259234   3.632   5.794   0.905 -1.1936  1.3133 -2.9562
12607TIP3   OH259235   3.312   5.512  13.522 -0.3049 -0.1437 -0.1437
12607TIP3    H159236   3.390   5.555  13.486 -1.0745  0.3237 -1.3368
12607TIP3    H259237   3.318   5.422  13.492 -0.5824  0.0724 -0.8690
12608TIP3   OH259238   2.397   1.418   5.107  0.1564  0.0287 -0.6262
12608TIP3    H159239   2.346   1.497   5.118 -1.6172 -0.9386 -1.4331
12608TIP3    H259240   2.428   1.397   5.195  0.3003  1.3648 -0.3382
12609TIP3   OH259241   6.207   0.511  10.836  0.1020 -0.1887  0.3109
12609TIP3    H159242   6.271   0.528  10.905 -0.6119 -0.6299  1.1037
12609TIP3    H259243   6.162   0.432  10.864  1.1790 -1.5936 -1.7048
12610TIP3   OH259244   0.358   6.106   5.112 -0.0963 -0.3718 -0.3595
12610TIP3    H159245   0.378   6.037   5.176 -0.2064 -0.2039 -0.1433
12610TIP3    H259246   0.411   6.181   5.140 -0.2000 -0.2749 -0.4228
12611TIP3   OH259247   3.426   1.997  16.429 -0.2345  0.5122  0.6608
12611TIP3    H159248   3.455   1.908  16.451  0.9086  1.1799  2.0246
12611TIP3    H259249   3.479   2.021  16.353 -0.9680 -0.1526 -0.0913
12612TIP3   OH259250   3.607   2.630  11.137  0.0455 -0.2876  0.6086
12612TIP3    H159251   3.667   2.645  11.064  0.2720  0.6193  0.9608
12612TIP3    H259252   3.524   2.668  11.109  0.3808  0.9230  1.1566
12613TIP3   OH259253   3.211   4.226  12.932  0.6945  0.7976  0.2454
12613TIP3    H159254   3.148   4.254  12.865  0.8330  0.6772  0.0621
12613TIP3    H259255   3.168   4.151  12.974  0.2995  1.3126  0.7760
12614TIP3   OH259256   4.026   4.640   3.997 -0.0860  0.1502 -0.8045
12614TIP3    H159257   4.062   4.569   4.050  0.1553 -0.1526 -1.3637
12614TIP3    H259258   3.946   4.604   3.959 -1.8325  1.2736  1.5557
12615TIP3   OH259259   5.739   1.325   1.268 -0.3515 -0.5543 -0.4260
12615TIP3    H159260   5.725   1.419   1.257 -0.7236 -0.4589  0.7307
12615TIP3    H259261   5.777   1.296   1.185 -0.5301  0.5571 -0.9066
12616TIP3   OH259262   4.027   2.234   5.840 -0.1323  0.1377 -0.3675
12616TIP3    H159263   3.943   2.220   5.883 -0.0896  1.2424  0.1047
12616TIP3    H259264   4.092   2.210   5.907 -0.0590 -0.7487 -0.7427
12617TIP3   OH259265   2.148   4.583   4.835  0.4764  0.2725  0.0559
12617TIP3    H159266   2.099   4.552   4.759  1.3272  0.9000 -0.7584
12617TIP3    H259267   2.218   4.519   4.846 -0.1855 -0.3443  0.9170
12618TIP3   OH259268   2.707   0.021   4.473  0.1452  0.7675  0.3134
12618TIP3    H159269   2.626  -0.014   4.508  1.0363 -2.4896 -0.5753
12618TIP3    H259270   2.774  -0.004   4.537  0.7439  1.7579  0.1059
12619TIP3   OH259271   1.850   1.113  14.524  0.3452  0.0600 -0.5345
12619TIP3    H159272   1.928   1.073  14.486  0.7466  0.8445 -0.5487
12619TIP3    H259273   1.849   1.202  14.491 -0.5405  0.0799 -0.4941
12620TIP3   OH259274   4.186   3.291  16.046 -0.2426  0.2599  0.6832
12620TIP3    H159275   4.132   3.339  15.984 -0.4479 -1.2003 -0.3350
12620TIP3    H259276   4.150   3.202  16.046  0.8296 -0.2125  1.5937
12621TIP3   OH259277   5.448   3.130   4.052  0.0625 -0.3697  0.3000
12621TIP3    H159278   5.469   3.161   3.963 -1.6081 -0.1107 -0.0364
12621TIP3    H259279   5.533   3.109   4.090  0.9952  1.3807 -0.6709
12622TIP3   OH259280   5.930   2.989   5.480 -0.2384 -0.1534  0.0508
12622TIP3    H159281   5.948   2.977   5.573  0.4273  2.5736  0.3635
12622TIP3    H259282   6.010   2.960   5.436  0.0580  0.0213  0.4680
12623TIP3   OH259283   4.540   2.579   4.529 -0.2951  0.1909  0.2772
12623TIP3    H159284   4.589   2.506   4.566  0.4180 -0.4129 -1.6923
12623TIP3    H259285   4.605   2.632   4.483 -0.7115  2.4085  2.0580
12624TIP3   OH259286   0.561   1.410   0.895  0.0267  0.4829  0.1138
12624TIP3    H159287   0.524   1.428   0.982 -1.3284  0.7676 -0.4975
12624TIP3    H259288   0.624   1.340   0.910 -1.8280 -1.0820  1.0066
12625TIP3   OH259289   1.780   1.918  15.715  0.4153  0.2087  0.0705
12625TIP3    H159290   1.875   1.920  15.721  0.5281  0.4800 -1.3331
12625TIP3    H259291   1.761   1.838  15.664  0.0005  0.8790 -0.8603
12626TIP3   OH259292   3.965   1.563  12.577  0.4887  0.2133  0.6108
12626TIP3    H159293   3.916   1.481  12.582 -0.0062  0.4585 -0.0167
12626TIP3    H259294   4.057   1.536  12.578  0.3416 -0.4512 -0.6529
12627TIP3   OH259295   2.949   2.371  14.620 -0.1732  0.0129 -0.4854
12627TIP3    H159296   3.021   2.312  14.644  1.7868  1.9205 -1.3741
12627TIP3    H259297   2.906   2.326  14.547  1.4278 -0.2668 -1.3045
12628TIP3   OH259298   2.009   2.009   2.163 -0.9663 -0.3812 -0.2702
12628TIP3    H159299   1.990   2.000   2.070 -2.2731  1.1045 -0.1988
12628TIP3    H259300   1.949   2.077   2.193  0.5699  0.3792  1.3078
12629TIP3   OH259301   4.893   3.428  12.003 -0.0434 -0.0564  0.4025
12629TIP3    H159302   4.869   3.348  11.956  0.1595  0.1716 -0.0937
12629TIP3    H259303   4.905   3.493  11.934 -0.2928  0.4270  0.8074
12630TIP3   OH259304   6.586   0.435  10.888 -0.3540 -0.0801  0.3309
12630TIP3    H159305   6.502   0.477  10.904  0.5761  2.2083 -0.2893
12630TIP3    H259306   6.650   0.505  10.903  1.2723 -1.0980 -1.4507
12631TIP3   OH259307   5.354   5.018  12.158  0.2434  0.0758  0.7647
12631TIP3    H159308   5.275   4.977  12.122  0.6795  1.2030 -1.6696
12631TIP3    H259309   5.420   4.949  12.154 -0.0711 -0.2284  0.7265
12632TIP3   OH259310   2.754   2.149  17.326  0.3206 -0.2555 -0.4561
12632TIP3    H159311   2.742   2.054  17.331  1.0596 -0.3067  0.6084
12632TIP3    H259312   2.831   2.167  17.380  2.4206  0.5749 -3.5014
12633TIP3   OH259313   2.618   3.506  12.918 -0.0680  0.2216  0.3946
12633TIP3    H159314   2.565   3.463  12.851 -0.2242  1.2101 -0.1340
12633TIP3    H259315   2.628   3.440  12.987 -0.7615 -0.4638 -0.1475
12634TIP3   OH259316   5.015   0.494  14.109 -0.2326  0.1845  0.6490
12634TIP3    H159317   4.936   0.539  14.078  0.9818  1.4518 -0.8263
12634TIP3    H259318   4.984   0.411  14.144 -2.1588  0.3765 -0.4612
12635TIP3   OH259319   3.071   4.027  12.632  0.5372  0.1221 -0.0711
12635TIP3    H159320   3.090   3.952  12.576 -0.0248  1.6819 -2.5192
12635TIP3    H259321   2.999   3.997  12.688 -0.5519 -0.8318 -1.8673
12636TIP3   OH259322   4.913   4.584  15.700 -0.4254 -0.0710  0.0952
12636TIP3    H159323   4.835   4.606  15.650 -1.4945 -1.2546  1.1333
12636TIP3    H259324   4.922   4.489  15.689  1.1057  0.1015 -0.3153
12637TIP3   OH259325   5.977   4.199   0.151  0.2770  0.2310 -0.2941
12637TIP3    H159326   5.994   4.276   0.097 -0.5410  0.7378  0.1422
12637TIP3    H259327   6.002   4.226   0.239  0.1222 -0.0467 -0.1637
12638TIP3   OH259328   2.776   0.954  14.506 -1.1314 -0.3976 -0.2211
12638TIP3    H159329   2.838   0.908  14.449 -0.5019 -0.9758  0.9019
12638TIP3    H259330   2.767   1.041  14.466  0.6418 -0.1896 -0.2517
12639TIP3   OH259331   3.469   2.441   4.248 -0.3710  0.2426 -0.0543
12639TIP3    H159332   3.552   2.403   4.278 -0.2796  0.1249 -0.4464
12639TIP3    H259333   3.405   2.412   4.313 -0.3489 -0.8039 -0.4684
12640TIP3   OH259334   2.918   0.658  11.352 -0.1841 -0.1544 -0.2797
12640TIP3    H159335   3.007   0.681  11.379 -0.2398 -0.5714  0.2710
12640TIP3    H259336   2.903   0.710  11.273 -0.4661  2.0027  1.1126
12641TIP3   OH259337   1.473   2.494   0.211  0.1549  0.0885  0.1169
12641TIP3    H159338   1.397   2.508   0.267  0.5733 -0.2549  0.7807
12641TIP3    H259339   1.470   2.566   0.147 -1.2694 -0.4777 -0.4777
12642TIP3   OH259340   4.432   6.675   2.301 -0.3082 -0.1474 -0.0983
12642TIP3    H159341   4.393   6.716   2.378  0.9140  1.0239 -0.0710
12642TIP3    H259342   4.493   6.611   2.336 -0.8433 -0.6836 -0.1259
12643TIP3   OH259343   4.485   4.969   2.189 -0.5326  0.4034 -0.6322
12643TIP3    H159344   4.497   5.045   2.132 -2.2018  0.6267 -0.7297
12643TIP3    H259345   4.567   4.921   2.182  1.9691  3.7467  1.8953
12644TIP3   OH259346   0.488   6.727  12.051 -0.5072 -0.5428 -0.0738
12644TIP3    H159347   0.469   6.800  12.109 -0.9024  0.5016 -1.4765
12644TIP3    H259348   0.414   6.667  12.062 -0.4256 -0.5092  0.7041
12645TIP3   OH259349   0.046   2.319   1.712 -0.3230 -0.2990 -0.3986
12645TIP3    H159350  -0.022   2.257   1.736  0.2261 -0.3868  1.0052
12645TIP3    H259351   0.035   2.332   1.618 -2.4199 -0.1089 -0.1620
12646TIP3   OH259352   5.410   2.229   4.213 -0.4371  0.1146  0.4876
12646TIP3    H159353   5.466   2.233   4.135  0.1210 -0.0148  0.8798
12646TIP3    H259354   5.321   2.227   4.178 -0.1707 -0.5843 -0.1623
12647TIP3   OH259355   0.754   3.796  17.198 -0.2713 -0.2726 -0.2254
12647TIP3    H159356   0.679   3.830  17.148 -0.5423  1.2164  1.1045
12647TIP3    H259357   0.736   3.703  17.209 -3.0611  0.3845  1.8422
12648TIP3   OH259358   4.065   0.277  14.955 -0.2315  0.4313  0.4665
12648TIP3    H159359   4.066   0.240  15.044 -1.2499  2.0799  1.2139
12648TIP3    H259360   3.978   0.316  14.946 -0.0999  0.4080 -1.2346
12649TIP3   OH259361   5.525   0.437  16.786 -0.5714  0.4722 -1.2516
12649TIP3    H159362   5.484   0.353  16.767  0.9855 -0.3429 -1.1612
12649TIP3    H259363   5.590   0.417  16.853 -0.7661  1.9194 -0.5881
12650TIP3   OH259364   2.240   6.012   1.028  0.4055  0.4266  0.3405
12650TIP3    H159365   2.307   5.970   1.082  0.7105  0.0436 -0.3180
12650TIP3    H259366   2.158   5.972   1.056  0.3324  1.4607  1.6984
12651TIP3   OH259367   3.371   3.596   2.734 -0.2835 -0.1947  0.4209
12651TIP3    H159368   3.374   3.653   2.656 -0.7579 -1.3942 -0.5058
12651TIP3    H259369   3.331   3.515   2.703  2.4973 -1.9825  1.1004
12652TIP3   OH259370   5.386   0.274   4.791 -0.0404 -0.4032  0.3585
12652TIP3    H159371   5.292   0.268   4.775 -0.0044 -0.6685  0.2412
12652TIP3    H259372   5.425   0.215   4.728  0.2202 -0.1525  0.2816
12653TIP3   OH259373   5.442   4.351   5.645 -0.8225  0.6838 -0.1529
12653TIP3    H159374   5.519   4.384   5.599 -0.2942 -0.9796 -0.5364
12653TIP3    H259375   5.391   4.306   5.578 -1.3105  0.3737  0.4098
12654TIP3   OH259376   1.916   1.370  14.540  0.3841  0.1156  0.0718
12654TIP3    H159377   1.939   1.384  14.632  0.7585 -0.1134  0.0130
12654TIP3    H259378   1.943   1.451  14.496 -2.9403  1.7504  0.7011
12655TIP3   OH259379   4.495   4.055  11.726 -0.0437 -0.4376  0.2951
12655TIP3    H159380   4.425   4.046  11.791  0.4939 -0.5398  0.8670
12655TIP3    H259381   4.548   3.975  11.737 -0.5337 -0.9632 -0.9842
12656TIP3   OH259382   4.980   1.837   2.424  0.2697 -0.1355 -0.2645
12656TIP3    H159383   4.989   1.872   2.513  0.2844  1.2476 -0.7997
12656TIP3    H259384   5.059   1.864   2.379 -0.0805 -0.1856 -0.9234
12657TIP3   OH259385   4.689   5.277  12.412 -0.3633 -0.0910  0.0362
12657TIP3    H159386   4.729   5.350  12.460 -0.8706  0.9451 -1.0522
12657TIP3    H259387   4.603   5.311  12.385 -1.3755 -1.7391  1.0445
12658TIP3   OH259388   3.617   3.638  11.033 -0.0859  0.2477  0.0536
12658TIP3    H159389   3.531   3.666  11.064  0.1330 -0.7028  1.6075
12658TIP3    H259390   3.597   3.571  10.967 -0.5471  0.0085  0.4318
12659TIP3   OH259391   2.487   6.636   0.068  0.0775  0.3697 -0.3026
12659TIP3    H159392   2.418   6.573   0.088 -1.1774  1.4430 -1.0949
12659TIP3    H259393   2.473   6.707   0.131  1.8698 -0.3424  1.0074
12660TIP3   OH259394   6.279   2.865  11.876  0.3224  0.0793 -0.2104
12660TIP3    H159395   6.200   2.823  11.841  1.8343 -2.3763 -0.9509
12660TIP3    H259396   6.343   2.859  11.804  2.0793 -0.7857  1.3303
12661TIP3   OH259397   0.073   5.513  13.578 -0.0606 -0.1198  0.1232
12661TIP3    H159398   0.040   5.586  13.526 -0.3644  0.2944  0.8798
12661TIP3    H259399   0.045   5.435  13.531  3.4491  0.0933 -2.8290
12662TIP3   OH259400   6.760   2.042  12.198 -0.2608  0.7565 -0.0258
12662TIP3    H159401   6.828   1.976  12.194  1.2652  2.2740 -0.4855
12662TIP3    H259402   6.788   2.102  12.267 -1.7810  0.7687  0.6244
12663TIP3   OH259403   1.651   5.265   2.071  0.1193  0.1892  0.3127
12663TIP3    H159404   1.685   5.325   2.137 -0.3340 -1.2356  1.8966
12663TIP3    H259405   1.696   5.290   1.990  1.7515  1.0580  1.4470
12664TIP3   OH259406   4.518   0.282  12.567 -0.0722  0.2013 -0.2560
12664TIP3    H159407   4.553   0.237  12.490 -0.2203  0.6435 -0.5888
12664TIP3    H259408   4.518   0.374  12.542  1.5701  0.5757  0.9294
12665TIP3   OH259409   3.730   2.762  15.206  0.4725 -0.5071  0.3333
12665TIP3    H159410   3.799   2.793  15.149  0.4197 -2.6267 -1.0033
12665TIP3    H259411   3.648   2.787  15.163  0.4307 -0.8264  0.2201
12666TIP3   OH259412   3.281   1.445   0.089  0.0048 -0.2647 -0.0440
12666TIP3    H159413   3.334   1.525   0.081  0.5787 -0.5282  0.8762
12666TIP3    H259414   3.191   1.476   0.080  0.1816  0.6001  0.8912
12667TIP3   OH259415   3.357   4.920  15.762 -0.2316  0.0323  0.5340
12667TIP3    H159416   3.428   4.981  15.744 -2.1995  2.7612  1.3768
12667TIP3    H259417   3.394   4.857  15.825  2.2468 -0.5614 -1.3805
12668TIP3   OH259418   6.256   2.678  16.116  0.7594  0.6886 -0.1437
12668TIP3    H159419   6.245   2.591  16.078  2.0872  0.0519  0.8336
12668TIP3    H259420   6.340   2.709  16.082  1.1994  0.7735  0.9578
12669TIP3   OH259421   2.396   2.009  11.925 -0.1774  0.4795 -0.0954
12669TIP3    H159422   2.313   1.962  11.934  0.3559 -0.3361  0.7061
12669TIP3    H259423   2.407   2.056  12.008 -0.8138  2.2718 -0.9579
12670TIP3   OH259424   5.973   4.005  17.177  0.2236  0.2610  0.0554
12670TIP3    H159425   5.985   3.933  17.115 -0.6707 -0.3155  0.5200
12670TIP3    H259426   6.059   4.045  17.184  0.8897 -1.1351  0.2098
12671TIP3   OH259427   1.124   6.502  13.903  0.1727  0.0869 -0.1724
12671TIP3    H159428   1.210   6.467  13.929  0.2830  0.1105 -0.5068
12671TIP3    H259429   1.144   6.572  13.840 -0.0955  0.0550 -0.2937
12672TIP3   OH259430   5.598   3.463   0.466 -0.0990 -0.2504 -0.3466
12672TIP3    H159431   5.555   3.413   0.535 -1.4855 -0.3902 -1.2617
12672TIP3    H259432   5.685   3.482   0.500 -0.0428 -2.0402  0.6075
12673TIP3   OH259433   5.617   5.810   0.087 -0.5976  0.0674 -0.2861
12673TIP3    H159434   5.551   5.741   0.078 -1.2131  0.6794 -0.5434
12673TIP3    H259435   5.608   5.862   0.008 -1.6315  1.7166  0.8559
12674TIP3   OH259436   0.714   4.139  17.269  0.1704 -0.8158 -0.0515
12674TIP3    H159437   0.794   4.143  17.216  0.0265  0.8752 -0.1951
12674TIP3    H259438   0.730   4.068  17.331  1.5271 -0.9254 -0.4946
12675TIP3   OH259439   3.980   5.131   0.376 -0.2488  0.1218 -0.7786
12675TIP3    H159440   4.060   5.104   0.331 -0.8204 -1.2837 -1.0119
12675TIP3    H259441   3.919   5.059   0.361 -1.2556  0.7412  0.1918
12676TIP3   OH259442   0.259   0.047   5.266 -0.0954 -0.2265 -0.1123
12676TIP3    H159443   0.197   0.097   5.320 -0.3151 -0.1964 -0.3886
12676TIP3    H259444   0.275   0.103   5.190  0.5740 -0.0670  0.1435
12677TIP3   OH259445   4.263   5.360  15.602  0.5520 -0.0469  0.0040
12677TIP3    H159446   4.277   5.450  15.632 -0.6283  1.8989 -4.3830
12677TIP3    H259447   4.168   5.353  15.589  0.8274 -0.9692 -2.0116
12678TIP3   OH259448   3.630   2.041  11.365 -0.3814  0.0017 -0.0301
12678TIP3    H159449   3.590   1.976  11.307 -0.5213  0.5450 -0.5623
12678TIP3    H259450   3.577   2.038  11.445 -1.9233  1.1420 -0.9523
12679TIP3   OH259451   2.052   5.792   4.375  0.2550  0.2993  0.3225
12679TIP3    H159452   2.004   5.836   4.445 -0.2233 -0.1219  0.2619
12679TIP3    H259453   2.070   5.861   4.311 -1.2175  0.2491 -0.1685
12680TIP3   OH259454   2.523   4.017  15.137 -0.3053  0.1598 -0.3159
12680TIP3    H159455   2.591   4.058  15.083  1.0313  0.5277  1.5309
12680TIP3    H259456   2.517   4.073  15.214  0.3795 -2.1425  1.5179
12681TIP3   OH259457   2.714   6.082  14.239  0.3917 -0.0486 -0.3621
12681TIP3    H159458   2.692   5.989  14.237 -2.2870  0.2414  3.7853
12681TIP3    H259459   2.791   6.087  14.296 -2.4723  0.3532  3.9101
12682TIP3   OH259460   1.540   0.419  11.089  0.1666 -0.1662  0.4121
12682TIP3    H159461   1.512   0.333  11.122  0.8702 -1.7806 -2.8015
12682TIP3    H259462   1.613   0.444  11.145 -0.6483 -1.1689  2.0008
12683TIP3   OH259463   1.127   1.241   4.102  0.1150 -0.1957  0.0670
12683TIP3    H159464   1.187   1.297   4.053  1.2122 -0.6198  0.8764
12683TIP3    H259465   1.089   1.300   4.168  1.2085 -0.3571  0.8668
12684TIP3   OH259466   0.666   6.113  13.146 -0.4534  0.0121 -0.0355
12684TIP3    H159467   0.647   6.206  13.158 -0.8130  0.1256 -1.3024
12684TIP3    H259468   0.738   6.112  13.082 -0.6041 -0.5832 -0.1994
12685TIP3   OH259469   2.774   4.142  17.080 -0.4200 -0.0363  0.0405
12685TIP3    H159470   2.698   4.089  17.103  0.9196 -2.0500  0.0924
12685TIP3    H259471   2.776   4.140  16.984 -0.5158  0.1200  0.0362
12686TIP3   OH259472   0.421   2.387   4.287  0.1661 -0.3576  0.2891
12686TIP3    H159473   0.412   2.343   4.372  0.9414 -1.2614 -0.0755
12686TIP3    H259474   0.419   2.480   4.308  3.8694 -0.4419  1.8024
12687TIP3   OH259475   2.413   2.440   0.643 -0.0414 -0.2938  0.1508
12687TIP3    H159476   2.351   2.511   0.661 -0.0784 -0.1888 -0.3821
12687TIP3    H259477   2.496   2.471   0.680 -0.8358 -1.6076  3.4902
12688TIP3   OH259478   0.461   0.297  15.024  0.1320 -0.7819 -0.3406
12688TIP3    H159479   0.449   0.338  15.109  0.4135 -0.2064 -0.5716
12688TIP3    H259480   0.534   0.236  15.037  0.2094 -0.6565 -0.1813
12689TIP3   OH259481   6.733   3.750   3.755 -0.2698  0.3243 -0.2141
12689TIP3    H159482   6.738   3.819   3.689 -1.8718  0.2675 -0.4308
12689TIP3    H259483   6.660   3.777   3.811  0.4231 -0.1461  0.9480
12690TIP3   OH259484   2.382   3.456   3.145  0.0242  0.4891  0.0802
12690TIP3    H159485   2.330   3.514   3.090 -1.6770 -1.3804 -0.3870
12690TIP3    H259486   2.392   3.376   3.094  0.0136 -0.6227  1.7317
12691TIP3   OH259487   1.368   2.910  12.006 -0.4448  0.0837  0.2532
12691TIP3    H159488   1.342   2.970  11.936  1.0958  1.5512  0.8507
12691TIP3    H259489   1.293   2.906  12.064 -1.4337 -0.4924 -1.0231
12692TIP3   OH259490   3.606   5.479  11.549  0.1269 -0.4991  0.5382
12692TIP3    H159491   3.588   5.537  11.476 -0.8630 -1.9786 -0.4395
12692TIP3    H259492   3.554   5.401  11.532  0.3484 -1.1405  2.5128
12693TIP3   OH259493   4.297   1.328   3.572 -0.1153 -0.6049  0.3879
12693TIP3    H159494   4.344   1.310   3.654  1.9397 -0.0803 -0.6352
12693TIP3    H259495   4.365   1.345   3.508 -1.7173 -0.0455 -1.2428
12694TIP3   OH259496   0.048   3.834  12.535 -1.0366 -0.3354  0.0608
12694TIP3    H159497   0.044   3.883  12.617  0.5561 -1.5566  0.9172
12694TIP3    H259498   0.001   3.753  12.553 -0.8723 -0.5179 -0.3237
12695TIP3   OH259499   3.207   6.260   3.906 -0.0426  0.2560 -0.2394
12695TIP3    H159500   3.271   6.330   3.917 -0.1234  0.6091 -1.8601
12695TIP3    H259501   3.140   6.297   3.848 -1.1743 -0.4732  0.5431
12696TIP3   OH259502   6.250   4.932  12.287 -0.9393  0.5910  0.1694
12696TIP3    H159503   6.265   4.963  12.377 -0.6826  1.0268 -0.0187
12696TIP3    H259504   6.330   4.884  12.265 -1.2821 -0.1075  0.4127
12697TIP3   OH259505   6.531   0.645   6.237  0.1407  0.3482 -0.2295
12697TIP3    H159506   6.589   0.657   6.312 -0.3217  3.0178 -0.2127
12697TIP3    H259507   6.443   0.661   6.271 -0.3549 -0.9509 -0.8317
12698TIP3   OH259508   6.427   0.781   4.971 -0.0069 -0.7035  0.0477
12698TIP3    H159509   6.415   0.805   4.879 -1.5356  1.1430  0.6495
12698TIP3    H259510   6.382   0.697   4.980 -2.3759  0.4267 -0.3633
12699TIP3   OH259511   3.448   6.664   5.958 -0.4266  0.0961 -0.4021
12699TIP3    H159512   3.410   6.585   5.919 -0.3997 -0.3927  0.5296
12699TIP3    H259513   3.396   6.678   6.037  0.0374  0.5995 -0.1884
12700TIP3   OH259514   4.975   0.019  11.595 -0.3258 -0.1995  0.5834
12700TIP3    H159515   4.970  -0.071  11.562 -0.4552  0.1736 -0.4445
12700TIP3    H259516   5.061   0.051  11.567 -1.1799  0.7520 -1.1215
12701TIP3   OH259517   2.600   5.380  13.968 -0.6519 -0.4097  0.4936
12701TIP3    H159518   2.620   5.354  13.878 -1.6984 -2.5460  0.8124
12701TIP3    H259519   2.673   5.345  14.019  0.5776  1.8625  0.3994
12702TIP3   OH259520   4.517   5.378  13.778  0.4178 -0.2695  0.1773
12702TIP3    H159521   4.483   5.446  13.720  1.5395 -0.5283 -0.8238
12702TIP3    H259522   4.585   5.421  13.829 -1.0082  0.1290  1.8386
12703TIP3   OH259523   5.084   6.355   4.512  0.4346  0.0013  0.2187
12703TIP3    H159524   5.168   6.331   4.470  0.4819 -1.8030  1.2420
12703TIP3    H259525   5.078   6.296   4.587 -2.0968 -0.4041 -0.2310
12704TIP3   OH259526   4.917   3.167   3.298  0.3231  0.6155  0.6389
12704TIP3    H159527   4.987   3.217   3.341 -1.1145  0.8261  2.9606
12704TIP3    H259528   4.947   3.077   3.301  1.3164  0.9008 -0.1783
12705TIP3   OH259529   5.310   5.075  10.910 -0.0159  0.3920 -0.4533
12705TIP3    H159530   5.348   5.059  10.824  1.0443  1.5320 -0.2180
12705TIP3    H259531   5.220   5.101  10.892  0.0620  0.1725 -1.1808
12706TIP3   OH259532   6.118   2.492  15.983 -0.1943  0.0812 -0.6827
12706TIP3    H159533   6.055   2.547  15.935  0.7339  0.7321 -1.1746
12706TIP3    H259534   6.124   2.412  15.931  2.4857  1.6140 -3.0287
12707TIP3   OH259535   1.956   5.840   3.909 -0.2529 -0.0774  0.4957
12707TIP3    H159536   1.961   5.926   3.950  1.4305  0.3000 -0.4016
12707TIP3    H259537   1.983   5.855   3.818  2.0295 -1.8072  0.7965
12708TIP3   OH259538   6.272   1.930   1.578  0.0091  0.6915  0.6423
12708TIP3    H159539   6.268   2.012   1.626 -1.5191  0.3346  1.1798
12708TIP3    H259540   6.184   1.893   1.586  1.2510 -2.2373  2.6525
12709TIP3   OH259541   0.143   1.603  14.490 -0.2685  0.3819  0.1178
12709TIP3    H159542   0.237   1.591  14.479 -0.2152  1.1840 -0.4001
12709TIP3    H259543   0.107   1.590  14.403 -0.7293 -0.5936  0.4384
12710TIP3   OH259544   3.962   0.497   4.297  0.1026 -0.0681  0.3040
12710TIP3    H159545   3.875   0.498   4.256 -0.3026  0.9212  1.1309
12710TIP3    H259546   3.990   0.589   4.294  1.5277 -0.5050 -0.7563
12711TIP3   OH259547   6.075   1.983   1.252  0.3632  0.0462 -0.3825
12711TIP3    H159548   6.049   1.940   1.333  0.4551  0.0778 -0.3360
12711TIP3    H259549   6.123   2.061   1.280 -1.2652  1.1162 -0.4354
12712TIP3   OH259550   6.283   5.499  14.179  0.7369  0.7295 -0.1335
12712TIP3    H159551   6.317   5.459  14.099  2.7296  2.5549 -0.2803
12712TIP3    H259552   6.258   5.424  14.234  0.8016 -0.5952 -1.8198
12713TIP3   OH259553   2.446   2.715   0.931 -0.1101 -0.2743  0.5452
12713TIP3    H159554   2.423   2.726   0.839  0.3459 -2.1277  0.1767
12713TIP3    H259555   2.534   2.751   0.938 -0.2599  0.1388  0.3276
12714TIP3   OH259556   4.479   4.546   3.487  0.5251  0.4330 -0.3003
12714TIP3    H159557   4.513   4.482   3.550  2.9255 -0.1083 -1.9831
12714TIP3    H259558   4.388   4.519   3.472 -0.1599  0.6396  2.8639
12715TIP3   OH259559   1.369   2.039   4.433  0.3298  0.0016  0.3234
12715TIP3    H159560   1.453   2.068   4.468  1.6074 -0.4264 -2.1462
12715TIP3    H259561   1.303   2.082   4.489  2.1591  0.7687  1.9998
12716TIP3   OH259562   1.221   1.578   1.433  0.7028  0.0424  0.0740
12716TIP3    H159563   1.208   1.628   1.353 -0.3033  0.1609  0.2920
12716TIP3    H259564   1.214   1.642   1.504 -2.1958 -0.5583  0.4539
12717TIP3   OH259565   6.193   2.409  12.463 -0.1910 -0.3969 -0.0174
12717TIP3    H159566   6.151   2.429  12.379  0.5691  1.1979 -0.0608
12717TIP3    H259567   6.169   2.483  12.519  0.9940 -0.4092  0.5296
12718TIP3   OH259568   3.916   0.275   2.189  0.2455 -0.7154  0.1248
12718TIP3    H159569   3.923   0.318   2.103  0.1246  0.4527  0.6762
12718TIP3    H259570   3.998   0.226   2.197  0.8487  0.2147 -0.1201
12719TIP3   OH259571   5.372   1.016  16.047  0.0414 -0.1438 -0.3371
12719TIP3    H159572   5.434   0.948  16.019 -0.1674  0.2243 -1.7697
12719TIP3    H259573   5.297   1.004  15.989 -1.1015 -0.3566  1.1380
12720TIP3   OH259574   0.846   5.405  13.918  0.5030  0.4251 -0.0869
12720TIP3    H159575   0.833   5.370  13.830  0.5238 -0.2183  0.1593
12720TIP3    H259576   0.925   5.458  13.912  0.3936  0.5438 -0.4978
12721TIP3   OH259577   1.569   3.854   0.894  0.4755  0.5190  0.0604
12721TIP3    H159578   1.572   3.863   0.799  0.5269  1.8387  0.1678
12721TIP3    H259579   1.475   3.856   0.915  0.4908  1.0919  0.0964
12722TIP3   OH259580   1.871   1.947  16.704 -0.6297  0.2476 -0.2726
12722TIP3    H159581   1.947   1.897  16.674 -1.5070 -1.4036  0.1561
12722TIP3    H259582   1.862   2.017  16.639  1.9975  1.2985  0.3479
12723TIP3   OH259583   4.908   1.550   3.511  0.2958 -0.3428 -0.4716
12723TIP3    H159584   4.919   1.458   3.486 -1.2807 -0.2889 -1.5315
12723TIP3    H259585   4.834   1.550   3.571  1.7013  0.0055  1.3335
12724TIP3   OH259586   0.525   0.793   4.918  0.0282 -0.1731  0.1391
12724TIP3    H159587   0.526   0.740   4.839  2.5597  2.1807 -1.5864
12724TIP3    H259588   0.443   0.843   4.913 -0.5085 -1.0738 -0.2299
12725TIP3   OH259589   2.727   3.829   4.822  0.0999  0.1052 -0.3983
12725TIP3    H159590   2.639   3.866   4.821 -0.8134 -1.9216 -0.8006
12725TIP3    H259591   2.719   3.749   4.872  1.7823 -0.0229 -0.2727
12726TIP3   OH259592   3.042   0.345  15.553  0.0060 -0.4627  0.3560
12726TIP3    H159593   3.126   0.370  15.592 -0.0790 -2.8947  2.3421
12726TIP3    H259594   3.066   0.300  15.472  0.4298  0.9608 -0.3446
12727TIP3   OH259595   2.980   0.997  15.827  0.1078 -0.2045  0.4390
12727TIP3    H159596   2.996   0.903  15.830  2.3400 -0.0089 -1.9940
12727TIP3    H259597   3.051   1.036  15.879  1.1073  0.2228 -1.1906
12728TIP3   OH259598   4.110   5.557  10.886 -0.0130  0.2992 -0.0414
12728TIP3    H159599   4.044   5.625  10.874 -0.8532 -0.7744 -1.9150
12728TIP3    H259600   4.160   5.558  10.804  1.2586  0.0040  0.7126
12729TIP3   OH259601   1.053   1.604   6.664 -0.1106 -0.1828  0.1984
12729TIP3    H159602   1.098   1.672   6.715 -1.0860  1.4812 -1.0924
12729TIP3    H259603   1.060   1.633   6.573 -0.7303 -1.7357 -0.3827
12730TIP3   OH259604   0.600   0.790   2.513 -0.0344  0.3001 -0.1548
12730TIP3    H159605   0.606   0.855   2.583  0.6463 -0.5994  0.6449
12730TIP3    H259606   0.525   0.736   2.536 -0.6815  0.8590 -0.8898
12731TIP3   OH259607   1.727   2.348  11.646 -0.0796 -0.7531 -0.5775
12731TIP3    H159608   1.774   2.431  11.635 -0.0280 -0.7029 -0.0023
12731TIP3    H259609   1.784   2.282  11.607  0.5075 -0.7028  0.1672
12732TIP3   OH259610   1.609   2.848  14.848 -0.4991 -0.4185  0.4804
12732TIP3    H159611   1.687   2.901  14.827 -0.8572  0.5306  1.4728
12732TIP3    H259612   1.559   2.902  14.909 -2.1531 -0.8538 -0.4556
12733TIP3   OH259613   3.242   0.135   3.672 -0.0447  0.0210 -0.4098
12733TIP3    H159614   3.180   0.139   3.599 -0.1656 -0.2210 -0.3232
12733TIP3    H259615   3.328   0.147   3.631  0.0955 -2.3004 -0.9165
12734TIP3   OH259616   3.245   4.705  13.026  0.2128  0.2323 -0.1879
12734TIP3    H159617   3.170   4.650  13.004 -0.4769  0.9946  0.2035
12734TIP3    H259618   3.228   4.734  13.116  0.6544  0.9266 -0.3229
12735TIP3   OH259619   6.386   5.706   6.519  0.1578  0.2423  0.1681
12735TIP3    H159620   6.443   5.705   6.596 -0.2264 -0.3167  0.4522
12735TIP3    H259621   6.444   5.685   6.446  0.4581  0.4309  0.3510
12736TIP3   OH259622   1.584   5.342   1.707  0.1770  0.6105  0.8176
12736TIP3    H159623   1.662   5.293   1.732 -0.2395 -0.5920 -0.1587
12736TIP3    H259624   1.577   5.329   1.612 -1.2463  0.6328  0.9019
12737TIP3   OH259625   0.267   3.780   3.009  0.4743 -0.4442 -0.4062
12737TIP3    H159626   0.215   3.699   3.004  0.5747 -0.4503 -1.9008
12737TIP3    H259627   0.204   3.847   3.034 -0.0580 -0.6479 -1.1472
12738TIP3   OH259628   4.435   5.373  17.014  0.8106  0.4547 -0.0782
12738TIP3    H159629   4.474   5.459  17.028 -2.0735  1.8109  0.4516
12738TIP3    H259630   4.346   5.392  16.983  0.5818 -2.3769 -1.5141
12739TIP3   OH259631   2.626   5.347  16.559  0.6197  0.2208 -0.8784
12739TIP3    H159632   2.656   5.313  16.643  1.4785 -1.7777 -1.9242
12739TIP3    H259633   2.648   5.279  16.496 -0.7936  1.2667 -2.6195
12740TIP3   OH259634   4.340   5.072  15.515  0.4046 -0.4887 -0.2487
12740TIP3    H159635   4.259   5.105  15.552  1.4027 -0.6530  2.3093
12740TIP3    H259636   4.321   4.981  15.493 -0.6318  0.0235 -1.5919
12741TIP3   OH259637   0.629   5.136  12.515  0.2938  0.0694 -0.0019
12741TIP3    H159638   0.682   5.208  12.481  1.6107  0.6378  2.9984
12741TIP3    H259639   0.616   5.079  12.439 -1.2960  3.5848 -2.7080
12742TIP3   OH259640   1.465   4.421  11.759  0.2684 -0.2298  0.5346
12742TIP3    H159641   1.435   4.506  11.790  0.6147 -0.2560  0.9540
12742TIP3    H259642   1.448   4.422  11.665  0.0929  0.2265  0.5697
12743TIP3   OH259643   3.396   2.878   1.443  0.0070 -0.5111 -0.0165
12743TIP3    H159644   3.303   2.899   1.450 -0.3852 -2.3767  0.9895
12743TIP3    H259645   3.404   2.831   1.360  0.0309 -0.4159 -0.0678
12744TIP3   OH259646   2.758   4.514  12.032 -0.0929  0.9307  0.2977
12744TIP3    H159647   2.691   4.548  11.972 -0.3639  1.9765  1.1728
12744TIP3    H259648   2.832   4.493  11.975 -0.7863  0.7198 -0.5611
12745TIP3   OH259649   5.472   5.512   0.247 -0.1606 -0.1313  0.1428
12745TIP3    H159650   5.540   5.484   0.186  0.9331  0.9924  0.8143
12745TIP3    H259651   5.519   5.538   0.326 -1.0875  2.9801 -0.1867
12746TIP3   OH259652   1.752   1.593  12.600 -0.5443  0.7378  0.4243
12746TIP3    H159653   1.743   1.610  12.506 -2.8674 -0.1328  0.4322
12746TIP3    H259654   1.842   1.564  12.610 -0.4639  0.0625 -1.6676
12747TIP3   OH259655   1.133   1.933   3.691 -0.2353 -0.4676 -0.4043
12747TIP3    H159656   1.176   1.855   3.657  0.8117 -0.3059  0.4772
12747TIP3    H259657   1.151   1.931   3.785 -0.4529  0.6684 -0.3256
12748TIP3   OH259658   0.764   3.277   2.055 -0.1647  0.0050 -0.4671
12748TIP3    H159659   0.788   3.331   1.980  0.8180  1.8102  1.0484
12748TIP3    H259660   0.837   3.216   2.065 -0.3787 -0.3569 -1.0553
12749TIP3   OH259661   4.415   5.609   3.705 -0.0641  0.3203 -0.0758
12749TIP3    H159662   4.376   5.635   3.789 -0.6732  1.5273 -0.7006
12749TIP3    H259663   4.431   5.515   3.714 -3.5485 -0.3753  0.0869
12750TIP3   OH259664   4.920   1.556  11.300 -0.0496  0.0799  0.4841
12750TIP3    H159665   4.903   1.492  11.231 -0.1498 -0.4244  0.9732
12750TIP3    H259666   4.838   1.606  11.307 -0.6531 -1.0093  1.4306
12751TIP3   OH259667   1.445   3.246   2.389  0.6004  0.4282 -0.4033
12751TIP3    H159668   1.511   3.215   2.326  0.8864 -0.3936  0.2905
12751TIP3    H259669   1.491   3.311   2.442  1.3162 -1.1607  1.0139
12752TIP3   OH259670   0.910   5.941  14.472 -0.1811 -0.3661 -0.1323
12752TIP3    H159671   0.853   5.898  14.408 -0.2859  0.1605 -0.3992
12752TIP3    H259672   0.901   5.889  14.552 -1.4703  0.0135  0.0011
12753TIP3   OH259673   2.271   2.722  15.607 -0.1839  0.1894 -0.0877
12753TIP3    H159674   2.340   2.673  15.563 -1.5406 -0.4917 -1.5741
12753TIP3    H259675   2.210   2.655  15.639 -2.6940  0.7398 -3.2009
12754TIP3   OH259676   6.769   4.175   4.650  0.4748  0.0773 -0.0288
12754TIP3    H159677   6.807   4.192   4.564  2.1645  0.7647  0.8045
12754TIP3    H259678   6.797   4.249   4.704 -0.9743 -0.0785  1.0027
12755TIP3   OH259679   5.067   3.410   4.762 -0.9583  0.2420 -0.1238
12755TIP3    H159680   5.120   3.416   4.682 -0.8733  1.5101  0.0087
12755TIP3    H259681   5.112   3.345   4.816 -0.1531  0.4792 -0.4879
12756TIP3   OH259682   0.777   1.909   1.225  0.2214  0.6902 -0.2215
12756TIP3    H159683   0.871   1.916   1.209  0.0852  0.0914 -1.3437
12756TIP3    H259684   0.753   1.824   1.189 -0.4585  0.0835  1.5317
12757TIP3   OH259685   2.112   1.715  13.712  0.0174 -0.1663  0.0742
12757TIP3    H159686   2.023   1.745  13.731  0.0781 -0.0498  0.1808
12757TIP3    H259687   2.168   1.770  13.768  0.1500 -0.2897  0.0641
12758TIP3   OH259688   3.288   6.264   6.504 -0.4251  0.0832 -0.5139
12758TIP3    H159689   3.294   6.345   6.553  1.0001 -0.0835 -0.3757
12758TIP3    H259690   3.324   6.284   6.418 -3.9892  0.6992 -2.0451
12759TIP3   OH259691   4.253   3.109   0.395  0.0241  0.6539  0.4648
12759TIP3    H159692   4.326   3.158   0.359  0.1289 -0.7237 -1.2928
12759TIP3    H259693   4.176   3.162   0.375  0.2878  0.8578 -0.0127
12760TIP3   OH259694   2.017   0.707  14.845 -0.2707  0.2179 -0.1774
12760TIP3    H159695   2.018   0.742  14.756  0.3272  1.1317  0.1698
12760TIP3    H259696   1.927   0.677  14.858 -0.0255 -1.2964 -1.5909
12761TIP3   OH259697   5.922   3.582  12.491 -0.3999  0.3372  0.1992
12761TIP3    H159698   5.941   3.491  12.470  2.0105  0.8898 -0.3377
12761TIP3    H259699   5.962   3.632  12.419 -0.4612  1.8757  1.1773
12762TIP3   OH259700   2.345   1.930   5.156 -0.0841 -0.0245 -0.6186
12762TIP3    H159701   2.400   1.859   5.123 -0.1362  0.1235 -1.0259
12762TIP3    H259702   2.345   1.918   5.251  4.0961  2.3796 -0.0681
12763TIP3   OH259703   1.072   2.222   0.138  0.0767 -1.0714 -0.3009
12763TIP3    H159704   1.160   2.187   0.126 -0.0950 -1.0666 -1.8134
12763TIP3    H259705   1.052   2.265   0.054 -0.4002  1.1233  0.8710
12764TIP3   OH259706   4.529   5.178   5.897  0.2551 -0.0586  0.1373
12764TIP3    H159707   4.566   5.227   5.970  1.4776  0.1139 -0.5659
12764TIP3    H259708   4.482   5.244   5.845 -0.9434 -0.2488  0.9432
12765TIP3   OH259709   4.925   4.230  15.905 -0.0307  0.4152  0.2454
12765TIP3    H159710   4.910   4.300  15.968 -1.4013  1.3813 -1.0743
12765TIP3    H259711   4.921   4.149  15.957  2.1288  1.2699  1.8792
12766TIP3   OH259712   3.754   0.258   3.551 -0.0417 -0.1955 -0.8194
12766TIP3    H159713   3.717   0.191   3.494  0.1214  0.6171 -1.9065
12766TIP3    H259714   3.713   0.340   3.522 -0.7479  0.1085  0.9245
12767TIP3   OH259715   6.340   3.898  15.930 -0.0550  0.6627  0.6782
12767TIP3    H159716   6.415   3.875  15.984 -0.0429 -0.4641  0.2056
12767TIP3    H259717   6.374   3.964  15.869  1.0391 -1.0317 -0.6365
12768TIP3   OH259718   0.677   4.732  15.796  0.2699  0.2902  0.0780
12768TIP3    H159719   0.741   4.686  15.742 -0.0639  1.3083 -1.2300
12768TIP3    H259720   0.714   4.731  15.884  0.6366 -1.7631 -0.0522
12769TIP3   OH259721   6.318   3.442  11.267  0.4211 -0.2015 -0.1196
12769TIP3    H159722   6.226   3.451  11.291  0.6838 -0.1722  0.9319
12769TIP3    H259723   6.354   3.531  11.275  0.2323  0.0811 -1.9725
12770TIP3   OH259724   1.583   1.622   2.810  0.0344  0.2339  0.1655
12770TIP3    H159725   1.604   1.689   2.745 -0.7201  0.8513  0.5398
12770TIP3    H259726   1.569   1.671   2.891  0.4800 -0.4792  0.6884
12771TIP3   OH259727   0.279   1.818   6.113  0.0033  0.0589  0.1710
12771TIP3    H159728   0.354   1.856   6.068  1.8495 -0.1069  2.9059
12771TIP3    H259729   0.218   1.891   6.125 -0.3410  0.1977 -2.0556
12772TIP3   OH259730   5.437   0.909   6.375  0.2811  0.4309 -0.6517
12772TIP3    H159731   5.363   0.890   6.317  0.5504 -0.7708 -0.6362
12772TIP3    H259732   5.430   1.002   6.394 -1.2107  0.3478 -0.6831
12773TIP3   OH259733   0.068   1.022   4.355  0.2852 -0.0052 -0.1410
12773TIP3    H159734   0.132   0.958   4.386  0.3108  0.0927  0.0060
12773TIP3    H259735  -0.016   0.990   4.388  0.4565  0.7390  1.0450
12774TIP3   OH259736   4.437   2.179   4.574  0.9835 -0.6170 -0.2058
12774TIP3    H159737   4.457   2.129   4.653  1.0413 -0.7785 -0.3236
12774TIP3    H259738   4.474   2.128   4.502  0.7842 -0.5539 -0.3544
12775TIP3   OH259739   0.970   3.269   6.058  0.2557  0.7052 -0.0438
12775TIP3    H159740   0.927   3.269   5.972 -0.0408  2.6558  0.0535
12775TIP3    H259741   0.909   3.222   6.115  0.3018 -0.3251 -0.8100
12776TIP3   OH259742   6.646   0.260   1.945 -0.3880  0.2561  0.7045
12776TIP3    H159743   6.572   0.298   1.898 -0.7265 -1.2790 -0.0675
12776TIP3    H259744   6.606   0.214   2.018 -0.0229  0.9199  1.3352
12777TIP3   OH259745   2.557   5.109  14.740 -0.4470 -0.8039 -0.5579
12777TIP3    H159746   2.476   5.137  14.784 -1.1803  0.2674 -2.4422
12777TIP3    H259747   2.576   5.180  14.678  3.2440  0.0879  1.3042
12778TIP3   OH259748   3.058   5.232   0.770  0.2516 -0.4978 -1.2641
12778TIP3    H159749   2.987   5.236   0.834  0.5892 -1.5163 -0.8146
12778TIP3    H259750   3.104   5.316   0.780  0.2969 -0.6409 -0.1764
12779TIP3   OH259751   1.558   3.079  14.584  0.0358  0.2381  0.2688
12779TIP3    H159752   1.466   3.103  14.598 -0.6214 -1.5440 -0.6368
12779TIP3    H259753   1.606   3.129  14.650 -1.6516  0.7429  1.1856
12780TIP3   OH259754   3.809   1.899   1.459 -0.2859  0.3935 -0.5404
12780TIP3    H159755   3.898   1.873   1.433  0.2272  2.6324 -1.3117
12780TIP3    H259756   3.822   1.950   1.539 -0.9549  0.1159 -0.2560
12781TIP3   OH259757   0.853   5.564  13.353 -0.1319  0.0171 -0.3304
12781TIP3    H159758   0.848   5.518  13.270  1.6166 -1.6420  0.4072
12781TIP3    H259759   0.778   5.533  13.403 -0.2642 -0.2477 -0.6908
12782TIP3   OH259760   1.829   4.341  16.671  0.3048 -0.1302 -0.1623
12782TIP3    H159761   1.823   4.258  16.622 -0.7063 -0.2127  0.0819
12782TIP3    H259762   1.844   4.407  16.604  0.5971 -0.4416 -0.4122
12783TIP3   OH259763   4.687   4.727  12.559 -0.0075 -0.3265 -0.5608
12783TIP3    H159764   4.768   4.768  12.526  0.1238 -0.7372 -0.7531
12783TIP3    H259765   4.697   4.728  12.654  0.7255 -1.3607 -0.6115
12784TIP3   OH259766   2.395   3.831  16.535  0.3562  0.1747  0.3903
12784TIP3    H159767   2.355   3.749  16.562  1.5520 -0.0550  1.5908
12784TIP3    H259768   2.321   3.890  16.519 -0.4884 -0.6050  1.2858
12785TIP3   OH259769   1.766   3.865  13.153  0.1635  0.3824 -0.1019
12785TIP3    H159770   1.703   3.931  13.181 -0.2277 -0.4969  1.1618
12785TIP3    H259771   1.745   3.788  13.204  1.3542 -0.3825 -0.7117
12786TIP3   OH259772   1.314   0.926  12.269  0.3923  0.6666 -0.1291
12786TIP3    H159773   1.348   0.989  12.206  1.4357 -0.3306 -0.6013
12786TIP3    H259774   1.381   0.858  12.273 -0.7492 -0.4720  0.2803
12787TIP3   OH259775   2.348   0.142   1.059  0.0387  0.6860  0.1430
12787TIP3    H159776   2.383   0.123   1.146  1.2226  3.4261  0.3757
12787TIP3    H259777   2.422   0.134   1.000 -0.9055 -1.8606 -0.8294
12788TIP3   OH259778   3.151   1.676   6.104  0.1486  0.0209  0.5365
12788TIP3    H159779   3.190   1.747   6.053 -0.4056 -0.8430 -1.1817
12788TIP3    H259780   3.057   1.684   6.087 -0.1323  0.1310  2.0257
12789TIP3   OH259781   5.444   1.963   4.049  0.3233 -0.0893  0.2165
12789TIP3    H159782   5.357   1.999   4.061  1.4360  1.9091  4.4935
12789TIP3    H259783   5.437   1.873   4.080 -0.1587  0.2872  1.2599
12790TIP3   OH259784   4.361   3.445  13.071 -0.4803 -0.0178 -0.4122
12790TIP3    H159785   4.328   3.357  13.090 -1.6242  0.6838  1.1380
12790TIP3    H259786   4.292   3.485  13.018 -0.2769  0.1527 -0.5470
12791TIP3   OH259787   2.756   4.622   2.160 -0.6654 -0.2825  0.1175
12791TIP3    H159788   2.690   4.566   2.202 -1.2537  0.7209  0.5720
12791TIP3    H259789   2.807   4.562   2.105 -2.3160 -0.9952 -0.6972
12792TIP3   OH259790   4.500   5.081  13.087 -0.1983 -0.6699 -0.0006
12792TIP3    H159791   4.574   5.057  13.143 -0.6922 -0.0634  0.9318
12792TIP3    H259792   4.436   5.120  13.147 -0.2472  1.1186 -1.1406
12793TIP3   OH259793   6.658   6.655  12.301  0.0356  0.1191  0.1151
12793TIP3    H159794   6.664   6.564  12.329 -0.9331 -0.8898 -2.5671
12793TIP3    H259795   6.747   6.680  12.278 -0.0854 -1.3881 -2.3304
12794TIP3   OH259796   6.169   6.129   1.941 -0.0460 -0.3153  0.0608
12794TIP3    H159797   6.142   6.059   1.882  0.2221 -0.4652  0.1147
12794TIP3    H259798   6.252   6.098   1.979  0.4946  0.3739 -0.5266
12795TIP3   OH259799   6.249   4.940  16.057  0.5443 -0.3053  0.2488
12795TIP3    H159800   6.321   4.876  16.061 -1.3061 -2.5445  0.1348
12795TIP3    H259801   6.233   4.951  15.964  0.3928 -0.2466  0.2823
12796TIP3   OH259802   3.090   0.898   4.957  0.5897  0.3016  0.0899
12796TIP3    H159803   3.130   0.984   4.944  0.7225  0.1374 -0.6031
12796TIP3    H259804   3.103   0.852   4.874 -0.4016 -0.0123  0.0970
12797TIP3   OH259805   1.547   4.979   1.793 -0.5244  0.0880 -0.6382
12797TIP3    H159806   1.476   4.970   1.729 -0.3271  0.7847 -0.9718
12797TIP3    H259807   1.507   5.023   1.868 -0.6954 -0.4998 -0.3774
12798TIP3   OH259808   3.062   1.223   5.001  0.2539  0.3146 -0.3337
12798TIP3    H159809   3.013   1.204   5.081 -1.4961  0.0143 -1.4206
12798TIP3    H259810   3.145   1.261   5.032 -0.1279 -0.3275  1.6094
12799TIP3   OH259811   4.948   6.408  15.587 -0.1054 -0.0273 -0.5426
12799TIP3    H159812   4.953   6.485  15.529  1.0229  1.3580  1.2856
12799TIP3    H259813   4.855   6.390  15.595 -0.4620  1.7629 -0.2775
12800TIP3   OH259814   2.941   0.561  16.149 -0.2332  0.0170  0.0553
12800TIP3    H159815   3.024   0.603  16.173 -0.5025  0.5894  0.0024
12800TIP3    H259816   2.962   0.468  16.143  1.1609  0.4015 -2.9790
12801TIP3   OH259817   0.908   3.364   2.489  0.6559 -0.0236 -0.2007
12801TIP3    H159818   0.899   3.434   2.553 -0.0135 -0.2223 -0.0653
12801TIP3    H259819   0.941   3.290   2.539 -0.0544 -0.2371 -0.0349
12802TIP3   OH259820   2.323   0.992  12.349  0.0937 -0.0864  0.2768
12802TIP3    H159821   2.339   0.984  12.443 -0.8378  0.6142  0.5117
12802TIP3    H259822   2.234   1.026  12.342  0.2275  0.0911 -0.8569
12803TIP3   OH259823   2.313   4.123   0.762 -0.0682  0.3660  0.1385
12803TIP3    H159824   2.264   4.070   0.824  0.2608 -0.1688 -0.0528
12803TIP3    H259825   2.321   4.209   0.804 -1.9385  0.7572 -0.2077
12804TIP3   OH259826   1.819   3.401  12.179 -0.5163  0.8208  0.1715
12804TIP3    H159827   1.750   3.408  12.112 -1.3858 -0.8719  0.8396
12804TIP3    H259828   1.876   3.332  12.146 -0.7678  0.2067  0.9895
12805TIP3   OH259829   2.072   3.463  17.279 -0.4507 -0.2013 -0.2058
12805TIP3    H159830   2.149   3.470  17.223  0.7468 -0.7399  1.3188
12805TIP3    H259831   2.048   3.553  17.299  1.4612  0.0026  1.4744
12806TIP3   OH259832   4.328   2.833   2.942  0.1863  0.1976 -0.2919
12806TIP3    H159833   4.250   2.818   2.888  0.5559  0.8575 -1.0405
12806TIP3    H259834   4.296   2.884   3.017 -0.2165 -0.1289 -0.2389
12807TIP3   OH259835   5.479   1.429  14.512 -0.8798  0.6681 -0.0345
12807TIP3    H159836   5.548   1.457  14.573  0.5496 -0.3066 -1.1330
12807TIP3    H259837   5.499   1.337  14.494 -0.0628  1.3842 -3.4436
12808TIP3   OH259838   1.747   5.361  15.083 -0.3013 -0.1232  0.4339
12808TIP3    H159839   1.656   5.387  15.073 -0.2463 -0.2923 -0.6143
12808TIP3    H259840   1.750   5.271  15.054  0.5323  0.4508 -1.3922
12809TIP3   OH259841   4.041   3.545   6.170  0.0601 -0.2656  0.1581
12809TIP3    H159842   4.111   3.519   6.230  0.7858  0.6855 -0.2446
12809TIP3    H259843   4.015   3.632   6.200 -0.7780 -0.4998  0.1380
12810TIP3   OH259844   0.479   4.806   5.498  0.2569 -0.3723 -0.2444
12810TIP3    H159845   0.464   4.748   5.572 -1.6129  1.9601  1.3509
12810TIP3    H259846   0.426   4.768   5.428  1.3801 -2.1302 -0.2233
12811TIP3   OH259847   5.858   5.871  16.716 -0.6591 -0.2516 -0.1034
12811TIP3    H159848   5.939   5.830  16.746 -0.5872  0.6328  0.9713
12811TIP3    H259849   5.886   5.935  16.650 -0.6232 -0.8542 -0.6801
12812TIP3   OH259850   5.475   2.032   3.288 -0.1053 -0.0999  0.2920
12812TIP3    H159851   5.486   1.940   3.266 -1.2641 -0.8646  2.6188
12812TIP3    H259852   5.433   2.032   3.374  1.2786  2.5980  1.1007
12813TIP3   OH259853   3.927   2.319  17.008 -0.0251  0.5776  0.5735
12813TIP3    H159854   4.022   2.316  17.007 -0.0091 -1.4987 -2.1849
12813TIP3    H259855   3.902   2.271  17.088  1.2830 -1.7077 -0.3013
12814TIP3   OH259856   0.296   0.668   1.616  0.0131  0.5827  0.0607
12814TIP3    H159857   0.241   0.712   1.552  0.0015 -1.2461 -1.2658
12814TIP3    H259858   0.274   0.575   1.608  3.7435 -0.3780 -1.1059
12815TIP3   OH259859   0.732   2.951   4.584  0.4959  0.0071  0.1184
12815TIP3    H159860   0.638   2.962   4.570 -0.0153 -1.6771  1.8846
12815TIP3    H259861   0.754   2.872   4.535  0.9046  0.1438  0.0796
12816TIP3   OH259862   1.817   0.470   4.696 -0.8149 -0.1764  0.3807
12816TIP3    H159863   1.897   0.421   4.715 -1.8478 -2.1563 -0.1702
12816TIP3    H259864   1.784   0.497   4.781 -0.1695 -0.3128  0.6792
12817TIP3   OH259865   1.032   2.943  12.059  0.2478 -0.7525 -0.2728
12817TIP3    H159866   0.953   2.986  12.093  0.7688  0.8042 -0.9097
12817TIP3    H259867   1.012   2.928  11.966  0.5604 -0.6724 -0.3519
12818TIP3   OH259868   4.731   5.405  11.068  0.3630 -0.1650  0.2788
12818TIP3    H159869   4.782   5.332  11.034  0.3289 -0.4018  0.7330
12818TIP3    H259870   4.735   5.471  10.998  1.0880 -0.2695  0.2057
12819TIP3   OH259871   2.543   0.617   0.060  0.0657 -0.3447 -0.3515
12819TIP3    H159872   2.455   0.599   0.096 -0.2887 -0.0687 -1.0595
12819TIP3    H259873   2.572   0.695   0.108  0.2563 -0.8925  0.4379
12820TIP3   OH259874   3.016   5.367  15.002 -0.5685 -0.1920 -0.4035
12820TIP3    H159875   3.056   5.454  15.008  0.1843 -0.4379 -1.4385
12820TIP3    H259876   2.922   5.382  15.012 -0.4797  0.7917 -0.9305
12821TIP3   OH259877   0.536   5.153  11.670  0.5521 -0.2399 -0.6249
12821TIP3    H159878   0.473   5.219  11.639  1.1295  1.1820  1.0559
12821TIP3    H259879   0.501   5.070  11.638 -1.3887  0.6531 -0.9689
12822TIP3   OH259880   2.158   5.232  11.330  0.0954  0.2684  0.2519
12822TIP3    H159881   2.111   5.162  11.285 -0.3253  0.4337  0.4297
12822TIP3    H259882   2.221   5.187  11.386  0.7223  0.0607 -0.5963
12823TIP3   OH259883   0.120   5.279   5.554  0.7724 -0.0940  0.0603
12823TIP3    H159884   0.061   5.340   5.599 -0.4478 -0.9747 -0.2795
12823TIP3    H259885   0.071   5.197   5.551  1.5524 -0.5375 -1.2972
12824TIP3   OH259886   3.906   0.071   4.305  0.4644 -0.1466 -0.0557
12824TIP3    H159887   3.928  -0.022   4.307 -0.5943 -0.4687 -1.7448
12824TIP3    H259888   3.868   0.085   4.218 -2.2067  1.2214  1.2177
12825TIP3   OH259889   2.811   1.717   0.723 -0.3550 -0.0356 -0.4865
12825TIP3    H159890   2.812   1.753   0.812  0.6144  1.3314 -1.0213
12825TIP3    H259891   2.824   1.793   0.666 -0.6696 -0.9255 -1.7919
12826TIP3   OH259892   4.670   5.529   6.637  0.0300 -0.1307 -0.1727
12826TIP3    H159893   4.737   5.598   6.639 -0.1099  0.0439 -1.0761
12826TIP3    H259894   4.591   5.574   6.604 -0.1091 -0.6757 -0.5978
12827TIP3   OH259895   3.818   3.384   5.525 -0.1327 -0.5934 -0.0465
12827TIP3    H159896   3.793   3.353   5.439 -0.2296 -1.8959  0.4396
12827TIP3    H259897   3.747   3.357   5.583 -0.8787  1.6863  0.2100
12828TIP3   OH259898   4.547   0.839   2.926 -0.3718 -0.0066  0.9282
12828TIP3    H159899   4.505   0.865   2.844  0.4720 -0.6688  0.2569
12828TIP3    H259900   4.478   0.796   2.976 -0.1747 -2.8117 -0.9269
12829TIP3   OH259901   0.167   2.512  12.991 -0.7498  0.0069 -0.2805
12829TIP3    H159902   0.214   2.566  13.055  0.7643 -2.8500  1.1865
12829TIP3    H259903   0.230   2.499  12.920 -1.3877  0.7574 -1.0018
12830TIP3   OH259904   1.364   4.856   5.545  0.2661  0.4995 -0.4251
12830TIP3    H159905   1.276   4.855   5.582 -0.1613 -0.7903 -1.3994
12830TIP3    H259906   1.353   4.883   5.454  0.9583  0.8868 -0.4072
12831TIP3   OH259907   3.876   1.613   0.425  0.2177  0.5303  0.4880
12831TIP3    H159908   3.815   1.549   0.389 -1.8262  0.9456  2.9428
12831TIP3    H259909   3.947   1.560   0.461 -0.3142 -0.1994  0.4884
12832TIP3   OH259910   6.475   5.914   5.136 -0.2744 -0.0212  0.0811
12832TIP3    H159911   6.390   5.959   5.136 -0.1726  0.1831  0.7855
12832TIP3    H259912   6.457   5.829   5.096 -0.8170  0.0088  0.2480
12833TIP3   OH259913   6.405   0.634   5.517 -0.5768  0.1398 -0.0952
12833TIP3    H159914   6.464   0.702   5.483 -2.4507  1.6872 -0.4535
12833TIP3    H259915   6.339   0.623   5.448 -0.0988 -2.4150 -0.2275
12834TIP3   OH259916   2.279   4.939   2.778  0.1352  0.1609 -0.1020
12834TIP3    H159917   2.251   5.017   2.729 -1.1678  0.2453  0.7119
12834TIP3    H259918   2.224   4.869   2.744 -0.2193  0.0569  0.6696
12835TIP3   OH259919   0.046   4.638  11.066 -0.0036  0.1554  0.1769
12835TIP3    H159920   0.055   4.669  10.976  1.0642 -1.3125 -0.2718
12835TIP3    H259921  -0.047   4.621  11.077 -0.4147  2.0659 -0.0073
12836TIP3   OH259922   2.424   0.198  15.581 -0.2081 -0.0392 -0.8653
12836TIP3    H159923   2.477   0.119  15.579  0.2426  0.0328  2.4996
12836TIP3    H259924   2.338   0.169  15.613 -0.4609  0.6560 -0.8812
12837TIP3   OH259925   0.718   1.860   3.969  0.3316 -0.1451  0.0360
12837TIP3    H159926   0.756   1.898   4.048 -1.8796  1.1019  0.5719
12837TIP3    H259927   0.723   1.930   3.904 -1.5396  0.2961  0.3087
12838TIP3   OH259928   2.482   2.467  12.025  0.2676 -0.5773 -0.4598
12838TIP3    H159929   2.476   2.419  11.943 -1.4009 -0.7684 -0.2534
12838TIP3    H259930   2.466   2.558  12.002  0.6407 -0.5092 -0.4575
12839TIP3   OH259931   3.554   2.561  14.012 -0.1797  0.5147 -0.5360
12839TIP3    H159932   3.567   2.649  14.048  0.0936  0.0296  0.5980
12839TIP3    H259933   3.599   2.562  13.928  1.0011  1.0622  0.0802
12840TIP3   OH259934   2.164   6.673  12.253  0.5082 -0.5100 -0.2439
12840TIP3    H159935   2.137   6.759  12.286  0.7042 -0.4474 -0.2460
12840TIP3    H259936   2.220   6.692  12.178  1.1676 -0.6181  0.2104
12841TIP3   OH259937   2.678   2.116  14.219  0.4843  0.4816  0.3014
12841TIP3    H159938   2.730   2.036  14.211 -0.6750 -0.4443  1.5499
12841TIP3    H259939   2.587   2.085  14.214 -0.0275  1.4894  2.3387
12842TIP3   OH259940   1.229   5.598  12.298  0.3072  0.0588  0.0074
12842TIP3    H159941   1.164   5.665  12.277  0.0150 -0.2835 -0.1794
12842TIP3    H259942   1.235   5.545  12.219  0.4056 -0.2457  0.2191
12843TIP3   OH259943   1.401   4.659  16.693 -0.4020  0.2342 -0.4275
12843TIP3    H159944   1.412   4.722  16.764  2.7616  1.1823 -1.5616
12843TIP3    H259945   1.475   4.599  16.703  0.1326  0.3870 -2.7986
12844TIP3   OH259946   5.192   6.399  14.233 -0.9299  0.3717 -0.6012
12844TIP3    H159947   5.231   6.376  14.148  1.2216  0.5508  0.2626
12844TIP3    H259948   5.209   6.322  14.287  0.6377  1.4668  0.5387
12845TIP3   OH259949   0.400   0.200   0.622 -0.0677  0.3272  0.2045
12845TIP3    H159950   0.403   0.176   0.715 -1.5363  0.2271  0.2443
12845TIP3    H259951   0.365   0.122   0.578 -0.0724  0.6257 -0.3306
12846TIP3   OH259952   3.448   1.643  12.284 -0.5850 -0.5373  0.1641
12846TIP3    H159953   3.471   1.675  12.371 -0.9737 -2.1196  0.8952
12846TIP3    H259954   3.367   1.689  12.262 -0.3256  0.0945  0.5068
12847TIP3   OH259955   5.988   1.808  16.591 -0.0501  0.0155 -0.3574
12847TIP3    H159956   6.057   1.841  16.534 -0.2411 -1.8061 -1.7506
12847TIP3    H259957   6.004   1.849  16.676  1.2179  1.5628 -1.3048
12848TIP3   OH259958   3.873   4.650   0.275 -0.1811 -0.1183  0.0534
12848TIP3    H159959   3.893   4.655   0.182 -0.9669 -1.1199 -0.1900
12848TIP3    H259960   3.950   4.687   0.319  0.7258 -0.7799 -0.9416
12849TIP3   OH259961   5.410   2.228   4.635 -0.3243  0.0584 -0.1629
12849TIP3    H159962   5.356   2.179   4.573  1.4683 -0.5520 -1.3058
12849TIP3    H259963   5.418   2.316   4.596  0.0699 -0.0569 -0.3411
12850TIP3   OH259964   4.202   2.282   1.659  0.3444 -1.1392  1.0066
12850TIP3    H159965   4.113   2.312   1.644  0.7712 -0.0668  0.5005
12850TIP3    H259966   4.226   2.235   1.579 -0.7274 -3.9809  2.2433
12851TIP3   OH259967   3.792   6.338  13.554  0.8180  0.0685 -0.0718
12851TIP3    H159968   3.712   6.299  13.519  1.3678 -2.2067  1.0370
12851TIP3    H259969   3.760   6.406  13.614 -0.3142 -0.8392  0.4008
12852TIP3   OH259970   5.933   1.362  16.705  0.3351 -0.1187 -0.3188
12852TIP3    H159971   5.989   1.433  16.676 -0.2501  0.3632 -0.2835
12852TIP3    H259972   5.940   1.363  16.801 -0.3416  0.4558 -0.2669
12853TIP3   OH259973   2.311   4.553   2.047  0.1182  0.0233 -0.1924
12853TIP3    H159974   2.397   4.562   2.006  0.6557 -1.0887  0.6430
12853TIP3    H259975   2.265   4.634   2.024  2.3243  1.9175  1.6277
12854TIP3   OH259976   2.665   4.058  11.643 -0.0170  0.1194  0.3145
12854TIP3    H159977   2.734   4.024  11.701 -0.8496 -0.4706  0.9972
12854TIP3    H259978   2.585   4.050  11.695 -0.6908  0.2292 -0.6810
12855TIP3   OH259979   5.719   5.865   4.784 -0.1429  1.0956  0.4040
12855TIP3    H159980   5.668   5.784   4.780  2.3702 -0.5440 -2.2598
12855TIP3    H259981   5.654   5.935   4.772 -1.9584 -0.7528 -1.3788
12856TIP3   OH259982   0.394   4.066  15.057 -0.3382 -0.1874  0.1944
12856TIP3    H159983   0.381   4.127  14.983  1.2194 -0.8351 -0.6540
12856TIP3    H259984   0.363   4.115  15.133 -0.9749  0.9201 -0.7328
12857TIP3   OH259985   0.137   0.947   5.780 -0.5245  0.5193 -0.0452
12857TIP3    H159986   0.126   0.996   5.861 -2.5536  2.5816 -1.4188
12857TIP3    H259987   0.049   0.945   5.741  0.1769 -1.2985 -1.6895
12858TIP3   OH259988   1.368   5.016  13.894  0.4055  0.1159  0.2851
12858TIP3    H159989   1.430   5.015  13.821  1.2653 -0.9712  1.0002
12858TIP3    H259990   1.312   4.939  13.880 -2.2938  2.2129 -1.5351
12859TIP3   OH259991   1.130   4.097   4.781 -0.1788 -0.3881 -0.2835
12859TIP3    H159992   1.045   4.132   4.758 -0.0742  0.4048  0.4683
12859TIP3    H259993   1.152   4.140   4.863  0.6030 -1.1638 -0.0693
12860TIP3   OH259994   2.415   2.224   2.691  0.2464 -0.4422  0.0484
12860TIP3    H159995   2.462   2.307   2.684  0.8055 -0.6376  1.1968
12860TIP3    H259996   2.349   2.240   2.758 -1.2063 -0.2517 -1.3619
12861TIP3   OH259997   2.087   0.369   2.402  0.2808  0.4029 -0.1823
12861TIP3    H159998   1.991   0.365   2.407  0.3300 -0.6176  0.2944
12861TIP3    H259999   2.109   0.456   2.433 -0.5634  1.2245 -1.7598
12862TIP3   OH260000   3.290   3.131   0.502  0.6638  0.0225 -0.1041
12862TIP3    H160001   3.371   3.140   0.452  0.8342  1.5513  0.4028
12862TIP3    H260002   3.320   3.113   0.592  0.4487  0.3947  0.0452
12863TIP3   OH260003   1.019   5.735   2.142 -0.2375 -0.6375 -0.4691
12863TIP3    H160004   0.984   5.824   2.154 -0.0412 -0.5986 -0.1891
12863TIP3    H260005   1.113   5.747   2.135 -0.2165 -0.8222 -0.4920
12864TIP3   OH260006   5.250   3.508  12.764 -0.0524 -0.4324 -0.1530
12864TIP3    H160007   5.259   3.456  12.683 -0.8385 -1.3006  0.2899
12864TIP3    H260008   5.227   3.443  12.831 -0.5785  0.4337  0.5211
12865TIP3   OH260009   1.998   0.048   1.422  0.5899 -0.2510  0.1280
12865TIP3    H160010   1.955  -0.029   1.461  0.7061  0.6421  2.1482
12865TIP3    H260011   2.034   0.016   1.340 -1.6438 -1.7048 -0.3976
12866TIP3   OH260012   6.145   1.116   0.453  0.6692  0.0049  0.2585
12866TIP3    H160013   6.157   1.023   0.432 -0.3617  0.1991 -1.3336
12866TIP3    H260014   6.149   1.160   0.368  0.4544  1.3400  0.9247
12867TIP3   OH260015   6.213   1.233  17.153 -0.6680 -0.1051  0.4166
12867TIP3    H160016   6.217   1.222  17.058 -0.5347 -1.8803  0.5961
12867TIP3    H260017   6.172   1.319  17.166  2.9421  2.1035 -1.2572
12868TIP3   OH260018   6.021   2.557  12.838  0.4927 -0.5474  0.4240
12868TIP3    H160019   6.051   2.587  12.752  0.9011 -1.1050  0.3695
12868TIP3    H260020   6.027   2.635  12.893  0.0908 -0.1494 -0.0842
12869TIP3   OH260021   3.858   6.203   2.384  0.4764  0.0838  0.0889
12869TIP3    H160022   3.880   6.115   2.415  0.2599  0.1547  0.4551
12869TIP3    H260023   3.792   6.190   2.316 -0.5869  0.0283  1.1011
12870TIP3   OH260024   6.309   0.553  15.909 -0.1925 -0.4091  0.2916
12870TIP3    H160025   6.269   0.623  15.858  0.3149  0.6396  1.2821
12870TIP3    H260026   6.349   0.495  15.844 -0.7682  0.1152 -0.5534
12871TIP3   OH260027   3.052   5.657   5.703 -0.2398  0.0768  0.0206
12871TIP3    H160028   3.140   5.644   5.738 -0.9306 -0.4695  1.6013
12871TIP3    H260029   3.042   5.587   5.638  0.3493 -0.0728  0.0807
12872TIP3   OH260030   1.961   3.314  16.271 -0.7294  0.6610 -0.7627
12872TIP3    H160031   1.916   3.360  16.343 -0.5292  2.3616 -1.6781
12872TIP3    H260032   2.052   3.345  16.276 -0.2469 -0.6993 -0.5896
12873TIP3   OH260033   0.717   6.001   5.208 -0.7759 -0.2972 -0.0814
12873TIP3    H160034   0.659   5.963   5.273  0.1723 -2.2862 -0.2920
12873TIP3    H260035   0.662   6.015   5.131 -1.4240 -0.0296  0.4268
12874TIP3   OH260036   3.087   0.505   2.771  0.0210  0.1374  0.7080
12874TIP3    H160037   3.010   0.501   2.827  0.8218  0.3877  1.8695
12874TIP3    H260038   3.103   0.414   2.745 -0.6440  0.0845  0.4799
12875TIP3   OH260039   5.236   3.588  15.986  0.0138  0.3272 -0.7416
12875TIP3    H160040   5.252   3.494  15.998  0.9546  0.3898 -1.4098
12875TIP3    H260041   5.155   3.605  16.034 -0.2208 -0.8514 -0.6965
12876TIP3   OH260042   5.003   6.119  13.408 -0.0632 -0.3711  0.0500
12876TIP3    H160043   5.063   6.181  13.450 -1.2854 -0.1728  1.6020
12876TIP3    H260044   5.051   6.036  13.408  0.2389 -0.2241  1.3084
12877TIP3   OH260045   3.950   2.719  14.619  0.2690 -0.6015  0.1773
12877TIP3    H160046   3.888   2.792  14.622 -1.3971 -1.8647 -1.0729
12877TIP3    H260047   4.036   2.760  14.615 -0.5779  1.2700  0.1283
12878TIP3   OH260048   4.111   5.776   2.942 -0.0161  0.1102 -0.2584
12878TIP3    H160049   4.125   5.683   2.957 -1.0542  0.0623  0.5299
12878TIP3    H260050   4.156   5.795   2.860  0.1369 -1.0991 -0.4585
12879TIP3   OH260051   3.290   6.379   5.621  0.3892 -0.3073  0.1888
12879TIP3    H160052   3.350   6.307   5.605  1.3868  0.5533 -0.0680
12879TIP3    H260053   3.328   6.453   5.574 -1.1207  0.1505 -0.3614
12880TIP3   OH260054   0.565   2.900   6.005 -0.3719 -0.0443 -0.1329
12880TIP3    H160055   0.488   2.844   5.996 -1.3813  1.4355 -1.1995
12880TIP3    H260056   0.532   2.979   6.048  1.4076 -0.9284  3.1972
12881TIP3   OH260057   5.680   1.731  15.113 -0.0457  0.0941  0.2771
12881TIP3    H160058   5.637   1.773  15.038 -0.9999  2.1498  1.8746
12881TIP3    H260059   5.609   1.717  15.177  1.0265  0.0680  1.5016
12882TIP3   OH260060   5.747   5.972  13.208 -0.1543  0.1281 -0.0704
12882TIP3    H160061   5.758   5.936  13.119  1.5928  0.9075 -0.2219
12882TIP3    H260062   5.756   5.896  13.266 -1.0183 -0.3451 -0.5442
12883TIP3   OH260063   6.029   5.602   2.667  0.7744 -0.1043  0.2999
12883TIP3    H160064   6.082   5.572   2.740 -0.9562 -0.4791  1.4593
12883TIP3    H260065   5.986   5.523   2.634 -1.2796  0.5141  1.2785
12884TIP3   OH260066   4.431   4.123   2.731  0.0921 -0.5319 -0.0817
12884TIP3    H160067   4.378   4.190   2.775 -0.2989 -0.6416 -0.3739
12884TIP3    H260068   4.504   4.171   2.692  0.0740 -0.3440  0.1150
12885TIP3   OH260069   1.369   2.003   2.858 -0.2424  0.2501  0.3508
12885TIP3    H160070   1.333   1.952   2.786 -2.5292  0.1641  1.4630
12885TIP3    H260071   1.306   1.991   2.929  2.3440 -0.3381  2.6711
12886TIP3   OH260072   3.895   6.201   5.897  0.5295 -0.1555 -0.3297
12886TIP3    H160073   3.924   6.191   5.807  0.5819 -1.2699 -0.2027
12886TIP3    H260074   3.970   6.175   5.950  0.1397 -0.5755  0.0219
12887TIP3   OH260075   2.979   6.768  10.951 -0.5955 -0.1003 -0.1938
12887TIP3    H160076   2.893   6.779  10.909 -0.0932  0.2883 -1.1711
12887TIP3    H260077   3.009   6.857  10.968  0.1770 -0.1728 -1.0813
12888TIP3   OH260078   6.335   1.258  14.747  0.2895  0.4466 -0.2265
12888TIP3    H160079   6.352   1.196  14.676  1.4497 -1.1045  1.3202
12888TIP3    H260080   6.240   1.268  14.747 -0.0386 -1.9994 -0.0727
12889TIP3   OH260081   4.093   1.589  10.888  0.2915  0.0237 -0.7392
12889TIP3    H160082   4.121   1.654  10.823  0.7711 -0.9549 -1.5380
12889TIP3    H260083   4.168   1.530  10.897 -0.3301 -0.7356 -0.4338
12890TIP3   OH260084   5.107   2.807   6.714 -0.2078 -0.4083  0.3365
12890TIP3    H160085   5.073   2.808   6.625  1.8529  1.3222 -0.5130
12890TIP3    H260086   5.125   2.899   6.735 -0.7223 -0.7475  2.6011
12891TIP3   OH260087   6.735   6.634  11.384 -0.4013 -0.6442  0.1739
12891TIP3    H160088   6.771   6.696  11.321  0.7768 -0.6228  0.8422
12891TIP3    H260089   6.670   6.584  11.334 -1.0763  0.8404 -0.4748
12892TIP3   OH260090   6.735   4.229   0.308  0.2807  0.1129 -0.1638
12892TIP3    H160091   6.666   4.166   0.289  0.3602 -0.2347  0.6666
12892TIP3    H260092   6.733   4.239   0.403  0.3790  1.2385 -0.2636
12893TIP3   OH260093   5.091   4.339   3.781 -0.3993  0.3765  0.0074
12893TIP3    H160094   5.138   4.362   3.700  0.3448 -0.8524  0.0520
12893TIP3    H260095   5.013   4.292   3.750 -1.1589  1.6385 -0.0393
12894TIP3   OH260096   4.622   2.488  13.256  0.1957 -0.5840 -0.0555
12894TIP3    H160097   4.656   2.551  13.319  0.5553  0.4118 -1.2085
12894TIP3    H260098   4.699   2.458  13.208 -0.1985 -0.5355 -0.7254
12895TIP3   OH260099   3.163   2.487  15.542 -0.0958 -0.0871 -0.6260
12895TIP3    H160100   3.124   2.420  15.599  1.8049 -0.9734 -0.2766
12895TIP3    H260101   3.231   2.528  15.596  0.0772  0.7725 -1.4706
12896TIP3   OH260102   2.176   1.638   3.750 -0.0258  0.4767  0.3980
12896TIP3    H160103   2.230   1.659   3.674 -0.4057  0.8757  0.2340
12896TIP3    H260104   2.135   1.721   3.774  0.2799  0.4029  1.1925
12897TIP3   OH260105   1.639   2.608  12.487  0.7577 -0.0392  0.3590
12897TIP3    H160106   1.734   2.600  12.494  0.7101 -1.2377 -0.1795
12897TIP3    H260107   1.623   2.702  12.478  1.7710  0.3407  2.0411
12898TIP3   OH260108   6.330   3.024   1.282  0.7160  0.3062 -0.1583
12898TIP3    H160109   6.400   2.967   1.312  0.6283 -0.5616 -1.5276
12898TIP3    H260110   6.323   3.006   1.188 -0.9075  0.8356 -0.1652
12899TIP3   OH260111   3.689   6.067  16.821  1.1490  0.7744 -0.0806
12899TIP3    H160112   3.704   6.073  16.916  0.8132  2.3971 -0.0991
12899TIP3    H260113   3.762   6.014  16.789  1.6609  0.7971  0.9977
12900TIP3   OH260114   0.472   5.744   3.741  0.4170 -0.2497  0.1286
12900TIP3    H160115   0.456   5.827   3.786  0.8424  1.3749 -2.5333
12900TIP3    H260116   0.410   5.683   3.782 -1.2844  1.8365  0.8802
12901TIP3   OH260117   1.935   5.086   2.233  0.7913 -0.5751 -0.0473
12901TIP3    H160118   1.990   5.160   2.206 -0.2481  0.0132 -0.5989
12901TIP3    H260119   1.987   5.009   2.211  1.6733 -0.0351  0.0586
12902TIP3   OH260120   5.043   3.260   3.986  0.2786  0.3341  0.1707
12902TIP3    H160121   4.952   3.231   3.983  0.3031  0.2589  0.1573
12902TIP3    H260122   5.076   3.246   3.898  0.2283  0.6068  0.1080
12903TIP3   OH260123   2.583   0.662  16.288  0.3388  0.6006  0.0634
12903TIP3    H160124   2.583   0.670  16.384  0.7193 -0.6973  0.1880
12903TIP3    H260125   2.622   0.743  16.257  0.5240  0.8910  1.0255
12904TIP3   OH260126   6.593   2.218  16.105 -0.3433 -0.3748 -0.1054
12904TIP3    H160127   6.643   2.145  16.069  0.7873 -0.7043  1.9876
12904TIP3    H260128   6.568   2.189  16.192 -1.6394  0.9776  0.0140
12905TIP3   OH260129   3.699   2.242  12.776  0.2482 -1.0001  0.0742
12905TIP3    H160130   3.709   2.204  12.864 -0.0069 -0.3793  0.3788
12905TIP3    H260131   3.783   2.223  12.733  0.2321 -1.6495  0.3139
12906TIP3   OH260132   5.084   0.930  12.629 -0.7458 -0.0992  0.2011
12906TIP3    H160133   5.074   0.988  12.705 -0.1702 -0.2030  0.3626
12906TIP3    H260134   5.005   0.944  12.578 -0.8484  0.4507  0.4979
12907TIP3   OH260135   5.136   0.259  12.727 -0.0352 -0.2309 -0.2444
12907TIP3    H160136   5.153   0.165  12.722  0.8389 -0.0238 -1.5878
12907TIP3    H260137   5.159   0.293  12.641 -2.1808  0.9505 -0.4441
12908TIP3   OH260138   1.952   0.876  11.331  0.1936  0.0945  0.6510
12908TIP3    H160139   1.937   0.966  11.305 -0.8573  0.0011  0.8916
12908TIP3    H260140   2.009   0.840  11.263 -0.7659  0.4537 -0.3736
12909TIP3   OH260141   3.097   3.920  11.761  0.2530  0.2857 -0.5659
12909TIP3    H160142   3.011   3.882  11.744  0.2670  0.9473 -2.3244
12909TIP3    H260143   3.145   3.909  11.679  1.9051 -0.1605  0.4118
12910TIP3   OH260144   3.322   1.194   3.720  0.3047 -0.0983  0.1818
12910TIP3    H160145   3.391   1.131   3.701  0.0957 -0.2678 -0.0186
12910TIP3    H260146   3.251   1.172   3.659  0.8221  1.3412 -0.9896
12911TIP3   OH260147   4.836   3.914   1.120  0.6451 -0.0120 -0.0781
12911TIP3    H160148   4.874   3.872   1.197 -1.2697 -2.2530 -0.2215
12911TIP3    H260149   4.813   3.841   1.062 -2.0789  1.2364 -0.7460
12912TIP3   OH260150   4.637   1.818   2.301  0.0250  0.7900 -0.0897
12912TIP3    H160151   4.643   1.769   2.219 -0.7449  0.0358  0.2787
12912TIP3    H260152   4.677   1.902   2.283 -1.4312  1.1957 -1.6741
12913TIP3   OH260153   5.545   4.893   5.649 -0.1920  0.4817 -0.3888
12913TIP3    H160154   5.595   4.827   5.696  0.0211  1.8762  1.4791
12913TIP3    H260155   5.611   4.950   5.610 -0.3347  0.7192 -0.2926
12914TIP3   OH260156   5.526   6.308  15.967  0.0981 -0.6927  0.1181
12914TIP3    H160157   5.501   6.222  16.001  1.4048 -0.6155  1.3650
12914TIP3    H260158   5.501   6.369  16.036  3.0959 -0.5688  1.2639
12915TIP3   OH260159   5.700   3.318   1.379  0.1137  0.5727 -0.6773
12915TIP3    H160160   5.773   3.349   1.433  0.9105  0.8419 -1.8919
12915TIP3    H260161   5.675   3.394   1.326 -0.0289  0.0480 -1.3755
12916TIP3   OH260162   2.560   6.041  14.576  0.3602 -0.0817  0.0362
12916TIP3    H160163   2.490   6.028  14.513 -0.8980  0.7957  1.1916
12916TIP3    H260164   2.617   6.107  14.535 -2.3841  3.3210  1.1670
12917TIP3   OH260165   0.279   3.429  13.571  0.2071 -0.1289  0.4414
12917TIP3    H160166   0.337   3.505  13.574  0.0286  0.1892 -2.2419
12917TIP3    H260167   0.276   3.405  13.479 -1.4684 -2.0796  0.9449
12918TIP3   OH260168   5.452   2.472  15.460 -0.1454  0.0483  0.0974
12918TIP3    H160169   5.462   2.537  15.530 -0.4299 -1.6574  1.7929
12918TIP3    H260170   5.508   2.400  15.486  1.0935  0.0271 -2.3681
12919TIP3   OH260171   6.731   5.986  14.029  0.4620  0.0713 -0.1208
12919TIP3    H160172   6.825   6.004  14.026  0.3481  0.8175  0.5208
12919TIP3    H260173   6.710   5.978  14.122 -0.1668  0.2422 -0.2378
12920TIP3   OH260174   1.680   1.180   1.762  0.0642 -0.3171 -0.0593
12920TIP3    H160175   1.711   1.192   1.852  1.1991  0.2685 -0.5078
12920TIP3    H260176   1.681   1.085   1.749  1.1769 -0.3468  0.1301
12921TIP3   OH260177   0.436   5.721  12.355  0.2169 -0.1216  0.2042
12921TIP3    H160178   0.507   5.731  12.419  0.1963  1.7700 -0.0198
12921TIP3    H260179   0.370   5.784  12.383  0.1349  0.6262 -1.5780
12922TIP3   OH260180   0.197   6.573   1.703 -0.1937 -0.1133  0.2541
12922TIP3    H160181   0.108   6.607   1.704  0.0263  0.4856  0.3264
12922TIP3    H260182   0.212   6.545   1.613  0.1822  1.5736 -0.2514
12923TIP3   OH260183   0.131   0.548  13.176  0.6633  0.2494  0.0674
12923TIP3    H160184   0.113   0.551  13.082  1.8990 -1.7915 -0.2885
12923TIP3    H260185   0.220   0.580  13.185  0.4196  0.7969  0.6043
12924TIP3   OH260186   5.913   6.368  10.627  0.4483  0.1846 -0.1271
12924TIP3    H160187   5.987   6.324  10.586  0.7354 -0.6008  1.1956
12924TIP3    H260188   5.936   6.374  10.720 -1.5898 -1.0973  0.5399
12925TIP3   OH260189   4.825   0.438  15.485 -0.4457  0.2438 -0.6722
12925TIP3    H160190   4.856   0.399  15.567  1.5717  1.1285 -0.9584
12925TIP3    H260191   4.798   0.363  15.432 -1.4192 -0.3648  0.6155
12926TIP3   OH260192   6.327   5.849   3.015  0.3864 -0.3275 -0.0943
12926TIP3    H160193   6.301   5.757   3.020 -0.9075  0.0232  0.1650
12926TIP3    H260194   6.246   5.895   2.994  1.1951  0.6706 -1.1510
12927TIP3   OH260195   0.010   5.354  10.768 -0.4199  0.5474 -0.1089
12927TIP3    H160196   0.065   5.371  10.845 -1.6355  0.8791  0.7196
12927TIP3    H260197  -0.079   5.351  10.803 -0.8001 -1.8924 -1.1110
12928TIP3   OH260198   0.533   5.059  10.764 -0.7893 -0.2409 -0.4921
12928TIP3    H160199   0.609   5.092  10.714 -1.1211  0.9406 -0.2572
12928TIP3    H260200   0.466   5.127  10.752 -0.6482  0.4895  2.1456
12929TIP3   OH260201   6.252   6.768  15.562  0.1447 -0.2342  0.3436
12929TIP3    H160202   6.333   6.813  15.536  0.4112 -0.0852  1.4016
12929TIP3    H260203   6.210   6.745  15.479 -0.1795  2.2751 -0.2774
12930TIP3   OH260204   0.032   2.060  15.357 -0.9833 -0.2157  0.1138
12930TIP3    H160205   0.050   2.086  15.447 -0.7715  0.6571 -0.1695
12930TIP3    H260206   0.013   1.967  15.362 -2.5281  0.1211  1.2876
12931TIP3   OH260207   5.496   0.782  16.018 -0.1071 -0.1331 -0.4197
12931TIP3    H160208   5.423   0.763  15.959 -2.0698  1.1493  1.4298
12931TIP3    H260209   5.523   0.697  16.052 -0.6966 -0.6301 -1.1885
12932TIP3   OH260210   5.822   0.976   5.435 -0.1414 -0.3369 -0.0181
12932TIP3    H160211   5.844   0.889   5.467 -1.4756 -0.5255  0.4431
12932TIP3    H260212   5.905   1.011   5.403  0.3691 -1.8870 -0.5008
12933TIP3   OH260213   0.101   2.156   4.848  0.0265  0.8188  0.5786
12933TIP3    H160214   0.142   2.227   4.798  1.0207  0.8144  1.3397
12933TIP3    H260215   0.051   2.201   4.916 -2.6408  0.8801 -1.2899
12934TIP3   OH260216   5.254   4.693   0.765 -0.1880  0.1562  0.7894
12934TIP3    H160217   5.279   4.680   0.856 -0.5951  0.4944  0.9514
12934TIP3    H260218   5.295   4.776   0.740 -0.5208  0.3350  0.8300
12935TIP3   OH260219   6.488   0.272  14.495 -0.2190  0.3124 -0.2058
12935TIP3    H160220   6.556   0.284  14.562 -2.4242 -1.5946  2.6069
12935TIP3    H260221   6.414   0.323  14.526 -1.4383 -0.9238 -0.9672
12936TIP3   OH260222   0.465   4.217  13.353 -0.4490  0.1398 -0.3819
12936TIP3    H160223   0.511   4.293  13.388 -0.4734 -1.1392  2.6912
12936TIP3    H260224   0.414   4.183  13.426 -1.4464 -2.1162 -1.9953
12937TIP3   OH260225   5.096   4.568  17.063  0.1804  0.2472 -0.0767
12937TIP3    H160226   5.113   4.535  17.152 -0.3830 -4.6657 -1.4963
12937TIP3    H260227   5.007   4.602  17.067  0.7033  1.5467  1.5243
12938TIP3   OH260228   3.775   6.077   6.580  0.3176 -0.0427 -0.3694
12938TIP3    H160229   3.696   6.110   6.625  0.0107 -1.1979 -0.0373
12938TIP3    H260230   3.761   5.983   6.574  1.3573 -0.1651 -0.9719
12939TIP3   OH260231   2.718   0.369   0.822  0.2266 -0.0528  0.4262
12939TIP3    H160232   2.729   0.274   0.827 -2.6873 -0.6872 -2.1188
12939TIP3    H260233   2.721   0.399   0.913 -0.0500 -2.7749  1.4111
12940TIP3   OH260234   0.272   5.625   0.604 -0.0557  0.8355 -0.3120
12940TIP3    H160235   0.206   5.606   0.671  1.1320  1.3312  1.0359
12940TIP3    H260236   0.227   5.681   0.541 -1.3247 -0.0056 -0.1907
12941TIP3   OH260237   5.176   1.166   5.274 -0.6024 -0.1137 -1.3466
12941TIP3    H160238   5.198   1.233   5.210 -0.2165  0.1344 -0.9617
12941TIP3    H260239   5.105   1.203   5.325 -0.3547  0.0309 -1.1005
12942TIP3   OH260240   4.880   3.807   4.959  0.3305 -0.3733 -0.2488
12942TIP3    H160241   4.794   3.846   4.978  0.6402 -1.2248  3.6959
12942TIP3    H260242   4.860   3.715   4.938  0.1847 -0.1128 -1.3029
12943TIP3   OH260243   1.533   6.011  16.966 -0.3732 -0.1742  0.4583
12943TIP3    H160244   1.463   5.961  17.007 -0.8900 -1.1083 -1.4498
12943TIP3    H260245   1.495   6.042  16.883  1.5837 -1.1449 -0.8862
12944TIP3   OH260246   1.454   4.796  15.226  0.0185 -0.4052 -0.4994
12944TIP3    H160247   1.466   4.872  15.170  1.3289 -0.2549 -0.0345
12944TIP3    H260248   1.542   4.770  15.252 -0.4212 -1.8690 -0.3527
12945TIP3   OH260249   4.556   2.346  12.022 -0.3067 -0.0942 -0.0523
12945TIP3    H160250   4.557   2.393  12.105 -0.9708  0.7165 -0.4928
12945TIP3    H260251   4.467   2.308  12.017 -0.5141  0.4632 -0.7163
12946TIP3   OH260252   6.323   6.049  10.550  0.1768 -0.4761  0.7125
12946TIP3    H160253   6.317   5.974  10.608  0.4552 -0.2760  1.0055
12946TIP3    H260254   6.258   6.033  10.482  0.3746 -1.0751  0.6638
12947TIP3   OH260255   5.068   2.450   0.208  0.0983  0.0017 -0.2314
12947TIP3    H160256   5.143   2.401   0.174  1.5040  0.3660  2.0984
12947TIP3    H260257   5.076   2.443   0.303 -1.7064  1.7580  0.1226
12948TIP3   OH260258   6.389   3.239   3.551  0.2523  0.2591 -0.0568
12948TIP3    H160259   6.323   3.170   3.541 -0.2517  0.4237  1.7405
12948TIP3    H260260   6.425   3.251   3.463  0.1592 -2.0882 -0.4976
12949TIP3   OH260261   3.834   4.898   1.341 -0.2263  0.5206  0.0096
12949TIP3    H160262   3.842   4.976   1.397 -1.5168  0.1277  0.7895
12949TIP3    H260263   3.742   4.872   1.349  0.4599 -1.9333  0.9533
12950TIP3   OH260264   2.678   2.917  14.955 -0.1596 -0.5000  0.0673
12950TIP3    H160265   2.664   2.983  14.887 -1.8003  0.2762  1.0831
12950TIP3    H260266   2.770   2.893  14.947  0.1260  0.8698 -1.2705
12951TIP3   OH260267   0.087   1.176   2.999 -0.4066  0.3776  0.1115
12951TIP3    H160268   0.145   1.232   2.947  2.3642 -2.2792  0.0344
12951TIP3    H260269   0.024   1.141   2.936  0.7293 -0.1096 -0.7786
12952TIP3   OH260270   0.719   3.144   3.737 -0.5114 -0.2217 -0.1869
12952TIP3    H160271   0.744   3.051   3.737 -1.8739 -0.6247 -1.0868
12952TIP3    H260272   0.644   3.148   3.677 -0.3283  1.5074 -0.3351
12953TIP3   OH260273   5.627   3.914   3.748  0.4495 -0.9190  0.2233
12953TIP3    H160274   5.596   3.985   3.805  3.7061  1.2228 -0.3868
12953TIP3    H260275   5.634   3.838   3.806 -3.0974 -0.8743  0.9145
12954TIP3   OH260276   5.221   0.010   6.151 -0.0703 -0.1060  0.4354
12954TIP3    H160277   5.271  -0.048   6.094  1.2918 -0.4922  1.9366
12954TIP3    H260278   5.240  -0.022   6.240  0.1225  2.1633  1.2702
12955TIP3   OH260279   5.649   6.624  16.101  0.2790 -0.2437 -0.3477
12955TIP3    H160280   5.665   6.690  16.168 -0.1738  0.2092 -0.6682
12955TIP3    H260281   5.676   6.542  16.140  0.7619  0.1226  0.0973
12956TIP3   OH260282   5.272   4.357  12.884 -0.0161 -0.0731 -0.8241
12956TIP3    H160283   5.182   4.333  12.907  0.0099 -1.2932 -1.9020
12956TIP3    H260284   5.268   4.382  12.792  0.9479 -1.3506 -1.2372
12957TIP3   OH260285   1.786   4.225   5.680 -0.1162  0.0642 -0.1772
12957TIP3    H160286   1.755   4.196   5.765 -0.3169  2.6688  0.7188
12957TIP3    H260287   1.840   4.301   5.699  0.6385  0.1344 -2.3255
12958TIP3   OH260288   1.147   2.287   2.415  0.2228  0.1823  0.3921
12958TIP3    H160289   1.082   2.290   2.345  0.0803 -2.6267  0.2957
12958TIP3    H260290   1.122   2.212   2.468  2.8766 -0.4913  0.8500
12959TIP3   OH260291   6.486   0.385   4.562 -0.3260 -0.2503  0.1829
12959TIP3    H160292   6.404   0.416   4.523 -0.6926 -0.4060  0.8198
12959TIP3    H260293   6.527   0.464   4.597 -0.5770 -0.2855  0.5529
12960TIP3   OH260294   4.128   1.161  13.046 -0.0991 -0.2449 -0.4388
12960TIP3    H160295   4.178   1.146  13.126 -0.4627  1.1642  0.0807
12960TIP3    H260296   4.037   1.142  13.070 -0.4096  1.5240 -0.0768
12961TIP3   OH260297   3.836   0.913   5.854 -0.4304 -0.4639 -0.2168
12961TIP3    H160298   3.825   0.883   5.764  1.5518 -0.8540 -0.3739
12961TIP3    H260299   3.931   0.924   5.865 -0.7728  1.8619  1.0965
12962TIP3   OH260300   5.603   0.615  12.750 -0.2025 -0.5025 -0.1866
12962TIP3    H160301   5.682   0.576  12.713 -0.7659  0.4849 -2.5662
12962TIP3    H260302   5.588   0.695  12.700 -0.9059  1.1247  2.4065
12963TIP3   OH260303   1.175   4.516  16.627 -0.3501 -0.1589 -0.0191
12963TIP3    H160304   1.129   4.517  16.710 -0.6301 -2.0103 -0.0992
12963TIP3    H260305   1.247   4.578  16.638 -2.2182  2.0582  0.4416
12964TIP3   OH260306   2.470   2.372   4.841  0.3692  0.0314  0.5626
12964TIP3    H160307   2.467   2.462   4.808  0.1579 -0.0792  0.2733
12964TIP3    H260308   2.403   2.370   4.910  0.2044  0.0302  0.4022
12965TIP3   OH260309   3.886   2.194   1.474  0.4260  0.1062  0.4246
12965TIP3    H160310   3.859   2.129   1.409 -2.4395  1.3195  0.2351
12965TIP3    H260311   3.876   2.149   1.558 -0.0443 -0.1968  0.2135
12966TIP3   OH260312   3.210   5.929  17.111 -0.1605  0.7969 -0.0960
12966TIP3    H160313   3.150   5.947  17.184 -0.3484 -1.6968  0.4390
12966TIP3    H260314   3.273   5.867  17.146  0.8980  1.0012 -1.5521
12967TIP3   OH260315   4.311   2.028  13.733  0.1740 -0.0084  0.1531
12967TIP3    H160316   4.345   2.040  13.822 -1.7199  0.6894  0.8483
12967TIP3    H260317   4.264   2.110  13.714 -0.6571 -0.7015 -0.9079
12968TIP3   OH260318   1.719   1.589   3.173 -0.3322 -0.4570 -0.0691
12968TIP3    H160319   1.714   1.503   3.132 -2.7811  0.4013 -1.7900
12968TIP3    H260320   1.762   1.644   3.108 -3.8317  0.8068 -1.5609
12969TIP3   OH260321   5.539   0.749  16.442 -0.5749  0.2515  0.1530
12969TIP3    H160322   5.470   0.800  16.401  0.8383  1.1233 -1.2521
12969TIP3    H260323   5.568   0.802  16.516  0.1450  1.0042 -0.6500
12970TIP3   OH260324   5.407   0.312   0.750  0.5472  0.1017 -0.2243
12970TIP3    H160325   5.412   0.257   0.828 -0.6216  0.2995  0.0076
12970TIP3    H260326   5.413   0.402   0.784 -0.0026  0.1893 -0.3556
12971TIP3   OH260327   1.773   0.808  15.430 -0.6463  0.0024  0.1912
12971TIP3    H160328   1.789   0.754  15.352  0.7751  1.4471 -0.5793
12971TIP3    H260329   1.836   0.776  15.495 -0.4295  0.1204  0.0420
12972TIP3   OH260330   5.813   3.972   5.709  0.2221  0.0930  0.7962
12972TIP3    H160331   5.873   3.910   5.750  2.0734  1.3281  0.1072
12972TIP3    H260332   5.752   3.996   5.779  0.4293 -1.3157  1.4868
12973TIP3   OH260333   1.985   6.368   1.157 -0.6160 -0.2260 -0.1633
12973TIP3    H160334   2.021   6.305   1.219 -0.5781  0.6806  0.7476
12973TIP3    H260335   1.904   6.327   1.125 -0.0529 -1.1954 -0.3966
12974TIP3   OH260336   1.452   5.183  11.936  0.1473 -0.8129 -0.0360
12974TIP3    H160337   1.359   5.192  11.960  0.1533 -0.2437 -0.2153
12974TIP3    H260338   1.499   5.222  12.010  0.2345 -0.8344 -0.0811
12975TIP3   OH260339   5.622   4.443  14.152  0.5514  0.2703 -0.5785
12975TIP3    H160340   5.658   4.455  14.240  1.0305  1.0724 -0.8732
12975TIP3    H260341   5.559   4.515  14.143  0.6175  0.2799 -0.9510
12976TIP3   OH260342   5.563   0.572  14.472  0.2973  0.2027 -0.6348
12976TIP3    H160343   5.651   0.537  14.488  0.9090  0.4434 -3.0946
12976TIP3    H260344   5.578   0.645  14.412 -1.3575  2.0461  1.0668
12977TIP3   OH260345   1.054   2.365  11.367 -0.0333  0.1293  0.3009
12977TIP3    H160346   1.142   2.337  11.343  0.3493  1.4963 -0.0233
12977TIP3    H260347   1.059   2.461  11.367 -0.9712  0.2329  2.3164
12978TIP3   OH260348   6.109   4.212  14.098 -0.5976 -0.4010  0.7213
12978TIP3    H160349   6.155   4.146  14.151  2.3154  0.7715 -0.1559
12978TIP3    H260350   6.053   4.161  14.040  2.2786 -2.2907 -0.6195
12979TIP3   OH260351   6.477   3.263  16.480  0.9276 -0.0754 -0.1785
12979TIP3    H160352   6.502   3.262  16.388 -0.0102 -0.6057 -0.4293
12979TIP3    H260353   6.554   3.227  16.526  1.1229 -0.4774 -0.8138
12980TIP3   OH260354   6.755   3.121   0.545 -0.3698  0.3863 -0.0400
12980TIP3    H160355   6.738   3.059   0.474 -0.2177  0.5035 -0.1800
12980TIP3    H260356   6.816   3.184   0.508  0.1996  0.0983  0.3801
12981TIP3   OH260357   3.385   1.498   2.003 -0.3508 -0.2173 -0.6054
12981TIP3    H160358   3.434   1.522   1.923  1.4226 -0.2473  0.4122
12981TIP3    H260359   3.294   1.498   1.976  0.2858 -2.5983 -3.2934
12982TIP3   OH260360   3.802   2.813   1.231  0.2372  0.6122  0.1448
12982TIP3    H160361   3.878   2.850   1.186  1.3801  1.0961  2.3244
12982TIP3    H260362   3.743   2.888   1.244 -1.0566  0.0981 -2.2206
12983TIP3   OH260363   3.146   5.649   4.876  0.2558  0.5270  0.5248
12983TIP3    H160364   3.231   5.606   4.871  0.6015  1.2960 -0.7437
12983TIP3    H260365   3.129   5.679   4.786 -0.1262  2.6952  1.2779
12984TIP3   OH260366   0.984   4.093   1.987  0.5654  0.2758 -0.8452
12984TIP3    H160367   0.945   4.006   1.977 -0.0083  0.2859  0.8893
12984TIP3    H260368   1.049   4.081   2.057 -2.4754  2.0158  2.6220
12985TIP3   OH260369   0.220   2.141  13.796 -0.6351  0.2327 -0.4041
12985TIP3    H160370   0.286   2.185  13.850 -0.5276  0.7590 -0.9603
12985TIP3    H260371   0.254   2.053  13.784 -0.6970  0.0757  0.4515
12986TIP3   OH260372   0.393   3.417  11.488  0.6038 -0.4108  0.0283
12986TIP3    H160373   0.467   3.379  11.442  1.1754 -0.0066  0.6078
12986TIP3    H260374   0.340   3.457  11.419 -0.5352 -2.9983 -0.7574
12987TIP3   OH260375   6.466   1.588   0.616 -0.3370 -0.4908 -0.2861
12987TIP3    H160376   6.554   1.622   0.632 -0.3268 -0.8956  0.5598
12987TIP3    H260377   6.411   1.629   0.683 -0.4680 -1.5458  0.2766
12988TIP3   OH260378   6.594   5.529  13.051 -0.0658 -0.4232 -1.2339
12988TIP3    H160379   6.628   5.578  12.976  2.0704  0.2644  0.0998
12988TIP3    H260380   6.564   5.446  13.014  0.7612 -0.0250 -2.8731
12989TIP3   OH260381   1.797   1.436   3.796  0.0772 -0.5224  0.3881
12989TIP3    H160382   1.777   1.522   3.758 -0.0247 -0.4739  0.5494
12989TIP3    H260383   1.883   1.448   3.837  0.1797 -0.5700  0.1921
12990TIP3   OH260384   1.568   4.499  15.571  0.5449  0.1832  0.0738
12990TIP3    H160385   1.480   4.476  15.542 -0.2315  1.3098  1.4070
12990TIP3    H260386   1.603   4.417  15.605  0.9036 -0.8020 -2.4524
12991TIP3   OH260387   0.929   2.878   5.020 -0.1322 -0.5955  0.3132
12991TIP3    H160388   0.942   2.973   5.015 -0.3820 -0.5411  0.6559
12991TIP3    H260389   0.994   2.849   5.085 -0.3371 -0.6011  0.5165
12992TIP3   OH260390   1.081   1.300  14.044  0.2019  0.5067 -0.3103
12992TIP3    H160391   1.103   1.228  14.103 -0.7388 -0.0211 -0.5780
12992TIP3    H260392   1.126   1.279  13.962 -0.1279  0.1699 -0.4113
12993TIP3   OH260393   3.791   6.031   3.974  0.5770  0.2474 -0.0977
12993TIP3    H160394   3.875   6.011   3.933  0.2283 -1.5086 -0.0443
12993TIP3    H260395   3.728   6.032   3.902  0.5391  0.9371 -0.0594
12994TIP3   OH260396   0.707   6.405  14.668 -0.3699  0.7288 -0.1304
12994TIP3    H160397   0.611   6.411  14.665 -0.3013  2.7356  0.3288
12994TIP3    H260398   0.725   6.336  14.732 -1.4931  0.1148 -0.4392
12995TIP3   OH260399   1.663   0.481  16.657 -0.2405 -0.3817 -0.0195
12995TIP3    H160400   1.723   0.551  16.683  0.7584 -1.3592  0.4142
12995TIP3    H260401   1.702   0.402  16.695 -1.5960 -1.1049 -0.0861
12996TIP3   OH260402   2.341   2.897  12.499 -0.2588  0.1185  0.7246
12996TIP3    H160403   2.356   2.986  12.468 -2.6692  0.0134 -0.9601
12996TIP3    H260404   2.347   2.842  12.420  0.6831 -1.1796  1.6473
12997TIP3   OH260405   2.908   2.799  15.113  0.3812 -0.1908  0.1442
12997TIP3    H160406   2.972   2.803  15.184  1.2277 -1.1237 -0.5351
12997TIP3    H260407   2.836   2.746  15.148  1.0017 -1.0389  0.1732
12998TIP3   OH260408   3.419   1.939   0.989  0.1479 -0.0342  0.7896
12998TIP3    H160409   3.442   1.985   1.069 -0.5523 -0.9173  1.5185
12998TIP3    H260410   3.328   1.912   1.001 -0.1417  0.2556 -0.5199
12999TIP3   OH260411   1.821   1.949   5.084  0.2609  0.2694 -0.0440
12999TIP3    H160412   1.762   1.905   5.022  1.3809 -0.0527 -0.9077
12999TIP3    H260413   1.767   2.018   5.123 -0.4984  0.4458 -1.3469
13000TIP3   OH260414   5.239   1.377  14.836  0.4313  0.0446 -0.1542
13000TIP3    H160415   5.149   1.361  14.807  0.4724  0.2436 -0.3962
13000TIP3    H260416   5.252   1.317  14.909 -0.2946  0.8150  0.6352
13001TIP3   OH260417   4.524   2.446   1.746  0.3459 -0.1721  0.9958
13001TIP3    H160418   4.454   2.436   1.810 -2.0755 -0.5669 -1.4998
13001TIP3    H260419   4.540   2.357   1.714 -0.2051  0.2719 -0.5902
13002TIP3   OH260420   0.006   6.129  15.022 -0.1067  0.4696  0.2086
13002TIP3    H160421   0.023   6.111  14.930 -1.3802  0.2169  0.0012
13002TIP3    H260422   0.088   6.165  15.056  0.7098 -0.4532 -0.7523
13003TIP3   OH260423   0.770   5.788  12.746 -0.0851 -0.1240 -0.3184
13003TIP3    H160424   0.792   5.861  12.687 -0.4819  0.1760 -0.1034
13003TIP3    H260425   0.836   5.722  12.728  0.8813  0.6812  0.1817
13004TIP3   OH260426   3.284   6.026   0.132 -0.5967 -0.0262  0.2332
13004TIP3    H160427   3.231   6.098   0.097  1.9428  2.1072  0.5048
13004TIP3    H260428   3.302   5.970   0.056 -1.5252  0.3122 -0.2466
13005TIP3   OH260429   3.500   5.966   2.436 -0.0518  0.2986 -0.1387
13005TIP3    H160430   3.423   5.935   2.485  0.2000  0.1668  0.1762
13005TIP3    H260431   3.497   5.917   2.354 -0.4662  0.5058 -0.2514
13006TIP3   OH260432   5.178   1.579  15.249  0.3053  0.0867 -0.6321
13006TIP3    H160433   5.224   1.599  15.331 -2.2632  0.2361  0.8883
13006TIP3    H260434   5.112   1.648  15.241  0.1578 -0.2203 -2.5877
13007TIP3   OH260435   2.112   6.017  12.338 -0.1448  0.1678 -0.2092
13007TIP3    H160436   2.058   5.940  12.355  0.5262 -0.7004 -1.8248
13007TIP3    H260437   2.059   6.072  12.280  0.4736 -0.4512 -1.3904
13008TIP3   OH260438   0.253   5.346   5.297  0.1743 -0.6797  0.2696
13008TIP3    H160439   0.214   5.273   5.250  0.2964 -0.6831  0.1711
13008TIP3    H260440   0.189   5.417   5.288  0.2335 -0.6531  0.0186
13009TIP3   OH260441   1.787   3.322   2.604 -0.1830 -0.3527 -0.7596
13009TIP3    H160442   1.760   3.361   2.521  0.8589  1.3878 -0.3394
13009TIP3    H260443   1.836   3.391   2.648  1.5185 -2.0463  0.1925
13010TIP3   OH260444   1.328   6.756   5.166  0.5682 -0.2317  0.0276
13010TIP3    H160445   1.382   6.678   5.172 -1.5555 -1.8201 -0.1813
13010TIP3    H260446   1.264   6.736   5.098 -0.3382  1.4922  0.3007
13011TIP3   OH260447   3.839   5.918   2.169 -0.2384 -0.7635 -0.4549
13011TIP3    H160448   3.777   5.991   2.170  0.8383  0.1743  1.2876
13011TIP3    H260449   3.788   5.843   2.200 -0.4169  0.1113  1.4925
13012TIP3   OH260450   3.870   1.368  13.043  0.5951  0.1096  0.3067
13012TIP3    H160451   3.881   1.296  13.105  2.2385 -0.1292 -0.1978
13012TIP3    H260452   3.907   1.335  12.961 -1.8745  0.2801 -0.9519
13013TIP3   OH260453   3.268   4.267  16.257 -0.0702 -0.5551 -1.0179
13013TIP3    H160454   3.243   4.174  16.255 -0.4645 -0.4960  0.2870
13013TIP3    H260455   3.187   4.314  16.236  0.3813 -0.5038 -2.8203
13014TIP3   OH260456   1.475   0.764  13.515 -0.3380  0.7913 -0.4699
13014TIP3    H160457   1.538   0.820  13.559  0.5328 -1.0111  0.7164
13014TIP3    H260458   1.510   0.755  13.426  1.9197 -1.1970  0.5020
13015TIP3   OH260459   3.210   6.690   3.066  0.3970 -0.3041  0.2981
13015TIP3    H160460   3.150   6.616   3.060 -1.8677  1.3442  1.1781
13015TIP3    H260461   3.211   6.727   2.977 -1.1110  0.4909  0.5727
13016TIP3   OH260462   6.530   1.373  15.102 -0.0985  0.5204  0.0839
13016TIP3    H160463   6.565   1.459  15.128 -0.7580  0.2574  2.0038
13016TIP3    H260464   6.446   1.393  15.062  1.1755  0.9829 -2.5736
13017TIP3   OH260465   4.182   6.735  12.674  0.0109 -0.0969 -0.3288
13017TIP3    H160466   4.157   6.807  12.732  1.7118  0.6181 -0.4322
13017TIP3    H260467   4.169   6.770  12.586  1.1663  0.2431 -0.3830
13018TIP3   OH260468   2.733   6.539  15.222 -1.2448  0.4452  0.1996
13018TIP3    H160469   2.765   6.603  15.285 -0.2637  1.6540 -1.4520
13018TIP3    H260470   2.755   6.576  15.137  1.1020 -2.9012 -0.8795
13019TIP3   OH260471   3.416   1.515  15.511  0.6591 -0.3965  0.0149
13019TIP3    H160472   3.330   1.554  15.494  0.9569  1.1302  1.7307
13019TIP3    H260473   3.412   1.429  15.468 -0.9511  0.4707 -1.7150
13020TIP3   OH260474   5.493   2.582   3.330  0.1292  0.5282  0.5875
13020TIP3    H160475   5.505   2.571   3.236  0.1178 -1.6668  0.8092
13020TIP3    H260476   5.502   2.494   3.367 -3.3138  0.6837  2.2307
13021TIP3   OH260477   3.745   4.322   6.025 -0.4642  0.4738  0.2128
13021TIP3    H160478   3.733   4.356   6.114 -0.3947 -0.9222  0.7737
13021TIP3    H260479   3.686   4.375   5.972 -0.3792  1.4520  1.0539
13022TIP3   OH260480   5.104   1.515  14.266 -0.3616  0.2311 -0.5613
13022TIP3    H160481   5.135   1.487  14.352 -1.6535  0.5918  0.0479
13022TIP3    H260482   5.060   1.438  14.230 -0.7890  0.4023 -0.4147
13023TIP3   OH260483   1.125   6.389  13.544 -0.5628  0.1372  0.0794
13023TIP3    H160484   1.192   6.404  13.611 -0.0513  1.7376 -0.7390
13023TIP3    H260485   1.059   6.456  13.559 -0.8366  0.0196 -0.5353
13024TIP3   OH260486   0.401   4.290   2.654 -0.8319 -0.5089 -0.0841
13024TIP3    H160487   0.491   4.273   2.627 -0.0833 -0.0491  1.9766
13024TIP3    H260488   0.388   4.383   2.638  0.3170  0.2608  2.7739
13025TIP3   OH260489   1.092   3.834  15.572 -0.0501  0.3712  0.1912
13025TIP3    H160490   1.014   3.878  15.604  0.5324  0.4287  1.6161
13025TIP3    H260491   1.080   3.742  15.597  0.1498  0.2988  0.0251
13026TIP3   OH260492   0.021   0.435  16.640  0.2506 -0.6604 -0.1613
13026TIP3    H160493  -0.073   0.451  16.651  0.2461  1.9466 -2.8341
13026TIP3    H260494   0.028   0.395  16.553  1.5295 -2.7492  0.8378
13027TIP3   OH260495   0.758   3.563  16.046  0.0256  0.2604  0.1409
13027TIP3    H160496   0.753   3.648  16.002 -3.7795  0.0894 -0.1191
13027TIP3    H260497   0.671   3.526  16.034  0.4422 -2.1224  3.3586
13028TIP3   OH260498   3.894   2.836   0.006 -0.5432 -0.1110  0.1623
13028TIP3    H160499   3.824   2.864  -0.054 -0.2366 -0.7370 -0.5135
13028TIP3    H260500   3.907   2.910   0.064 -1.3566  0.2440 -0.0911
13029TIP3   OH260501   5.066   1.175   0.791 -0.2065  0.0230 -0.3674
13029TIP3    H160502   5.113   1.155   0.872 -2.2646 -2.0744  0.3923
13029TIP3    H260503   5.007   1.247   0.814 -1.3367 -1.0736  0.2597
13030TIP3   OH260504   6.225   3.281   4.401  0.4911  0.3150  0.3978
13030TIP3    H160505   6.279   3.267   4.323  0.0057 -0.8508  0.2528
13030TIP3    H260506   6.195   3.372   4.394  0.1962  0.1325 -0.9411
13031TIP3   OH260507   5.653   4.419   3.261  0.0380 -0.3875  0.0305
13031TIP3    H160508   5.669   4.503   3.304 -0.0460  0.7393 -1.9990
13031TIP3    H260509   5.738   4.374   3.263  0.6573  0.7101 -0.7709
13032TIP3   OH260510   5.213   2.334  13.762  0.1069 -0.1779  0.2566
13032TIP3    H160511   5.240   2.316  13.672  1.8825  1.5674  0.3730
13032TIP3    H260512   5.143   2.271  13.779  0.5724 -1.3843 -1.9135
13033TIP3   OH260513   2.113   2.780  12.011 -0.1931 -0.3581 -0.1467
13033TIP3    H160514   2.137   2.690  12.029  1.6000  0.1936  0.4411
13033TIP3    H260515   2.109   2.822  12.097 -0.9983  0.1338 -0.4146
13034TIP3   OH260516   2.881   5.936   6.778 -0.7697  0.7227  0.6646
13034TIP3    H160517   2.942   6.006   6.802 -1.7608  1.9511 -0.2553
13034TIP3    H260518   2.795   5.978   6.779 -1.5358 -0.7934  1.2363
13035TIP3   OH260519   4.598   0.534  17.263 -0.1562  0.3124 -0.1661
13035TIP3    H160520   4.667   0.576  17.315 -0.8375 -0.0897  1.1053
13035TIP3    H260521   4.609   0.440  17.280 -0.8067  0.2242 -0.2220
13036TIP3   OH260522   0.575   6.116   1.341 -0.3303  0.1580  0.0958
13036TIP3    H160523   0.518   6.182   1.302 -0.7710 -0.1504  0.2158
13036TIP3    H260524   0.547   6.109   1.432  1.8829  2.1962  1.0468
13037TIP3   OH260525   1.312   0.623  14.791 -0.3966  0.0338  0.5629
13037TIP3    H160526   1.240   0.634  14.853  0.7394 -0.5025  2.0540
13037TIP3    H260527   1.373   0.564  14.837  1.7048  1.6752 -0.0015
13038TIP3   OH260528   4.774   1.441   1.974  0.3292 -0.3362 -0.2195
13038TIP3    H160529   4.748   1.532   1.960  1.1432 -0.2192 -1.0424
13038TIP3    H260530   4.792   1.407   1.886 -0.9138 -1.5952 -0.0217
13039TIP3   OH260531   5.988   1.546   4.333 -0.4241 -0.2030 -0.2658
13039TIP3    H160532   5.944   1.523   4.415 -1.3665  1.6337 -0.2031
13039TIP3    H260533   6.048   1.473   4.316 -0.2638 -0.6595  1.9966
13040TIP3   OH260534   3.353   4.036   5.271 -0.1165  0.3949  0.0860
13040TIP3    H160535   3.430   4.070   5.316 -0.6947  0.4747  1.0424
13040TIP3    H260536   3.372   3.943   5.258  0.9673  0.8045 -1.4766
13041TIP3   OH260537   2.681   3.611   5.031 -0.2795 -0.1461 -0.2796
13041TIP3    H160538   2.609   3.621   5.094 -0.5353 -2.3058 -0.1372
13041TIP3    H260539   2.748   3.563   5.080  0.8414  0.8990 -0.7439
13042TIP3   OH260540   5.801   4.063   1.280  0.0896 -0.1752 -0.1964
13042TIP3    H160541   5.793   3.968   1.272 -0.1823 -0.3607  1.6859
13042TIP3    H260542   5.857   4.075   1.356  1.8157  1.2031 -1.6224
13043TIP3   OH260543   5.343   4.066   3.693  0.7880 -0.8224  0.2956
13043TIP3    H160544   5.310   4.139   3.641  1.3814  0.1152  1.1993
13043TIP3    H260545   5.318   3.988   3.643  0.2741 -0.0094 -0.7629
13044TIP3   OH260546   4.367   6.257   5.978 -0.7847  0.9655 -0.1450
13044TIP3    H160547   4.302   6.198   6.018 -1.1541  1.1021 -0.5343
13044TIP3    H260548   4.436   6.199   5.947 -1.3000  0.6975 -0.8156
13045TIP3   OH260549   2.158   4.899   1.617  0.4871  0.0033 -0.7545
13045TIP3    H160550   2.241   4.871   1.656  0.1112  1.2988  1.1038
13045TIP3    H260551   2.110   4.818   1.602  1.1114 -0.6224  0.4889
13046TIP3   OH260552   0.919   0.819  15.283  0.4829  0.3260  0.1294
13046TIP3    H160553   0.926   0.795  15.191  0.4240  0.6252  0.0459
13046TIP3    H260554   0.964   0.749  15.330  0.5837  0.2158 -0.1326
13047TIP3   OH260555   0.880   2.672  13.997 -0.2788 -0.1505 -0.4243
13047TIP3    H160556   0.955   2.646  14.050 -0.0355  0.6094 -0.3844
13047TIP3    H260557   0.893   2.766  13.982  0.8944 -0.7299 -3.7891
13048TIP3   OH260558   3.732   4.753  11.849 -0.1239 -0.7369  0.0015
13048TIP3    H160559   3.664   4.818  11.867  0.7163  0.1995 -0.0463
13048TIP3    H260560   3.740   4.703  11.930  0.0715  0.0513  0.4785
13049TIP3   OH260561   0.665   6.261   3.985 -0.1509 -0.4364 -0.2294
13049TIP3    H160562   0.576   6.286   3.963 -0.4811 -1.4611 -0.1094
13049TIP3    H260563   0.720   6.322   3.936 -0.8633  2.1447  1.9632
13050TIP3   OH260564   3.795   6.425  15.651  0.3147  0.0047  0.1056
13050TIP3    H160565   3.719   6.481  15.637  0.6332  0.6622  0.8937
13050TIP3    H260566   3.838   6.462  15.728  0.9548 -0.8794  0.1909
13051TIP3   OH260567   3.690   0.408   1.753 -0.1100 -0.1168  0.0397
13051TIP3    H160568   3.700   0.409   1.658  0.5351 -2.4709  0.0083
13051TIP3    H260569   3.625   0.340   1.770  2.1811 -2.1702  1.3284
13052TIP3   OH260570   3.254   4.044   6.651 -0.0776 -0.5456  0.0595
13052TIP3    H160571   3.217   4.107   6.713 -0.2194  0.0789 -0.6513
13052TIP3    H260572   3.273   4.095   6.573  0.2407 -1.3003 -0.3680
13053TIP3   OH260573   1.855   5.147   2.486  0.2152  0.3174  0.7506
13053TIP3    H160574   1.762   5.161   2.467  0.7957  0.6933 -2.3715
13053TIP3    H260575   1.888   5.100   2.409  2.4142 -0.7872  2.2679
13054TIP3   OH260576   5.447   4.429  17.192 -0.3057  0.5310  0.2565
13054TIP3    H160577   5.436   4.518  17.160  1.2307  0.5808 -0.2161
13054TIP3    H260578   5.468   4.439  17.285  0.1683  0.6786  0.1333
13055TIP3   OH260579   6.504   1.957  13.818  0.6347 -0.0888  0.1619
13055TIP3    H160580   6.541   2.041  13.790 -0.3341  0.0801 -0.6553
13055TIP3    H260581   6.565   1.891  13.787  1.4289  0.3053  0.8507
13056TIP3   OH260582   5.613   0.673  13.966 -0.4008 -0.4366 -0.5368
13056TIP3    H160583   5.533   0.723  13.950  0.0750  0.9781  1.2360
13056TIP3    H260584   5.582   0.592  14.007 -0.9279  0.2321  0.4249
13057TIP3   OH260585   2.157   5.800   1.375  0.1448 -0.0707  0.5763
13057TIP3    H160586   2.176   5.754   1.457 -0.5947 -1.3622  0.0521
13057TIP3    H260587   2.078   5.758   1.342 -0.1649  1.1412 -0.2835
13058TIP3   OH260588   0.209   1.196  11.169 -0.4475  0.1042 -0.3787
13058TIP3    H160589   0.132   1.192  11.112 -0.4911 -1.8304 -0.2490
13058TIP3    H260590   0.245   1.108  11.167  1.5566  0.8669 -0.1042
13059TIP3   OH260591   4.475   0.064   4.268  0.2882 -0.0351 -0.2441
13059TIP3    H160592   4.438  -0.016   4.305 -0.8739  0.2385 -0.7568
13059TIP3    H260593   4.519   0.034   4.188 -0.7617 -0.0863 -0.8202
13060TIP3   OH260594   1.607   3.922  12.482 -0.1921 -0.4793  0.0802
13060TIP3    H160595   1.622   3.949  12.391  0.4876 -2.2641 -0.3605
13060TIP3    H260596   1.541   3.853  12.476  0.0725 -0.8193  0.9143
13061TIP3   OH260597   1.529   0.879   2.493 -0.0662  0.1369 -0.4178
13061TIP3    H160598   1.489   0.893   2.579  0.1307  0.5088 -0.3846
13061TIP3    H260599   1.567   0.964   2.470  0.2966 -0.0874 -0.6596
13062TIP3   OH260600   3.057   0.003   6.023 -0.3603 -0.0328 -0.2756
13062TIP3    H160601   3.112   0.012   5.945 -0.1288 -0.1920 -0.1299
13062TIP3    H260602   3.118  -0.011   6.095 -0.5392  0.7152  0.0311
13063TIP3   OH260603   5.691   0.260   5.042 -0.1473 -0.0047 -0.0504
13063TIP3    H160604   5.725   0.320   4.976 -1.1499  0.6254 -0.0297
13063TIP3    H260605   5.667   0.181   4.993 -0.0174  0.1000 -0.2839
13064TIP3   OH260606   0.989   1.346   5.737 -0.6387  0.3394  0.4986
13064TIP3    H160607   0.907   1.322   5.780 -0.0829  1.5167  2.3330
13064TIP3    H260608   0.964   1.366   5.647 -2.2258 -0.0758  0.8167
13065TIP3   OH260609   5.740   2.994  15.374 -0.4559 -0.5454  0.3520
13065TIP3    H160610   5.741   3.018  15.281  0.8284 -1.4606  0.1076
13065TIP3    H260611   5.676   2.923  15.380 -1.6386  0.5001  0.4522
13066TIP3   OH260612   4.701   2.605   3.319 -0.7050  0.0995  0.1568
13066TIP3    H160613   4.687   2.551   3.240 -1.9734 -0.0790  0.4813
13066TIP3    H260614   4.692   2.695   3.288 -0.5433  0.0584 -0.0163
13067TIP3   OH260615   5.495   1.154  14.466 -0.6801 -0.0020  0.1371
13067TIP3    H160616   5.442   1.075  14.475 -0.0810 -0.6676 -1.6577
13067TIP3    H260617   5.575   1.135  14.515 -1.9522  0.9710  2.7780
13068TIP3   OH260618   5.789   5.101   4.216 -0.3456 -0.6913  0.6163
13068TIP3    H160619   5.768   5.172   4.156  1.9801 -0.7617 -0.3860
13068TIP3    H260620   5.784   5.141   4.303 -1.3217  0.0709  0.2248
13069TIP3   OH260621   1.034   4.699   4.473  0.5637  0.2138  0.2332
13069TIP3    H160622   0.992   4.683   4.558  1.5157  0.7774  0.8363
13069TIP3    H260623   0.961   4.711   4.412 -0.1631 -2.1301  0.5411
13070TIP3   OH260624   1.818   4.095  16.529  0.5203  0.0046  0.4816
13070TIP3    H160625   1.765   4.047  16.466  3.7787 -1.7032 -1.2427
13070TIP3    H260626   1.858   4.026  16.583 -0.3669  1.3174  2.9738
13071TIP3   OH260627   1.736   2.116  17.320 -0.0007 -0.1720 -0.6571
13071TIP3    H160628   1.724   2.033  17.274 -0.1481 -0.2831 -0.4182
13071TIP3    H260629   1.800   2.096  17.388  0.2850  0.0149 -0.8659
13072TIP3   OH260630   6.669   5.167  14.779  0.1829 -0.7263  0.1823
13072TIP3    H160631   6.592   5.177  14.836 -0.1146 -1.9036  0.0112
13072TIP3    H260632   6.690   5.256  14.751  0.6692 -0.0109  2.5530
13073TIP3   OH260633   1.399   3.726  10.394 -0.6057 -0.0585 -0.1381
13073TIP3    H160634   1.343   3.661  10.437 -0.5716 -0.2774 -0.4186
13073TIP3    H260635   1.454   3.760  10.464  0.2478 -1.2373 -0.1989
13074TIP3   OH260636   4.374   4.204  17.236 -0.5551 -0.4054  0.5312
13074TIP3    H160637   4.459   4.245  17.250 -1.1668  0.2143  2.8433
13074TIP3    H260638   4.337   4.252  17.162 -0.2101  1.5824  1.5734
13075TIP3   OH260639   6.536   4.045   1.656  0.1714  0.0433 -0.0532
13075TIP3    H160640   6.600   3.988   1.614  1.8299  1.1031  0.9302
13075TIP3    H260641   6.541   4.023   1.749 -0.7097  0.3285  0.0726
13076TIP3   OH260642   1.239   0.603   1.708  0.4089 -0.2596 -0.1104
13076TIP3    H160643   1.170   0.576   1.647 -0.4507  2.2797 -0.4095
13076TIP3    H260644   1.195   0.611   1.793  0.4218  0.8120 -0.1836
13077TIP3   OH260645   1.415   0.406  14.915 -0.3478 -0.3055 -0.3060
13077TIP3    H160646   1.455   0.320  14.932 -0.2118 -0.2550 -0.3649
13077TIP3    H260647   1.397   0.442  15.002 -0.2226 -0.3107 -0.2766
13078TIP3   OH260648   4.751   5.466   4.026 -0.2249 -0.0316 -0.6971
13078TIP3    H160649   4.678   5.457   3.965 -0.3102  2.4189 -1.0653
13078TIP3    H260650   4.716   5.514   4.100  0.6800 -0.0205 -0.2549
13079TIP3   OH260651   5.899   2.594  14.720 -0.7558 -0.6916 -0.1786
13079TIP3    H160652   5.958   2.519  14.724  0.4056  0.2068 -0.0835
13079TIP3    H260653   5.904   2.624  14.630  2.4998  2.0815  0.6919
13080TIP3   OH260654   3.837   4.570   5.575  0.4801  0.0740 -0.4230
13080TIP3    H160655   3.836   4.515   5.497 -0.3293  0.6573 -0.8457
13080TIP3    H260656   3.855   4.658   5.541 -1.0370  0.5400 -0.1232
13081TIP3   OH260657   4.086   1.982   3.596  0.1342 -0.1214 -0.5943
13081TIP3    H160658   4.002   2.012   3.632  0.8601  1.3064  0.0015
13081TIP3    H260659   4.108   1.904   3.647 -1.5484 -1.4537 -1.8065
13082TIP3   OH260660   2.765   5.719   2.905  0.6585  0.1972  0.0756
13082TIP3    H160661   2.731   5.632   2.882  1.1776  0.1512 -0.5321
13082TIP3    H260662   2.744   5.728   2.998  0.5736 -0.5677  0.1431
13083TIP3   OH260663   2.180   2.316  17.131  0.0531  0.3035 -0.0871
13083TIP3    H160664   2.258   2.354  17.091 -0.8480  1.3801 -0.8715
13083TIP3    H260665   2.119   2.389  17.139 -1.1279 -0.6576 -0.0963
13084TIP3   OH260666   1.057   4.151  10.371 -0.2062  0.5935 -0.6571
13084TIP3    H160667   1.147   4.151  10.338 -0.3635  0.6569 -1.0894
13084TIP3    H260668   1.003   4.125  10.297 -0.5257  0.3185 -0.3357
13085TIP3   OH260669   3.653   0.360   3.897 -0.0947 -0.3654 -0.0312
13085TIP3    H160670   3.690   0.381   3.982 -0.3666 -0.5934  0.1466
13085TIP3    H260671   3.726   0.327   3.845 -0.0612 -0.8831  0.3395
13086TIP3   OH260672   6.267   6.354   2.682  0.0523  0.2395  0.6679
13086TIP3    H160673   6.321   6.368   2.761  1.7084  1.8553 -0.6641
13086TIP3    H260674   6.326   6.372   2.609 -0.5654 -3.9341 -1.1622
13087TIP3   OH260675   6.457   0.766   6.006 -0.1583 -0.7534 -0.5355
13087TIP3    H160676   6.509   0.727   6.077  0.7312  0.2726 -0.5950
13087TIP3    H260677   6.450   0.697   5.941  1.9340 -0.6791 -0.9164
13088TIP3   OH260678   1.409   2.447  15.000  0.6361 -0.3835  0.0604
13088TIP3    H160679   1.477   2.494  14.952  1.3308  0.1714  1.5041
13088TIP3    H260680   1.349   2.515  15.029 -0.5520 -0.8711 -1.1772
13089TIP3   OH260681   1.326   5.817   1.189 -0.2045 -0.0576  0.6270
13089TIP3    H160682   1.294   5.737   1.148 -1.4885  1.0419 -0.6418
13089TIP3    H260683   1.255   5.843   1.249  0.4057 -0.1166  1.3797
13090TIP3   OH260684   5.772   2.651  15.561  0.1787 -0.2918  0.2899
13090TIP3    H160685   5.831   2.575  15.556  2.2699  1.2885 -0.7971
13090TIP3    H260686   5.725   2.650  15.478  1.2812  0.3602 -0.3721
13091TIP3   OH260687   3.954   1.409   3.953 -0.3062  0.0367  0.0318
13091TIP3    H160688   3.925   1.346   3.887  0.3412 -3.3992  2.7357
13091TIP3    H260689   3.876   1.428   4.005 -0.3244  0.8094 -0.2765
13092TIP3   OH260690   4.576   3.061   1.795  0.2587  0.0482  0.0180
13092TIP3    H160691   4.549   2.987   1.742 -1.4957  1.5788 -1.3551
13092TIP3    H260692   4.505   3.073   1.858  0.3421  0.7830 -0.0168
13093TIP3   OH260693   0.572   3.810  12.991  0.1325  0.0950  0.4722
13093TIP3    H160694   0.596   3.836  12.902  1.4597 -1.1125  0.4484
13093TIP3    H260695   0.604   3.882  13.046  3.0759 -0.9632  0.3361
13094TIP3   OH260696   0.813   0.541   3.584 -0.2831 -0.2343 -0.5683
13094TIP3    H160697   0.872   0.468   3.565  0.6589  0.7106 -1.4022
13094TIP3    H260698   0.840   0.573   3.670 -1.1736 -1.2969  0.1273
13095TIP3   OH260699   6.151   6.303  14.455  0.8038  0.2694  0.0294
13095TIP3    H160700   6.132   6.214  14.424 -0.6552  0.6826 -0.3575
13095TIP3    H260701   6.118   6.305  14.545  1.2666  0.2765  0.1972
13096TIP3   OH260702   3.397   5.071   6.019  0.4495 -0.7522 -0.4355
13096TIP3    H160703   3.364   5.145   6.071  0.5004  0.6427 -2.2942
13096TIP3    H260704   3.454   5.023   6.080 -0.5541  0.0056  1.1836
13097TIP3   OH260705   3.154   1.902  13.097  0.4138 -0.3299 -0.5585
13097TIP3    H160706   3.127   1.859  13.178  0.3687 -1.1041 -0.9801
13097TIP3    H260707   3.101   1.861  13.029  0.9718 -0.1957 -1.0815
13098TIP3   OH260708   1.437   1.373  13.891  0.1625 -0.2123 -0.0037
13098TIP3    H160709   1.401   1.303  13.836 -0.0428  1.0387 -1.5272
13098TIP3    H260710   1.402   1.454  13.853  0.0547  0.7265  1.9637
13099TIP3   OH260711   2.371   5.088   5.537  0.0947  0.3273  0.1693
13099TIP3    H160712   2.361   5.183   5.529 -0.4192  0.1554 -1.6029
13099TIP3    H260713   2.457   5.076   5.577 -0.4100  1.5481  1.7317
13100TIP3   OH260714   3.145   2.726   2.584  0.1492  0.5720 -0.3912
13100TIP3    H160715   3.169   2.752   2.674  0.1535 -0.7353  0.0025
13100TIP3    H260716   3.228   2.728   2.536  0.4033 -0.1406  0.0025
13101TIP3   OH260717   4.398   3.189  14.892 -0.1225 -0.7897 -0.7908
13101TIP3    H160718   4.455   3.137  14.950 -0.7346 -0.3951  0.1996
13101TIP3    H260719   4.453   3.261  14.862  0.0038 -0.5925 -0.1019
13102TIP3   OH260720   2.199   1.845   2.932  0.3787 -0.3716 -0.0036
13102TIP3    H160721   2.139   1.783   2.974 -0.8331  0.5477 -0.3293
13102TIP3    H260722   2.144   1.918   2.906  1.4180 -0.0708 -1.5034
13103TIP3   OH260723   4.098   6.367   3.982 -1.0667  0.1138  0.0010
13103TIP3    H160724   4.017   6.404   3.949 -0.6624  0.5152 -0.5673
13103TIP3    H260725   4.135   6.436   4.037 -1.8987 -0.6741  1.5995
13104TIP3   OH260726   0.574   0.035  11.553 -0.3094  0.3395  0.7018
13104TIP3    H160727   0.525   0.001  11.628 -0.2266  0.7453  0.9462
13104TIP3    H260728   0.640  -0.031  11.534 -2.6629 -1.5960 -1.4014
13105TIP3   OH260729   1.185   2.977  15.159 -0.4503  0.6009 -0.1955
13105TIP3    H160730   1.108   3.032  15.141 -1.2184 -0.0796  0.8628
13105TIP3    H260731   1.183   2.910  15.091 -1.8953 -0.5002  0.8653
13106TIP3   OH260732   5.482   1.255   2.108  0.3706 -0.0386 -0.4920
13106TIP3    H160733   5.513   1.271   2.197 -0.6111  1.6899 -0.4148
13106TIP3    H260734   5.559   1.225   2.060  1.3767  0.9392  0.4675
13107TIP3   OH260735   3.944   2.918  12.632  0.7820  0.3349 -0.1430
13107TIP3    H160736   3.888   2.984  12.591 -2.8610 -0.7554  2.4713
13107TIP3    H260737   3.996   2.967  12.696  2.2031  1.2403 -1.8970
13108TIP3   OH260738   5.576   5.874   3.782  0.0453  0.3120  0.0041
13108TIP3    H160739   5.603   5.864   3.690 -0.6184 -1.0589 -0.0574
13108TIP3    H260740   5.485   5.903   3.777 -0.1372 -0.2235  0.2344
13109TIP3   OH260741   6.093   4.203  12.957  0.0527 -0.2182 -0.2844
13109TIP3    H160742   6.113   4.120  12.913  1.3613 -1.0526  1.7375
13109TIP3    H260743   6.118   4.188  13.048 -1.8839  1.6545  0.6291
13110TIP3   OH260744   5.410   6.256  13.476  0.2238 -0.1812  0.2049
13110TIP3    H160745   5.327   6.303  13.470 -0.2018 -1.0215 -0.7798
13110TIP3    H260746   5.392   6.169  13.440  1.2504 -0.7663  1.0184
13111TIP3   OH260747   4.242   0.880  12.919  0.3933  0.1415 -0.4075
13111TIP3    H160748   4.252   0.797  12.872  0.6114 -1.4579  2.2270
13111TIP3    H260749   4.225   0.854  13.010 -0.8800  3.0062  0.2956
13112TIP3   OH260750   1.669   2.553   6.432  0.0786 -0.1392 -0.7846
13112TIP3    H160751   1.615   2.580   6.506 -1.5451  0.6683 -2.2108
13112TIP3    H260752   1.673   2.458   6.439 -0.4167 -0.1036  0.0904
13113TIP3   OH260753   2.942   6.697   3.613 -0.6088  0.0461  1.0452
13113TIP3    H160754   2.966   6.781   3.573 -0.6119 -0.1596  0.6009
13113TIP3    H260755   2.964   6.707   3.706  0.1574  0.2554  0.8530
13114TIP3   OH260756   6.399   0.628   1.943  0.3415 -0.3555 -0.4405
13114TIP3    H160757   6.452   0.629   2.023 -0.9890 -0.2910  0.4762
13114TIP3    H260758   6.379   0.535   1.929 -0.2747 -0.2869 -0.0859
13115TIP3   OH260759   2.209   4.331   2.886  0.5743  0.2801  0.1855
13115TIP3    H160760   2.137   4.284   2.930  0.5100  0.7088  0.5410
13115TIP3    H260761   2.195   4.312   2.793  1.0597 -1.1223  0.3695
13116TIP3   OH260762   3.621   6.395   1.237 -0.1341  0.1146 -0.4063
13116TIP3    H160763   3.598   6.365   1.325 -1.5541  1.2273 -0.3612
13116TIP3    H260764   3.704   6.351   1.218 -0.0938 -0.6121  1.2407
13117TIP3   OH260765   0.372   1.374  12.599  0.0286 -0.1222 -0.5221
13117TIP3    H160766   0.432   1.440  12.564 -0.0614 -0.5663 -1.5644
13117TIP3    H260767   0.286   1.403  12.570  0.1083 -1.3735 -2.1975
13118TIP3   OH260768   5.047   3.707   4.544 -0.3299 -0.2482 -0.2598
13118TIP3    H160769   5.073   3.753   4.464 -1.1045  1.1403  0.2597
13118TIP3    H260770   5.102   3.628   4.545  1.7340  1.0934 -0.7077
13119TIP3   OH260771   5.592   1.294   4.417  0.0702 -0.2022 -0.6849
13119TIP3    H160772   5.519   1.234   4.406 -0.0265  0.1165 -1.9298
13119TIP3    H260773   5.595   1.312   4.511 -0.5381 -1.3352 -0.4378
13120TIP3   OH260774   3.710   6.735  16.067  0.4175  0.3403  0.6587
13120TIP3    H160775   3.745   6.691  15.989 -2.0340 -1.3772  0.4156
13120TIP3    H260776   3.663   6.811  16.031  0.1389  0.1203  0.5545
13121TIP3   OH260777   1.465   3.378  14.443  0.4227  0.0830  0.3925
13121TIP3    H160778   1.491   3.449  14.501  1.6517 -0.7561  0.8948
13121TIP3    H260779   1.542   3.322  14.436  0.4234  0.2606 -2.2599
13122TIP3   OH260780   1.732   0.439   2.132 -0.4044 -0.1665  0.2232
13122TIP3    H160781   1.783   0.458   2.211  0.4612  0.2081 -0.4143
13122TIP3    H260782   1.669   0.373   2.161 -0.1536  0.0158  1.2479
13123TIP3   OH260783   2.320   4.041   0.172  0.6082 -0.2817  0.4891
13123TIP3    H160784   2.231   4.041   0.137  0.5626  2.1930  0.4176
13123TIP3    H260785   2.375   4.065   0.097  0.8847  1.7026  1.2536
13124TIP3   OH260786   2.443   4.747  15.660  0.3862  0.1561  0.1706
13124TIP3    H160787   2.488   4.670  15.628  1.0743  0.6805 -0.1278
13124TIP3    H260788   2.472   4.756  15.751 -3.3490 -2.7233  1.9477
13125TIP3   OH260789   6.470   0.544  16.179  0.4485  0.2879 -0.0343
13125TIP3    H160790   6.422   0.540  16.261 -0.7790  0.6875 -0.7046
13125TIP3    H260791   6.402   0.553  16.112  1.3722 -0.7935 -1.1593
13126TIP3   OH260792   6.064   4.184   1.421 -0.3574 -0.3238  0.8352
13126TIP3    H160793   6.136   4.194   1.358  0.6881 -0.9050  1.8792
13126TIP3    H260794   6.056   4.270   1.462 -1.0118  0.0433 -0.0455
13127TIP3   OH260795   3.834   6.409   6.153 -0.1382 -0.1894 -0.1884
13127TIP3    H160796   3.880   6.418   6.236  0.9453  1.9173 -0.9542
13127TIP3    H260797   3.876   6.334   6.110 -0.2715 -0.8790  0.8456
13128TIP3   OH260798   0.052   1.564   3.808 -0.1053 -0.2723  0.1504
13128TIP3    H160799   0.060   1.626   3.880 -0.4876  2.0634 -1.6751
13128TIP3    H260800   0.029   1.618   3.732 -0.4621 -2.6752 -1.5886
13129TIP3   OH260801   3.175   5.110   2.554 -0.1777  0.3259 -0.0096
13129TIP3    H160802   3.207   5.179   2.496 -0.6371  0.3736 -0.2187
13129TIP3    H260803   3.115   5.059   2.499  0.9854 -0.9159 -0.1894
13130TIP3   OH260804   2.698   2.595  15.136  0.6303  0.0859 -0.1731
13130TIP3    H160805   2.700   2.569  15.229  0.7575 -1.4069 -0.5586
13130TIP3    H260806   2.610   2.631  15.123 -0.7468 -2.9767 -0.2416
13131TIP3   OH260807   1.692   5.248  11.076 -0.8617 -0.0309 -0.8025
13131TIP3    H160808   1.613   5.294  11.104 -0.3304  0.5341 -0.2016
13131TIP3    H260809   1.692   5.167  11.126 -1.2721 -0.2275 -1.1132
13132TIP3   OH260810   4.473   5.416   0.718  0.1122 -0.6145 -0.0509
13132TIP3    H160811   4.541   5.449   0.776  1.7153 -3.0162 -0.4202
13132TIP3    H260812   4.417   5.492   0.700  2.5175  1.3947  0.4921
13133TIP3   OH260813   3.048   3.156  15.419 -0.2448 -0.8100 -0.6710
13133TIP3    H160814   3.066   3.111  15.502  1.0914 -0.6304 -0.8282
13133TIP3    H260815   2.998   3.234  15.443  2.7108  0.9073  0.4235
13134TIP3   OH260816   2.015   3.809  15.731  0.3125  0.0385  0.2487
13134TIP3    H160817   2.019   3.730  15.677  0.8335 -0.0353  0.3903
13134TIP3    H260818   2.103   3.847  15.724  0.1291  0.4825  0.3613
13135TIP3   OH260819   4.826   2.934   5.187 -0.8149  0.4685  0.1773
13135TIP3    H160820   4.757   2.979   5.138  0.6195  1.0744 -1.4276
13135TIP3    H260821   4.906   2.981   5.164  0.3368 -1.0686  0.8211
13136TIP3   OH260822   3.005   4.527  13.817 -0.2861  0.2850 -0.4348
13136TIP3    H160823   2.960   4.548  13.899 -1.0236 -2.5716 -0.0154
13136TIP3    H260824   3.063   4.455  13.840 -0.5211 -0.5809 -2.4324
13137TIP3   OH260825   0.996   5.134   3.263  0.0696 -0.9190 -0.8845
13137TIP3    H160826   1.041   5.057   3.227  0.0745  0.0366 -3.0919
13137TIP3    H260827   1.034   5.208   3.214 -0.5135  0.4034  0.6096
13138TIP3   OH260828   3.981   1.201   1.876  0.0153  0.2042 -0.1131
13138TIP3    H160829   3.887   1.212   1.887  0.0280 -0.0661  0.2897
13138TIP3    H260830   4.008   1.148   1.951  0.2137 -1.1596 -1.1079
13139TIP3   OH260831   2.944   3.170   3.909  0.8228 -0.2167 -0.2002
13139TIP3    H160832   2.956   3.254   3.952 -1.0210 -1.4682  3.1457
13139TIP3    H260833   3.025   3.122   3.927  0.6410 -0.2206  0.6331
13140TIP3   OH260834   1.795   2.150   1.016  0.0221 -0.2047  0.1556
13140TIP3    H160835   1.798   2.244   0.998  0.6278 -0.3621 -0.6633
13140TIP3    H260836   1.752   2.112   0.939  1.1094 -0.7324 -0.2242
13141TIP3   OH260837   5.084   6.273  11.384  0.2566  0.0107  0.4300
13141TIP3    H160838   5.156   6.298  11.326  0.7556 -2.6060 -0.2201
13141TIP3    H260839   5.127   6.234  11.460 -0.4629  0.7751  1.2525
13142TIP3   OH260840   3.837   1.157   5.323  0.5475  0.0772 -0.0430
13142TIP3    H160841   3.848   1.091   5.391  1.3650 -1.5574 -1.6548
13142TIP3    H260842   3.926   1.181   5.297  0.2537  1.3869  0.0833
13143TIP3   OH260843   6.663   4.165  11.713  0.2148 -0.3938  0.0472
13143TIP3    H160844   6.668   4.088  11.769  0.7101 -0.7150 -0.4311
13143TIP3    H260845   6.572   4.166  11.683 -0.3161  0.3368  1.6089
13144TIP3   OH260846   6.528   0.448   2.767 -0.0765  0.4243  0.1258
13144TIP3    H160847   6.460   0.394   2.727 -0.9518  0.5564  1.3598
13144TIP3    H260848   6.600   0.387   2.784  0.1333  0.2789 -1.1659
13145TIP3   OH260849   0.282   2.616   1.651 -0.8693 -0.5531 -0.3339
13145TIP3    H160850   0.215   2.637   1.716 -2.0555 -0.2847 -1.5992
13145TIP3    H260851   0.328   2.699   1.636 -1.2665 -0.3757 -0.5797
13146TIP3   OH260852   3.885   4.346   3.002  0.3416 -0.2216 -0.4268
13146TIP3    H160853   3.797   4.351   3.039  1.1342 -0.5632  1.6537
13146TIP3    H260854   3.876   4.291   2.924 -1.5355  1.1108 -1.2065
13147TIP3   OH260855   6.188   5.711   5.063 -0.6061 -0.2423  0.1005
13147TIP3    H160856   6.120   5.736   5.000 -2.0972 -0.1835  1.6664
13147TIP3    H260857   6.223   5.794   5.095  0.6616 -0.2689 -1.1148
13148TIP3   OH260858   5.372   6.347   0.021  0.3438 -0.3534  0.7818
13148TIP3    H160859   5.277   6.342   0.012  0.4369 -0.2592 -0.6267
13148TIP3    H260860   5.405   6.299  -0.055  1.3945  0.8079  0.4742
13149TIP3   OH260861   5.757   1.017  15.119  0.9076 -0.0326 -0.2366
13149TIP3    H160862   5.701   1.048  15.190  1.6102  2.2926 -0.6177
13149TIP3    H260863   5.823   0.963  15.163  1.9393  2.1815  1.1070
13150TIP3   OH260864   3.754   5.407  15.534 -0.3536 -0.0659 -0.0779
13150TIP3    H160865   3.696   5.375  15.603  0.7240  0.1533  0.9882
13150TIP3    H260866   3.737   5.501  15.531  2.6562  0.8449  3.1857
13151TIP3   OH260867   4.668   1.145  12.310 -0.4786  0.4964 -0.5072
13151TIP3    H160868   4.625   1.141  12.225 -0.4197  2.6710 -0.6896
13151TIP3    H260869   4.602   1.182  12.369  0.4438  1.9464 -0.3363
13152TIP3   OH260870   4.192   2.948  13.984  0.6056 -0.0351  0.2461
13152TIP3    H160871   4.109   2.904  14.006 -0.2869  1.4306 -0.0448
13152TIP3    H260872   4.251   2.923  14.054 -0.5816  0.2121  1.3723
13153TIP3   OH260873   3.067   3.018   2.741 -0.3157  0.0779 -0.7933
13153TIP3    H160874   3.002   2.948   2.735  0.5149 -0.8304  0.4556
13153TIP3    H260875   3.015   3.097   2.758 -1.0852 -0.7521  0.9487
13154TIP3   OH260876   2.951   3.367  13.879  0.4190  0.0094  0.3602
13154TIP3    H160877   3.041   3.360  13.846  0.7345 -1.0272  1.3881
13154TIP3    H260878   2.961   3.381  13.974 -0.5032 -2.0184  0.8038
13155TIP3   OH260879   0.687   5.512  15.194 -0.1268  0.5683 -0.5204
13155TIP3    H160880   0.751   5.445  15.219  1.0656  0.9199 -2.4075
13155TIP3    H260881   0.602   5.472  15.212  0.5812 -0.6882  0.1996
13156TIP3   OH260882   4.300   1.281   4.669 -1.0268 -0.6850 -0.9522
13156TIP3    H160883   4.376   1.293   4.725 -1.3695 -0.7845 -0.4639
13156TIP3    H260884   4.227   1.265   4.729 -1.4791 -0.3654 -1.4068
13157TIP3   OH260885   1.194   1.264   5.917 -0.0876  0.3984  0.1632
13157TIP3    H160886   1.263   1.247   5.853 -1.1397 -1.6475 -0.5495
13157TIP3    H260887   1.127   1.312   5.868 -0.0590  0.5282  0.2532
13158TIP3   OH260888   1.118   4.689   3.201 -0.4024  0.6932  1.0620
13158TIP3    H160889   1.154   4.601   3.211 -0.7646  0.5392  1.0150
13158TIP3    H260890   1.138   4.713   3.111  0.1833  0.8811  1.2343
13159TIP3   OH260891   6.752   1.219  11.995  0.7890  0.7297  0.2414
13159TIP3    H160892   6.686   1.183  11.936 -0.5289  0.2702  1.9262
13159TIP3    H260893   6.835   1.183  11.964 -0.0286 -0.5523 -0.5315
13160TIP3   OH260894   3.082   2.017  12.065 -0.1314 -0.2177 -0.1004
13160TIP3    H160895   2.995   2.015  12.105  0.9657 -2.3317  2.4527
13160TIP3    H260896   3.075   1.959  11.990 -0.6432 -1.5068  0.8952
13161TIP3   OH260897   5.956   0.025  10.688 -0.1163 -0.1420 -0.0989
13161TIP3    H160898   6.022   0.094  10.685 -0.5766  0.3735  0.8625
13161TIP3    H260899   5.873   0.071  10.694 -0.5732 -0.7829 -1.1471
13162TIP3   OH260900   2.140   5.019   0.769 -0.2479  1.0735  0.1528
13162TIP3    H160901   2.198   4.962   0.819 -0.5163  1.8862  1.4229
13162TIP3    H260902   2.131   5.098   0.823 -2.3496  1.0694 -0.1226
13163TIP3   OH260903   6.601   2.653  11.117 -0.0891  0.3575 -0.3852
13163TIP3    H160904   6.648   2.736  11.119  0.9948 -0.2504  0.9888
13163TIP3    H260905   6.646   2.602  11.049  2.3951 -0.7818  1.9157
13164TIP3   OH260906   2.748   2.950   6.694  0.5181 -0.1588 -0.0676
13164TIP3    H160907   2.831   2.919   6.730  0.5144 -0.8538 -0.6323
13164TIP3    H260908   2.750   3.045   6.708  1.5542 -0.1232 -0.3584
13165TIP3   OH260909   4.841   3.599   4.687 -0.3028 -0.5204  0.3339
13165TIP3    H160910   4.866   3.508   4.672  0.4549 -0.1767 -0.6052
13165TIP3    H260911   4.911   3.650   4.646  0.4027  0.5261  2.6694
13166TIP3   OH260912   1.814   5.523   3.840  0.1412  0.2567 -0.7805
13166TIP3    H160913   1.826   5.589   3.772  1.6813  0.3634 -0.4265
13166TIP3    H260914   1.870   5.552   3.912  1.0966 -1.6052 -0.7283
13167TIP3   OH260915   3.115   5.626  12.298  0.5115  0.0046 -0.5001
13167TIP3    H160916   3.142   5.535  12.308  0.9249  0.1436 -0.3301
13167TIP3    H260917   3.189   5.677  12.333 -0.6746  0.3731  1.6719
13168TIP3   OH260918   1.374   1.212  14.556  0.5702  0.2584  0.0391
13168TIP3    H160919   1.325   1.273  14.612  2.7961  3.3556 -1.1007
13168TIP3    H260920   1.466   1.230  14.575  1.4608 -4.3587  1.0989
13169TIP3   OH260921   2.264   4.608   1.551 -0.0837 -0.2019 -0.3242
13169TIP3    H160922   2.328   4.593   1.481  1.6946 -0.8705  1.3465
13169TIP3    H260923   2.304   4.675   1.606 -0.9068 -0.4952  0.6613
13170TIP3   OH260924   0.535   6.144   5.683  0.0468 -0.2132 -0.1619
13170TIP3    H160925   0.607   6.112   5.628  1.3797  1.0769  0.7618
13170TIP3    H260926   0.562   6.232   5.710 -2.7280  1.1097 -1.2742
13171TIP3   OH260927   6.035   2.414  11.283 -0.5763  0.4054  0.3422
13171TIP3    H160928   6.062   2.340  11.337 -0.2657 -0.2930 -0.7435
13171TIP3    H260929   6.050   2.491  11.339 -0.1471 -0.2823  1.1956
13172TIP3   OH260930   1.982   4.176   1.107 -0.2817  0.3988  0.5768
13172TIP3    H160931   2.004   4.240   1.039  0.7276  0.4763  0.9572
13172TIP3    H260932   1.901   4.210   1.147 -0.9125  0.3191 -0.6084
13173TIP3   OH260933   3.633   2.507  15.722 -0.8726  0.2634  0.1051
13173TIP3    H160934   3.644   2.499  15.817  0.1060  0.4962  0.0282
13173TIP3    H260935   3.581   2.431  15.697  0.9242 -1.1564  0.5128
13174TIP3   OH260936   1.218   3.147   6.025 -0.1303  0.1551  0.3909
13174TIP3    H160937   1.230   3.052   6.027 -0.1519  0.1604  0.7689
13174TIP3    H260938   1.177   3.164   5.940 -1.7052 -0.3512  1.0273
13175TIP3   OH260939   6.353   1.069   4.308  0.1421  0.3353  0.1304
13175TIP3    H160940   6.401   1.150   4.325  1.1058 -0.3980  0.9980
13175TIP3    H260941   6.262   1.097   4.299  0.4453  1.5028  0.5015
13176TIP3   OH260942   0.347   4.690   2.465  0.2490  0.2991 -0.2390
13176TIP3    H160943   0.367   4.707   2.373 -0.6240 -0.9017 -0.6874
13176TIP3    H260944   0.256   4.661   2.464 -0.4692  2.2887  1.2924
13177TIP3   OH260945   0.708   5.889  15.707  0.4057 -0.5626  0.2399
13177TIP3    H160946   0.646   5.817  15.717  1.8197 -1.6119  1.9356
13177TIP3    H260947   0.763   5.862  15.633 -0.7224  0.1015 -0.8887
13178TIP3   OH260948   2.693   3.057   3.961  0.3965 -0.0221 -0.1798
13178TIP3    H160949   2.759   3.113   3.919  0.7559 -0.9399 -0.8588
13178TIP3    H260950   2.673   3.102   4.043  2.0259  0.1645  0.1480
13179TIP3   OH260951   0.355   1.454   2.409  0.7653  0.2365  0.4773
13179TIP3    H160952   0.363   1.360   2.423  2.4711  0.2958  0.1239
13179TIP3    H260953   0.267   1.465   2.372  0.5194 -1.2016  0.5604
13180TIP3   OH260954   4.534   5.328  13.408  0.3070  0.7916 -0.1065
13180TIP3    H160955   4.482   5.386  13.464 -1.0346  0.3285 -0.8351
13180TIP3    H260956   4.555   5.253  13.464 -1.3757  0.1388 -0.3039
13181TIP3   OH260957   2.882   2.781   2.981  0.2744  0.1720  0.3148
13181TIP3    H160958   2.875   2.794   2.887 -0.3744 -1.1692  0.1609
13181TIP3    H260959   2.843   2.860   3.019 -1.4543 -0.2061 -0.5661
13182TIP3   OH260960   4.518   6.033  11.321 -1.1302  0.4451 -0.1604
13182TIP3    H160961   4.585   6.050  11.255 -0.7732 -0.8714 -0.1756
13182TIP3    H260962   4.437   6.065  11.282 -1.3949 -2.4623 -2.3945
13183TIP3   OH260963   6.397   1.490  14.273  0.0308 -0.4335 -0.0880
13183TIP3    H160964   6.404   1.415  14.214 -3.1891 -1.2080  0.3118
13183TIP3    H260965   6.302   1.504  14.283  0.4635  3.3631  0.2978
13184TIP3   OH260966   6.707   3.105   1.741  0.1452  0.1743 -0.5452
13184TIP3    H160967   6.710   3.009   1.747  2.0313  0.0191 -2.5885
13184TIP3    H260968   6.710   3.134   1.832  0.6891 -1.7107  0.0911
13185TIP3   OH260969   6.528   4.077   2.879 -0.1073 -0.0300  0.0640
13185TIP3    H160970   6.526   4.172   2.895 -0.8388 -0.0630  0.2046
13185TIP3    H260971   6.611   4.048   2.916 -0.5068  0.3419  1.2986
13186TIP3   OH260972   5.518   3.899  13.087  0.5370 -0.7924  0.9997
13186TIP3    H160973   5.454   3.863  13.026  0.9025  1.2938 -0.7677
13186TIP3    H260974   5.468   3.957  13.144  0.4845 -1.1816  1.3508
13187TIP3   OH260975   0.334   2.783  15.302 -0.7687 -0.0024  0.3168
13187TIP3    H160976   0.262   2.839  15.274 -1.4922 -1.9110 -1.9812
13187TIP3    H260977   0.400   2.792  15.233  0.2184 -0.0514  1.2203
13188TIP3   OH260978   5.280   6.047   0.894  0.2839 -0.1968 -0.4718
13188TIP3    H160979   5.256   6.101   0.969 -0.7887  0.0995 -1.0132
13188TIP3    H260980   5.359   6.089   0.858 -1.2246  1.8093 -1.6292
13189TIP3   OH260981   3.976   0.963  14.246  0.2767 -0.4425  0.1849
13189TIP3    H160982   3.954   0.984  14.337 -0.3972  0.3025 -0.1351
13189TIP3    H260983   3.906   1.003  14.195  2.4010  2.1597 -0.9141
13190TIP3   OH260984   6.325   4.455   3.432 -0.2905 -0.3187 -0.0493
13190TIP3    H160985   6.254   4.401   3.468 -1.4585  0.0361 -1.7041
13190TIP3    H260986   6.281   4.513   3.370  1.1535  1.4800  0.5253
13191TIP3   OH260987   6.698   1.950  16.753  0.6549  0.4328 -0.4705
13191TIP3    H160988   6.649   1.936  16.672  1.4288 -0.1353 -0.8516
13191TIP3    H260989   6.777   1.996  16.725  1.7087 -1.2085 -0.2785
13192TIP3   OH260990   0.921   6.405  12.673 -0.0838 -1.2451  0.4546
13192TIP3    H160991   0.830   6.429  12.656  0.0743 -0.5498  0.5510
13192TIP3    H260992   0.957   6.480  12.720  0.7545 -1.1766 -0.2714
13193TIP3   OH260993   5.259   4.275   1.731  0.1300 -0.2368  0.0515
13193TIP3    H160994   5.307   4.345   1.775  0.5706  0.5667 -1.6242
13193TIP3    H260995   5.285   4.282   1.639 -1.9627 -0.8174 -0.6353
13194TIP3   OH260996   0.305   2.939   2.061 -0.6969  0.2507  0.0105
13194TIP3    H160997   0.399   2.954   2.074 -0.1716 -1.6554 -1.2242
13194TIP3    H260998   0.290   2.959   1.969 -1.1226 -1.1015 -0.2359
13195TIP3   OH260999   5.515   6.743  13.422  0.3234  0.4943  0.6525
13195TIP3    H161000   5.603   6.706  13.429  0.0205 -0.8281 -1.4533
13195TIP3    H261001   5.522   6.829  13.462  2.0677 -0.3296  2.2559
13196TIP3   OH261002   3.112   1.641   4.177 -0.2708  0.3530  0.6624
13196TIP3    H161003   3.183   1.698   4.209  0.9267 -0.6967 -0.0299
13196TIP3    H261004   3.054   1.631   4.252  0.7195  0.6220  1.4899
13197TIP3   OH261005   3.927   3.032   1.495  0.2559 -0.1096 -0.7478
13197TIP3    H161006   3.942   2.940   1.518 -0.7065 -0.5173 -1.6914
13197TIP3    H261007   3.834   3.037   1.476  0.2900  1.0879 -0.6475
13198TIP3   OH261008   3.829   0.486  14.890 -0.9780 -0.0270 -0.1653
13198TIP3    H161009   3.761   0.553  14.884 -0.0026  1.1397  0.9855
13198TIP3    H261010   3.911   0.535  14.881 -0.1792 -0.8426  1.8689
13199TIP3   OH261011   1.015   5.056  15.190 -0.1495  0.4379 -0.2984
13199TIP3    H161012   0.996   4.979  15.243  0.6389 -0.1274 -0.8123
13199TIP3    H261013   1.110   5.051  15.175 -0.2498  0.9831 -1.1492
13200TIP3   OH261014   5.909   2.714   4.129 -0.4387 -0.4175  0.4674
13200TIP3    H161015   5.992   2.697   4.085 -1.1788 -1.6718 -0.5149
13200TIP3    H261016   5.916   2.805   4.160  1.0766 -0.3349 -0.0366
13201TIP3   OH261017   0.187   3.912   4.879 -0.0690 -0.1353  0.0692
13201TIP3    H161018   0.214   3.821   4.874 -0.2333 -0.1106 -2.1432
13201TIP3    H261019   0.097   3.913   4.846  0.5587  1.0388 -1.7238
13202TIP3   OH261020   0.354   3.728   3.762 -0.1208  0.0199  0.0781
13202TIP3    H161021   0.416   3.746   3.691 -0.6622 -0.9722 -0.6746
13202TIP3    H261022   0.297   3.660   3.727 -1.5190  0.7643  0.8271
13203TIP3   OH261023   4.249   6.124   3.965 -0.4309  0.1275 -0.2067
13203TIP3    H161024   4.188   6.195   3.946 -1.0259 -0.0446  0.9550
13203TIP3    H261025   4.293   6.106   3.881 -2.1391  0.0988 -1.1294
13204TIP3   OH261026   2.262   5.809   4.046  0.3384  0.3046  0.4415
13204TIP3    H161027   2.227   5.856   3.970  0.6080  1.0096  0.7486
13204TIP3    H261028   2.252   5.871   4.119  1.7184  0.3148  0.6442
13205TIP3   OH261029   0.700   1.740   4.502 -0.0968 -0.8935  0.0359
13205TIP3    H161030   0.794   1.719   4.500  0.2860  0.4437  1.3923
13205TIP3    H261031   0.686   1.774   4.590 -1.6892 -0.3191 -0.4124
13206TIP3   OH261032   6.717   4.106  17.258 -0.2081  0.1633 -0.0703
13206TIP3    H161033   6.740   4.026  17.304 -1.1760  0.5183  1.0775
13206TIP3    H261034   6.731   4.086  17.165 -2.5670 -2.1349 -0.0425
13207TIP3   OH261035   4.336   2.775  13.294 -0.6103  0.2480 -0.1994
13207TIP3    H161036   4.270   2.827  13.339  0.8728  0.8662  1.3854
13207TIP3    H261037   4.332   2.689  13.336 -0.9980  0.0148 -0.7099
13208TIP3   OH261038   5.167   5.491  16.458  0.2680 -0.5581 -0.3007
13208TIP3    H161039   5.243   5.490  16.516  0.0302 -0.1839  0.0194
13208TIP3    H261040   5.204   5.508  16.371  0.5622 -0.4902 -0.1647
13209TIP3   OH261041   5.086   5.160  15.648  0.3450 -0.0754 -0.3522
13209TIP3    H161042   5.037   5.078  15.655 -0.3827  0.3336 -0.6293
13209TIP3    H261043   5.088   5.179  15.555 -0.5481  0.8561 -0.1920
13210TIP3   OH261044   4.309   1.684   1.825 -0.5999  0.3500 -0.2888
13210TIP3    H161045   4.299   1.591   1.802  1.5021 -0.0662  0.2300
13210TIP3    H261046   4.291   1.688   1.919  0.0426  0.3177 -0.1603
13211TIP3   OH261047   4.153   6.276  13.969  0.1641  0.0554 -0.2644
13211TIP3    H161048   4.200   6.338  14.024  1.9163  0.0143 -1.6258
13211TIP3    H261049   4.146   6.197  14.023  0.7600  0.4050  0.3381
13212TIP3   OH261050   0.049   2.458   5.252 -0.6622  0.0128  0.1446
13212TIP3    H161051  -0.011   2.532   5.255 -0.6071  0.0527  0.3345
13212TIP3    H261052   0.014   2.396   5.316 -0.7816 -0.1827 -0.1116
13213TIP3   OH261053   5.912   6.243  13.881  0.4427 -0.4197  0.1940
13213TIP3    H161054   5.908   6.268  13.789  0.8630 -0.7624  0.0734
13213TIP3    H261055   5.867   6.159  13.885 -0.9158  0.2972  0.5846
13214TIP3   OH261056   1.602   4.495  16.807  0.0675 -0.0252 -0.3164
13214TIP3    H161057   1.694   4.495  16.782  0.2014 -0.8073  0.1356
13214TIP3    H261058   1.600   4.452  16.893 -0.5999  0.8856  0.1517
13215TIP3   OH261059   4.249   6.593  11.946 -0.2353 -0.2743 -0.2897
13215TIP3    H161060   4.172   6.647  11.964 -0.0052  0.6039 -1.7721
13215TIP3    H261061   4.323   6.654  11.953  0.0259 -0.3656 -1.9674
13216TIP3   OH261062   6.540   3.102  12.101 -0.3267 -0.1137 -0.6186
13216TIP3    H161063   6.446   3.097  12.084 -0.4535 -2.8324  0.3736
13216TIP3    H261064   6.576   3.025  12.057  1.3305  0.4024 -0.2301
13217TIP3   OH261065   4.311   4.055   2.193  0.5608 -0.0786  0.0508
13217TIP3    H161066   4.283   4.120   2.129 -0.1439 -1.0303 -0.6124
13217TIP3    H261067   4.405   4.073   2.205  0.3123  1.2586  0.1227
13218TIP3   OH261068   2.631   1.217  15.125  1.0386  0.1020  0.7120
13218TIP3    H161069   2.608   1.288  15.185  1.3595 -0.7845  1.9303
13218TIP3    H261070   2.612   1.137  15.175 -2.2768 -0.7887 -1.6736
13219TIP3   OH261071   6.073   6.099  13.552 -0.0069 -0.0183  0.4714
13219TIP3    H161072   6.098   6.154  13.479  0.3531  1.4328  1.6431
13219TIP3    H261073   5.997   6.143  13.591  0.2380 -0.3694  1.3864
13220TIP3   OH261074   2.343   5.127   4.622 -0.3759 -0.3294  0.1601
13220TIP3    H161075   2.263   5.122   4.675 -0.5956  0.4812 -0.0704
13220TIP3    H261076   2.337   5.053   4.562 -1.8555  0.6822 -1.0382
13221TIP3   OH261077   5.571   3.800   5.447  0.2109  0.1910 -0.0760
13221TIP3    H161078   5.660   3.836   5.442  0.9487 -1.1587  2.0448
13221TIP3    H261079   5.584   3.707   5.466 -1.6453  0.0768  0.8360
13222TIP3   OH261080   6.741   6.274   0.797  0.1965  0.0729  0.0300
13222TIP3    H161081   6.681   6.290   0.869 -0.0226  2.2079 -0.5311
13222TIP3    H261082   6.827   6.300   0.831  0.3582 -0.4432  0.0170
13223TIP3   OH261083   1.437   1.706   4.314  0.3339  0.5150  0.1940
13223TIP3    H161084   1.426   1.623   4.269 -0.7649 -0.8715  2.7911
13223TIP3    H261085   1.524   1.700   4.354 -0.3670 -0.1577  1.7075
13224TIP3   OH261086   2.671   6.444  17.115  0.5349  0.6014 -0.3326
13224TIP3    H161087   2.588   6.400  17.098  1.6508 -1.7852 -0.0758
13224TIP3    H261088   2.648   6.521  17.167 -1.5735  0.5162 -1.0717
13225TIP3   OH261089   4.015   5.445   5.795 -0.0224  0.1456 -0.1531
13225TIP3    H161090   3.963   5.518   5.829  1.0234  0.4682  0.8429
13225TIP3    H261091   4.081   5.487   5.739  0.4902 -0.0306  0.3035
13226TIP3   OH261092   5.455   0.647  13.630 -0.1392  0.0459  0.3051
13226TIP3    H161093   5.392   0.598  13.579 -0.0029  0.4188 -0.2295
13226TIP3    H261094   5.407   0.676  13.708 -0.6975  0.5275 -0.2078
13227TIP3   OH261095   6.666   3.239  13.753  0.1054 -0.2129 -0.3995
13227TIP3    H161096   6.583   3.283  13.772 -1.0286 -1.0158 -3.0018
13227TIP3    H261097   6.687   3.191  13.833 -1.9287  0.0430  0.3483
13228TIP3   OH261098   0.254   0.287   6.063 -0.3691  0.0826  0.7373
13228TIP3    H161099   0.247   0.220   6.132 -1.1783  0.3534  0.9301
13228TIP3    H261100   0.293   0.240   5.989  0.0439 -0.3411  1.2141
13229TIP3   OH261101   3.488   5.079   1.057 -0.5115  0.1876  0.0206
13229TIP3    H161102   3.410   5.122   1.021 -0.1564 -0.7839 -2.0998
13229TIP3    H261103   3.453   5.003   1.103 -0.8760  0.1809 -0.2549
13230TIP3   OH261104   1.057   2.121   2.872  0.1529  0.1535  0.1397
13230TIP3    H161105   1.016   2.065   2.807  2.4135 -0.5884 -0.7482
13230TIP3    H261106   1.079   2.201   2.824  0.7126  0.0969  0.2896
13231TIP3   OH261107   2.248   3.455  12.278 -0.1478  0.0728 -0.0693
13231TIP3    H161108   2.204   3.373  12.253  0.5436  0.0433 -1.2686
13231TIP3    H261109   2.224   3.467  12.370 -1.2495 -0.8384 -0.1992
13232TIP3   OH261110   4.747   4.671   3.816 -0.0812  0.1930 -0.4718
13232TIP3    H161111   4.660   4.630   3.813  0.0456 -0.2733  1.2821
13232TIP3    H261112   4.734   4.749   3.871  0.1131  1.4987 -2.1849
13233TIP3   OH261113   6.702   1.304   4.817 -0.0907 -0.4801 -0.1012
13233TIP3    H161114   6.729   1.384   4.773  0.1061 -1.0531 -1.0583
13233TIP3    H261115   6.745   1.307   4.902  0.5852  0.0425 -0.4498
13234TIP3   OH261116   1.109   3.380   1.899 -0.0679 -0.1738 -0.4907
13234TIP3    H161117   1.087   3.294   1.864 -0.1977 -0.7743  0.9921
13234TIP3    H261118   1.081   3.376   1.990  0.7186  1.1476 -0.1720
13235TIP3   OH261119   0.284   1.037  10.810  0.0371  0.4024  0.4967
13235TIP3    H161120   0.322   0.951  10.790  0.8750  0.4263  1.8965
13235TIP3    H261121   0.347   1.079  10.869 -0.6147  1.7753  0.2646
13236TIP3   OH261122   2.561   2.933  11.011  0.8855  0.4895  0.3203
13236TIP3    H161123   2.559   2.915  10.917  1.3090  0.7682  0.2584
13236TIP3    H261124   2.611   3.014  11.020  0.0903  0.9558  0.7104
13237TIP3   OH261125   5.978   4.363   1.622  0.1984 -0.2906 -0.4461
13237TIP3    H161126   6.014   4.421   1.690  2.1842  2.1117 -3.2839
13237TIP3    H261127   5.891   4.399   1.604  0.7009  0.7521 -0.9081
13238TIP3   OH261128   4.488   0.834   5.710  0.2377 -0.2006  0.4897
13238TIP3    H161129   4.547   0.798   5.776 -0.2940 -0.1544  0.9956
13238TIP3    H261130   4.535   0.822   5.627 -0.3262 -2.9783  0.4793
13239TIP3   OH261131   2.505   2.148   5.072  0.2854  0.3769 -0.2901
13239TIP3    H161132   2.459   2.066   5.089 -0.6836  0.5430 -1.8970
13239TIP3    H261133   2.564   2.159   5.147 -1.6118 -0.3311  1.3761
13240TIP3   OH261134   2.319   1.236  12.842  0.6160  0.0404 -0.4536
13240TIP3    H161135   2.254   1.179  12.882  0.8649  0.6302  0.8506
13240TIP3    H261136   2.359   1.183  12.773 -0.9220 -0.4680 -0.9820
13241TIP3   OH261137   1.848   6.527   3.669  0.5129  0.0932  0.9724
13241TIP3    H161138   1.909   6.455   3.678 -1.5896 -1.8953  0.2624
13241TIP3    H261139   1.793   6.504   3.594  0.7422  3.2350 -0.3074
13242TIP3   OH261140   4.575   0.818   6.497  0.2749  0.4835 -0.7040
13242TIP3    H161141   4.557   0.815   6.590  0.7994 -0.6655 -0.6221
13242TIP3    H261142   4.671   0.824   6.491  0.1631  2.6753 -1.1637
13243TIP3   OH261143   5.189   5.065   2.907 -0.1039  0.3596 -0.3229
13243TIP3    H161144   5.273   5.035   2.872 -0.1414  0.3765 -0.4262
13243TIP3    H261145   5.182   5.021   2.992  0.4714  1.1256  0.1405
13244TIP3   OH261146   1.208   1.093  12.453 -0.0815 -0.1191 -0.1017
13244TIP3    H161147   1.267   1.059  12.386  0.8168 -0.1527  0.6769
13244TIP3    H261148   1.234   1.047  12.533 -0.7818  0.2905  0.3705
13245TIP3   OH261149   6.658   4.779   4.084  0.1360 -0.1600 -0.1760
13245TIP3    H161150   6.637   4.862   4.127  0.9279  0.6347 -1.2408
13245TIP3    H261151   6.741   4.796   4.040 -0.4005 -1.0496 -1.6058
13246TIP3   OH261152   4.912   6.393  14.202 -0.3386  0.3949 -0.3242
13246TIP3    H161153   4.982   6.394  14.267  0.6388  2.0844 -1.3101
13246TIP3    H261154   4.942   6.331  14.135 -0.1731  0.4990 -0.3468
13247TIP3   OH261155   0.181   1.900  14.900 -0.5964 -0.0938  0.1979
13247TIP3    H161156   0.261   1.940  14.933 -0.4711  0.9990 -1.3209
13247TIP3    H261157   0.207   1.857  14.819 -1.3515 -0.5719  0.1991
13248TIP3   OH261158   2.579   1.755  16.219  0.3880 -0.1091  0.1191
13248TIP3    H161159   2.573   1.810  16.141 -0.6747  0.7596  0.7862
13248TIP3    H261160   2.517   1.683  16.202  0.2021  0.0465  0.1317
13249TIP3   OH261161   6.384   3.971  13.235  0.2135  0.0860  0.0644
13249TIP3    H161162   6.438   3.972  13.156 -2.3279  1.1588 -1.8016
13249TIP3    H261163   6.422   4.039  13.291  1.1664  0.3792 -0.9110
13250TIP3   OH261164   3.030   5.980  15.810 -0.3269  0.1870 -0.3711
13250TIP3    H161165   3.016   5.899  15.859  0.4611 -0.4522 -1.1556
13250TIP3    H261166   2.944   6.001  15.774 -1.4105  1.7583  2.7819
13251TIP3   OH261167   6.560   0.297   0.964 -0.1016  0.3352  0.8350
13251TIP3    H161168   6.600   0.258   0.886 -0.0083 -0.2944  1.1930
13251TIP3    H261169   6.518   0.377   0.931  1.3886  0.9912  0.4280
13252TIP3   OH261170   6.651   0.985  14.140 -0.3234  0.4797  0.1823
13252TIP3    H161171   6.726   0.951  14.190 -0.4067  0.0911  0.0477
13252TIP3    H261172   6.596   0.908  14.126 -0.6908  0.7445  0.1777
13253TIP3   OH261173   5.341   4.683   5.679 -0.4385  0.3133  0.1535
13253TIP3    H161174   5.430   4.719   5.679  0.2289 -1.1424 -1.4751
13253TIP3    H261175   5.341   4.619   5.750  0.2551 -0.5234 -0.5558
13254TIP3   OH261176   6.289   1.073   6.301 -0.0199  0.2992 -0.5613
13254TIP3    H161177   6.273   1.054   6.393  1.1770 -1.2785 -0.6459
13254TIP3    H261178   6.332   1.158   6.301 -2.1207  1.4221  0.1321
13255TIP3   OH261179   3.191   2.820   3.954  0.1524  0.6137 -0.3845
13255TIP3    H161180   3.232   2.755   4.012 -1.7648  2.0101  2.8414
13255TIP3    H261181   3.137   2.769   3.894 -0.1032 -0.8830  1.0467
13256TIP3   OH261182   6.131   0.409  13.232  0.1487 -0.1457 -0.7145
13256TIP3    H161183   6.147   0.328  13.281  1.7735  1.2499  1.2659
13256TIP3    H261184   6.210   0.420  13.179 -0.4241 -0.2454 -1.6045
13257TIP3   OH261185   6.036   1.603   0.313 -0.2954 -0.1673  0.3150
13257TIP3    H161186   5.969   1.611   0.381 -0.0926  0.8818  0.4054
13257TIP3    H261187   6.115   1.579   0.361  0.3029  2.3565  0.7619
13258TIP3   OH261188   3.233   1.728  11.448  0.3728 -0.8200 -0.1624
13258TIP3    H161189   3.320   1.743  11.485 -0.6730  1.1489  1.7637
13258TIP3    H261190   3.244   1.744  11.355  2.0560 -0.4491  0.0563
13259TIP3   OH261191   0.651   4.600  11.870 -0.5198  0.1974 -0.0475
13259TIP3    H161192   0.639   4.650  11.950 -1.5835  1.0978 -0.7291
13259TIP3    H261193   0.689   4.662  11.807  0.0530 -0.4172 -0.3205
13260TIP3   OH261194   1.813   0.943   5.516  0.0419  0.3789 -0.4062
13260TIP3    H161195   1.842   1.034   5.523 -1.5665  1.0319 -1.4771
13260TIP3    H261196   1.719   0.946   5.534  0.3206 -1.4444  1.7472
13261TIP3   OH261197   5.100   0.037   5.191 -0.3184  0.3254  0.8556
13261TIP3    H161198   5.084   0.097   5.118  1.6622  0.4980  0.4989
13261TIP3    H261199   5.029  -0.027   5.185 -2.0147  2.1357  0.7558
13262TIP3   OH261200   2.646   1.784  13.479 -0.7419  0.0375  0.1172
13262TIP3    H161201   2.662   1.835  13.400  0.2836 -1.5140 -0.7453
13262TIP3    H261202   2.726   1.793  13.530 -0.5714 -0.6448 -0.0209
13263TIP3   OH261203   3.285   3.601  16.259 -0.5489  0.3341  0.6525
13263TIP3    H161204   3.362   3.556  16.224  0.4671  1.4051  1.4144
13263TIP3    H261205   3.252   3.542  16.327 -0.9365 -0.5174 -0.2434
13264TIP3   OH261206   5.645   3.311   4.559  0.4971 -0.0419  0.3692
13264TIP3    H161207   5.562   3.263   4.563  0.1806  0.5546  1.4602
13264TIP3    H261208   5.712   3.243   4.564  0.0554 -0.4343  1.1697
13265TIP3   OH261209   4.653   3.337  13.227 -0.1275  0.0131 -0.1472
13265TIP3    H161210   4.658   3.248  13.193 -2.2862  0.4515 -1.8673
13265TIP3    H261211   4.568   3.369  13.197  0.5515  2.6388  0.4615
13266TIP3   OH261212   0.222   6.572  14.596  0.3926  0.5680 -0.3477
13266TIP3    H161213   0.233   6.643  14.659  1.5466  0.8677 -0.8623
13266TIP3    H261214   0.237   6.612  14.510  2.3435 -0.4936 -0.5760
13267TIP3   OH261215   5.272   2.125  15.792 -0.7137 -0.4513  0.1602
13267TIP3    H161216   5.358   2.110  15.830 -0.7034 -0.1593  0.2507
13267TIP3    H261217   5.237   2.200  15.840 -0.3834  0.4174 -0.9143
13268TIP3   OH261218   6.612   0.458  11.899  0.3690 -0.4721  0.0487
13268TIP3    H161219   6.694   0.428  11.940  0.8067 -0.5026 -0.8293
13268TIP3    H261220   6.584   0.384  11.845  1.2076  0.4626 -1.7669
13269TIP3   OH261221   4.826   2.229  14.502  0.1403  0.3690 -0.2170
13269TIP3    H161222   4.916   2.218  14.470  0.0876 -0.2686 -0.1452
13269TIP3    H261223   4.782   2.277  14.432  0.2111 -0.4163 -0.8148
13270TIP3   OH261224   1.922   0.279  14.543  0.5892  0.1613  0.6878
13270TIP3    H161225   1.862   0.306  14.613  0.9005 -1.0516  1.4440
13270TIP3    H261226   1.998   0.336  14.554 -0.6907  2.3382 -0.8272
13271TIP3   OH261227   2.240   6.157  14.140 -0.5270 -0.2763 -0.2678
13271TIP3    H161228   2.317   6.121  14.096 -0.7768 -1.2899  0.0970
13271TIP3    H261229   2.234   6.247  14.109  0.5551 -0.3221 -0.6264
13272TIP3   OH261230   6.162   3.121  11.878 -0.1404  0.3659 -0.2120
13272TIP3    H161231   6.204   3.036  11.865 -2.0346 -0.6569 -0.0804
13272TIP3    H261232   6.225   3.184  11.845  0.9691 -1.1584 -1.1562
13273TIP3   OH261233   4.789   6.476  11.776 -0.3498 -0.5664 -1.3696
13273TIP3    H161234   4.855   6.540  11.804  0.1565 -1.5482 -0.2149
13273TIP3    H261235   4.712   6.496  11.829  0.0579 -1.3773 -0.4619
13274TIP3   OH261236   0.805   2.068   2.271  0.1891 -0.2286 -0.2164
13274TIP3    H161237   0.755   2.010   2.214  1.5143 -0.9707 -0.6584
13274TIP3    H261238   0.865   2.114   2.212  1.6697 -1.0997  0.5637
13275TIP3   OH261239   6.308   3.254   2.633  0.4112 -0.6738 -0.7331
13275TIP3    H161240   6.343   3.313   2.567  0.4426 -0.2797 -0.3700
13275TIP3    H261241   6.221   3.230   2.600 -0.3011  0.8858 -0.1190
13276TIP3   OH261242   0.594   2.406   1.164  0.0866 -0.2154 -0.1340
13276TIP3    H161243   0.688   2.397   1.147  0.3586 -0.8565  1.5243
13276TIP3    H261244   0.580   2.500   1.170  0.4485 -0.0778 -1.2582
13277TIP3   OH261245   1.012   0.515  12.042  0.2139  0.3254 -0.5697
13277TIP3    H161246   0.926   0.487  12.010  0.3603  0.5272 -1.1485
13277TIP3    H261247   0.999   0.530  12.135 -0.1276 -0.6636 -0.4434
13278TIP3   OH261248   2.726   3.320   4.532  0.0733 -0.1187  0.5241
13278TIP3    H161249   2.800   3.377   4.511  0.3211 -0.4369  0.5287
13278TIP3    H261250   2.655   3.381   4.552  0.6070  0.2076  1.5176
13279TIP3   OH261251   2.722   4.823   0.446  0.0411 -0.1595 -0.2872
13279TIP3    H161252   2.778   4.889   0.406 -2.3029  2.4119  0.3598
13279TIP3    H261253   2.679   4.869   0.518 -2.8206 -1.9560 -0.7123
13280TIP3   OH261254   2.801   3.309   0.110  0.4896  0.0191  0.3538
13280TIP3    H161255   2.868   3.243   0.131  0.9290  1.0230  2.3678
13280TIP3    H261256   2.790   3.357   0.192 -1.2887  1.1513 -0.5211
13281TIP3   OH261257   1.930   2.623  13.289 -0.5025 -1.0905  0.1842
13281TIP3    H161258   1.854   2.569  13.269 -0.9424 -0.7673  0.9346
13281TIP3    H261259   1.938   2.619  13.384  0.0858 -0.6741  0.1566
13282TIP3   OH261260   1.363   6.253  11.313 -0.0584  0.6506 -0.4588
13282TIP3    H161261   1.385   6.287  11.226  0.7609  0.0599 -0.4976
13282TIP3    H261262   1.366   6.158  11.304  1.7134  0.5533  0.5783
13283TIP3   OH261263   4.003   3.387   1.982  0.5662  0.1874  0.2360
13283TIP3    H161264   3.998   3.293   1.966 -0.9181  0.5406 -1.7930
13283TIP3    H261265   4.081   3.416   1.934  0.1935  0.1839 -0.3857
13284TIP3   OH261266   0.637   6.509  10.438  0.3706  0.0083 -0.3479
13284TIP3    H161267   0.672   6.492  10.526  0.4086  1.9569  0.0627
13284TIP3    H261268   0.613   6.422  10.405  1.3011 -0.8832  1.1749
13285TIP3   OH261269   6.745   5.698  13.407  0.8501  0.2587 -0.1122
13285TIP3    H161270   6.812   5.767  13.410  0.2604  0.8526 -0.3503
13285TIP3    H261271   6.746   5.668  13.317  1.3168 -0.2645  0.0622
13286TIP3   OH261272   0.083   1.413   4.568 -0.1383  0.2300  0.4136
13286TIP3    H161273   0.147   1.480   4.594  0.4883  0.7622 -2.2250
13286TIP3    H261274   0.130   1.331   4.578  0.1158  0.4271  0.8589
13287TIP3   OH261275   1.734   2.501   0.046 -0.0338  1.2336  0.1838
13287TIP3    H161276   1.761   2.451   0.123  0.4559  0.2443 -0.6022
13287TIP3    H261277   1.808   2.492  -0.015 -0.2302  2.3495 -0.2534
13288TIP3   OH261278   2.069   0.426   5.251  0.5757  0.1304 -0.0280
13288TIP3    H161279   2.134   0.456   5.187 -1.0065  0.2503 -1.6435
13288TIP3    H261280   2.044   0.505   5.299  0.6521  0.3304 -0.3176
13289TIP3   OH261281   2.375   6.229   6.016  0.5719  0.0495  0.3726
13289TIP3    H161282   2.421   6.269   5.942  1.0108 -0.3371  0.4321
13289TIP3    H261283   2.396   6.284   6.091  1.3068 -0.3759  0.4852
13290TIP3   OH261284   5.376   6.244  13.968  0.4273 -0.3421  0.1247
13290TIP3    H161285   5.402   6.157  13.996 -0.5780 -0.9903 -0.8958
13290TIP3    H261286   5.456   6.283  13.932  1.0142 -0.6000  1.1291
13291TIP3   OH261287   1.603   3.826   5.419 -0.1373  0.9402 -0.0423
13291TIP3    H161288   1.651   3.744   5.429  0.8942  1.6214  0.9954
13291TIP3    H261289   1.598   3.841   5.325  2.4771  1.2271 -0.2171
13292TIP3   OH261290   2.907   0.589   3.004 -0.4677  0.4301 -0.4879
13292TIP3    H161291   2.926   0.526   3.074  0.6835  0.6061 -0.6155
13292TIP3    H261292   2.915   0.675   3.047 -1.4591  0.5179 -0.4493
13293TIP3   OH261293   2.920   4.340   2.272 -0.0583  0.4582  0.1318
13293TIP3    H161294   2.852   4.312   2.212 -1.5922  1.7587  1.1857
13293TIP3    H261295   2.986   4.270   2.268 -1.2598 -0.6599 -1.1751
13294TIP3   OH261296   4.554   6.250   1.649 -0.0775  0.2319 -0.1673
13294TIP3    H161297   4.499   6.327   1.629 -2.2686 -1.7244 -2.3884
13294TIP3    H261298   4.611   6.242   1.573 -0.7551 -1.0011 -0.5711
13295TIP3   OH261299   2.370   3.528   3.950  0.4754  0.0942 -0.0201
13295TIP3    H161300   2.437   3.563   3.891 -0.1421  0.5918 -0.4464
13295TIP3    H261301   2.357   3.438   3.921 -0.9437  0.7851 -1.7244
13296TIP3   OH261302   3.841   1.260   4.669 -0.1431  1.1002 -0.2323
13296TIP3    H161303   3.911   1.273   4.734 -0.9815 -1.5313  1.3744
13296TIP3    H261304   3.871   1.185   4.617 -2.5021 -1.4496  1.8155
13297TIP3   OH261305   5.015   1.549   2.868 -0.1508  0.3521 -0.0829
13297TIP3    H161306   5.079   1.491   2.826 -0.6471  0.8056 -1.5573
13297TIP3    H261307   5.066   1.603   2.927  0.7126  0.1580 -0.6255
13298TIP3   OH261308   5.395   6.599  13.713 -0.5752  0.4556 -0.4059
13298TIP3    H161309   5.339   6.574  13.787  0.2729 -2.0182 -0.5002
13298TIP3    H261310   5.402   6.694  13.719 -1.5557  0.4444  1.9430
13299TIP3   OH261311   3.164   4.743   1.584  0.6619 -0.0699 -0.6136
13299TIP3    H161312   3.099   4.709   1.645  0.3334 -0.7468 -1.3303
13299TIP3    H261313   3.179   4.833   1.613  0.9487 -0.5505  0.8170
13300TIP3   OH261314   1.691   1.953   5.316 -0.6817  0.7752  0.0808
13300TIP3    H161315   1.694   1.879   5.375 -0.3934 -0.2395 -1.1587
13300TIP3    H261316   1.600   1.958   5.286 -0.8540  1.3587  0.6777
13301TIP3   OH261317   0.634   6.145   4.254 -1.0347 -0.1692  0.1633
13301TIP3    H161318   0.686   6.174   4.179 -0.3762  0.1216  0.7213
13301TIP3    H261319   0.544   6.170   4.233 -0.9286 -0.5190 -0.7335
13302TIP3   OH261320   4.174   3.331  15.144 -0.1185 -0.0216  0.6262
13302TIP3    H161321   4.241   3.397  15.128  0.3765 -0.8358 -0.9014
13302TIP3    H261322   4.109   3.345  15.075 -0.2234 -0.8163  0.5453
13303TIP3   OH261323   3.057   5.011  14.903  0.0105  0.0675  0.5143
13303TIP3    H161324   3.032   5.017  14.811 -1.8778 -0.9434  0.9146
13303TIP3    H261325   2.986   5.054  14.950  0.8701  0.4219  1.5193
13304TIP3   OH261326   2.452   2.964   5.529  0.0510 -0.2808  0.0447
13304TIP3    H161327   2.530   3.019   5.535  0.9466 -1.3803 -1.0792
13304TIP3    H261328   2.434   2.939   5.620  2.9694 -2.5844  0.1493
13305TIP3   OH261329   1.893   5.924   2.385  0.0832 -0.2127  0.7739
13305TIP3    H161330   1.816   5.971   2.354 -0.2347 -1.6362 -0.7987
13305TIP3    H261331   1.916   5.966   2.467 -2.4333  0.1999  1.3606
13306TIP3   OH261332   3.383   4.724   0.553  0.0872 -0.1536  0.1773
13306TIP3    H161333   3.291   4.754   0.552  0.2999  0.5860 -1.3444
13306TIP3    H261334   3.380   4.638   0.512 -0.0783 -0.6926  1.3035
13307TIP3   OH261335   6.179   1.626  16.284 -0.1073  0.2244  0.1233
13307TIP3    H161336   6.130   1.702  16.255  0.5258  1.0076  1.0411
13307TIP3    H261337   6.268   1.642  16.253 -0.2074 -0.7408 -0.7273
13308TIP3   OH261338   5.261   5.443  11.018  0.0933  0.1533  0.3403
13308TIP3    H161339   5.239   5.375  10.955 -0.7126  0.3001  0.4605
13308TIP3    H261340   5.232   5.408  11.103  1.8430 -0.3726  0.7760
13309TIP3   OH261341   3.037   0.185  15.316 -0.0741  0.5020 -0.0561
13309TIP3    H161342   3.078   0.099  15.326  0.8753  0.7283 -1.6678
13309TIP3    H261343   2.946   0.165  15.294  0.3105 -0.1343 -1.1492
13310TIP3   OH261344   3.842   5.234  11.603  0.9165  0.0757  0.1634
13310TIP3    H161345   3.849   5.234  11.507 -0.2570 -0.0321  0.0649
13310TIP3    H261346   3.768   5.291  11.621 -0.0553 -1.3528  0.8966
13311TIP3   OH261347   2.154   5.822  15.552 -0.2412  0.5185  0.5433
13311TIP3    H161348   2.194   5.779  15.628  1.7466 -0.1933 -0.8280
13311TIP3    H261349   2.220   5.884  15.522 -0.0419 -0.7329 -1.8572
13312TIP3   OH261350   1.046   2.009   5.760  0.3687  0.3808 -0.2038
13312TIP3    H161351   0.961   2.030   5.800 -0.1110 -0.3924 -0.7996
13312TIP3    H261352   1.024   1.956   5.684  1.4032  0.0578 -0.2860
13313TIP3   OH261353   0.494   0.693  15.854  0.2312  0.1761  0.1480
13313TIP3    H161354   0.519   0.740  15.775  0.7646  1.2813  0.9418
13313TIP3    H261355   0.578   0.676  15.899  0.0150 -1.2419  0.0380
13314TIP3   OH261356   4.049   4.935  11.840 -0.9023 -0.0138 -0.8158
13314TIP3    H161357   4.106   5.004  11.806 -0.0183  0.1876  0.9873
13314TIP3    H261358   3.973   4.981  11.875 -0.0312  0.1526  0.9507
13315TIP3   OH261359   2.330   2.839  16.866  0.0883 -0.3950 -0.5458
13315TIP3    H161360   2.240   2.863  16.891  0.9443  2.0859  0.4971
13315TIP3    H261361   2.329   2.840  16.770 -1.0864 -0.7997 -0.5568
13316TIP3   OH261362   2.490   2.084  11.151 -0.8629  0.2775  0.0106
13316TIP3    H161363   2.547   2.158  11.172 -2.1116  0.8102  1.6618
13316TIP3    H261364   2.457   2.103  11.063  1.2262  0.0955 -0.8725
13317TIP3   OH261365   1.200   5.487  11.706 -0.1206 -0.3867 -0.1922
13317TIP3    H161366   1.172   5.408  11.661 -1.4666  0.5858 -1.1436
13317TIP3    H261367   1.262   5.528  11.646 -1.9049  0.9032 -1.2498
13318TIP3   OH261368   1.399   5.998   2.738  0.4461  0.3452  0.2094
13318TIP3    H161369   1.410   6.048   2.819 -0.6351 -0.3806  0.8266
13318TIP3    H261370   1.440   6.052   2.671  0.3419  1.5028  1.0513
13319TIP3   OH261371   3.347   3.406   3.048  0.3810  0.2259 -0.7428
13319TIP3    H161372   3.279   3.426   3.112  1.3400 -0.3532  0.4980
13319TIP3    H261373   3.299   3.366   2.975 -0.5649 -0.6627  0.3231
13320TIP3   OH261374   2.564   3.914  12.411 -0.3560  0.2193  0.8302
13320TIP3    H161375   2.571   3.963  12.492  0.0728  1.5839 -0.0056
13320TIP3    H261376   2.607   3.969  12.345 -1.8471 -0.2358 -0.5822
13321TIP3   OH261377   0.354   4.681   5.709  0.1735  0.5222 -0.3754
13321TIP3    H161378   0.274   4.633   5.690 -0.3463  0.9750  0.5858
13321TIP3    H261379   0.328   4.745   5.777  1.4142  0.4479  0.1955
13322TIP3   OH261380   4.648   0.115  12.938 -0.7741 -0.0026 -0.5927
13322TIP3    H161381   4.609   0.096  12.853 -0.8432 -1.1237 -0.3186
13322TIP3    H261382   4.699   0.037  12.959 -0.5057  0.3923  0.2528
13323TIP3   OH261383   5.955   6.674   6.004 -0.5896 -0.0306 -0.3086
13323TIP3    H161384   6.046   6.688   6.030 -0.5498  1.1118 -0.9670
13323TIP3    H261385   5.925   6.601   6.057  0.2861  0.4928  0.9413
13324TIP3   OH261386   5.308   0.910  14.396  0.0176 -0.3942  0.2093
13324TIP3    H161387   5.254   0.967  14.340 -2.2007 -0.8271  1.7750
13324TIP3    H261388   5.287   0.821  14.366  1.6483 -0.5217 -0.6442
13325TIP3   OH261389   3.373   4.635   3.199  0.1974  0.5377  0.3552
13325TIP3    H161390   3.302   4.673   3.250  0.5169  1.9018 -0.1707
13325TIP3    H261391   3.378   4.544   3.228 -2.0744  0.2602  0.0482
13326TIP3   OH261392   2.170   3.492   4.217 -0.0956 -0.6028 -0.3028
13326TIP3    H161393   2.254   3.486   4.263 -0.6601  2.5773  1.3986
13326TIP3    H261394   2.193   3.485   4.124  1.9852 -0.3340  0.1344
13327TIP3   OH261395   5.756   0.409   5.263 -0.0125 -0.0581 -0.1733
13327TIP3    H161396   5.731   0.327   5.220  2.1505 -0.0179 -1.6411
13327TIP3    H261397   5.785   0.466   5.192  1.7003  0.7777  1.1157
13328TIP3   OH261398   2.439   4.164   3.469  0.4901  0.4169  0.5516
13328TIP3    H161399   2.431   4.137   3.560 -0.6023 -2.6038 -0.3271
13328TIP3    H261400   2.349   4.168   3.437  0.8746  1.0663 -0.5025
13329TIP3   OH261401   6.753   1.822  15.530  0.5080  0.0013  0.8285
13329TIP3    H161402   6.755   1.758  15.600 -0.3407 -0.3498  0.5507
13329TIP3    H261403   6.702   1.895  15.565 -0.4271 -0.4251  0.3889
13330TIP3   OH261404   2.875   6.255   1.198 -0.4998  0.4244  0.4396
13330TIP3    H161405   2.827   6.187   1.246 -1.0861  0.7015  0.2543
13330TIP3    H261406   2.835   6.255   1.111 -1.9243  2.4229  1.0376
13331TIP3   OH261407   1.166   4.916  13.389  0.0763 -0.0120  0.0106
13331TIP3    H161408   1.244   4.882  13.433 -0.6416 -0.7172  0.7787
13331TIP3    H261409   1.117   4.961  13.459  0.3620  1.4843 -0.7121
13332TIP3   OH261410   2.063   2.840  12.610 -0.1837  0.0745 -0.2553
13332TIP3    H161411   1.981   2.887  12.594  0.0561  0.5833 -0.0046
13332TIP3    H261412   2.128   2.887  12.560  0.0029 -0.1803 -0.2535
13333TIP3   OH261413   2.296   2.421   1.946 -0.3972  0.2013  0.5505
13333TIP3    H161414   2.291   2.424   2.042  0.8197  0.5196  0.6150
13333TIP3    H261415   2.268   2.507   1.917 -2.0093 -0.2954  0.5357
13334TIP3   OH261416   2.826   3.855  13.044 -0.0079  0.0796  0.7148
13334TIP3    H161417   2.756   3.900  12.996  0.6036  1.4264  1.0321
13334TIP3    H261418   2.780   3.791  13.099 -0.9806  0.7396  0.7062
13335TIP3   OH261419   2.946   5.178  15.972 -0.0183  0.2581 -0.0618
13335TIP3    H161420   2.986   5.119  15.907 -0.1935  0.6075 -0.4898
13335TIP3    H261421   3.005   5.253  15.975  0.5475 -0.1967  0.9476
13336TIP3   OH261422   1.300   3.400  17.036 -0.0193 -0.4507  0.4299
13336TIP3    H161423   1.294   3.346  17.115 -0.3451 -1.4956 -0.3019
13336TIP3    H261424   1.352   3.348  16.975  0.0288  0.2535 -0.1416
13337TIP3   OH261425   4.707   4.484  13.531 -0.2525 -0.1724  0.2328
13337TIP3    H161426   4.666   4.488  13.445  2.6018 -3.3891 -1.5085
13337TIP3    H261427   4.685   4.397  13.564  1.2168 -0.1560  1.3546
13338TIP3   OH261428   4.417   1.455  15.848  0.9114  0.6041  0.8767
13338TIP3    H161429   4.385   1.481  15.934 -1.7221 -1.9279  0.8218
13338TIP3    H261430   4.440   1.363  15.857  1.4163  0.5036 -0.9314
13339TIP3   OH261431   2.280   2.569  17.140  0.4502  0.5033 -0.0206
13339TIP3    H161432   2.276   2.652  17.186 -2.2085 -0.1411  1.0618
13339TIP3    H261433   2.342   2.516  17.192  0.5293  1.1009  0.5013
13340TIP3   OH261434   0.201   3.549   5.537 -0.1998  0.1860 -0.0624
13340TIP3    H161435   0.163   3.621   5.488  1.1531  1.7312  1.0278
13340TIP3    H261436   0.292   3.575   5.551  0.4965 -2.0295 -0.1369
13341TIP3   OH261437   2.392   3.420  11.316 -0.1450 -0.0701 -0.7954
13341TIP3    H161438   2.345   3.492  11.358 -2.0368 -1.8250  0.2446
13341TIP3    H261439   2.480   3.423  11.353 -0.6475  0.7914  0.3534
13342TIP3   OH261440   4.135   1.737   4.367  0.9387 -0.0077 -0.3465
13342TIP3    H161441   4.150   1.794   4.442 -2.8769 -0.4935  1.0054
13342TIP3    H261442   4.144   1.648   4.402  2.3087 -0.2823 -1.3131
13343TIP3   OH261443   5.056   2.610  12.690 -0.0662  0.0348  0.1046
13343TIP3    H161444   4.962   2.631  12.687  0.0843  0.6242 -1.7417
13343TIP3    H261445   5.089   2.637  12.605  1.4238 -1.9861 -0.0196
13344TIP3   OH261446   2.607   6.520  16.259 -0.6248 -0.1763  0.0497
13344TIP3    H161447   2.531   6.525  16.316 -0.6318 -1.8905  0.2324
13344TIP3    H261448   2.583   6.455  16.193  1.0109 -1.4563  0.6619
13345TIP3   OH261449   2.746   6.744   5.446  0.2708  0.3381  0.5327
13345TIP3    H161450   2.719   6.785   5.528  1.4413 -1.3382  1.8318
13345TIP3    H261451   2.839   6.767   5.437  0.2864  0.0705 -0.0495
13346TIP3   OH261452   0.143   0.411  15.612 -0.4004  0.3926 -0.8305
13346TIP3    H161453   0.114   0.355  15.683 -0.7614  0.7659 -0.6798
13346TIP3    H261454   0.151   0.498  15.652  1.9295  0.1342 -0.5934
13347TIP3   OH261455   2.683   2.283   1.578 -0.3295  0.0013 -0.1817
13347TIP3    H161456   2.612   2.248   1.524 -1.1272 -0.6254  1.2171
13347TIP3    H261457   2.742   2.325   1.515 -1.4080 -0.3497 -1.4890
13348TIP3   OH261458   1.567   2.661   4.137  0.3852  0.3369  0.3050
13348TIP3    H161459   1.527   2.740   4.101  0.9380  0.4416 -0.1043
13348TIP3    H261460   1.580   2.604   4.061  0.7048  0.1763  0.4754
13349TIP3   OH261461   3.996   4.051   0.283  0.3075 -0.1140  0.4337
13349TIP3    H161462   4.003   4.094   0.368  0.9996 -0.2432  0.4469
13349TIP3    H261463   4.042   4.110   0.223  1.5359 -0.9533  0.5038
13350TIP3   OH261464   4.832   5.947  14.176  0.2204  0.0545  0.5888
13350TIP3    H161465   4.791   5.951  14.090 -0.5174  0.2177  0.9414
13350TIP3    H261466   4.773   5.995  14.234  1.4179  1.1725  0.9264
13351TIP3   OH261467   1.130   1.063   0.101 -0.0894 -0.5186  0.0162
13351TIP3    H161468   1.055   1.004   0.111 -0.7721  0.1196 -1.1308
13351TIP3    H261469   1.123   1.095   0.011  0.6267  0.8118  0.4128
13352TIP3   OH261470   1.348   4.021   0.570  0.2298  0.1607 -0.1059
13352TIP3    H161471   1.376   4.095   0.517  0.0549 -1.0728 -2.0242
13352TIP3    H261472   1.429   3.975   0.593  0.2440  0.1075 -0.2552
13353TIP3   OH261473   1.180   2.897  13.697 -0.0416 -0.0459  0.3006
13353TIP3    H161474   1.241   2.961  13.734 -0.7791  2.2989 -2.1546
13353TIP3    H261475   1.095   2.923  13.731 -0.5049  1.1342 -1.6211
13354TIP3   OH261476   0.813   3.913  15.576 -0.4379 -0.4950  0.2366
13354TIP3    H161477   0.824   3.983  15.511 -1.0203  0.6884  1.3847
13354TIP3    H261478   0.722   3.919  15.602 -0.6677 -2.1137 -0.0864
13355TIP3   OH261479   5.798   0.741   5.950 -0.0652  0.5226 -0.2064
13355TIP3    H161480   5.831   0.799   5.881  0.6625  0.2295 -0.1194
13355TIP3    H261481   5.767   0.663   5.903 -0.7965  0.8673 -0.3024
13356TIP3   OH261482   5.238   6.748   5.754 -0.0874  0.0077  0.0414
13356TIP3    H161483   5.308   6.693   5.720 -1.6069 -0.4761 -2.5260
13356TIP3    H261484   5.198   6.695   5.824 -0.0599 -1.1990 -0.8273
13357TIP3   OH261485   1.056   2.496  11.072 -0.0226  0.5443  0.5109
13357TIP3    H161486   1.036   2.533  11.158  1.9764 -1.5038  2.0071
13357TIP3    H261487   1.126   2.552  11.038  1.6022 -0.5414  1.8667
13358TIP3   OH261488   2.586   6.161   0.198 -0.0610  0.4291  0.1367
13358TIP3    H161489   2.605   6.251   0.171  0.3440 -0.0591 -1.3066
13358TIP3    H261490   2.669   6.127   0.231  0.0907  0.2311 -0.4275
13359TIP3   OH261491   4.410   4.242  13.465 -0.0593  0.7976 -0.4527
13359TIP3    H161492   4.463   4.225  13.542  1.0638 -1.7648 -1.6603
13359TIP3    H261493   4.329   4.280  13.499 -0.1239 -1.3641  2.1362
13360TIP3   OH261494   5.533   6.253  16.650  0.3353 -0.6129 -0.0286
13360TIP3    H161495   5.482   6.197  16.592  2.2639 -3.0241  0.4314
13360TIP3    H261496   5.570   6.320  16.592 -1.7893  0.1127 -0.6462
13361TIP3   OH261497   5.702   4.864  16.403  0.0059 -0.2144  0.7683
13361TIP3    H161498   5.722   4.957  16.398  3.0307 -0.7846  0.6705
13361TIP3    H261499   5.708   4.844  16.496  3.3401 -0.9680  0.5051
13362TIP3   OH261500   1.955   1.426  15.656  0.1690  0.5356  0.0444
13362TIP3    H161501   2.029   1.476  15.690 -0.9468  1.3908  1.3723
13362TIP3    H261502   1.936   1.466  15.571  1.2648  0.2479 -0.3525
13363TIP3   OH261503   5.861   1.599  16.455 -0.1793  0.5819  0.5050
13363TIP3    H161504   5.781   1.645  16.477 -0.7279  1.2080 -2.4214
13363TIP3    H261505   5.929   1.641  16.509 -1.5842  0.7178  2.2580
13364TIP3   OH261506   0.995   2.284  12.454 -0.2867  0.2147 -0.0630
13364TIP3    H161507   0.989   2.202  12.503  0.0123  0.4477  0.3768
13364TIP3    H261508   0.967   2.351  12.517  0.5669  0.5697 -0.0553
13365TIP3   OH261509   2.942   1.533   2.770  0.1005  0.2708  0.0295
13365TIP3    H161510   3.034   1.544   2.746 -0.3130  1.2622 -1.2454
13365TIP3    H261511   2.937   1.561   2.861  0.9356  0.9127 -0.1163
13366TIP3   OH261512   5.672   0.047  16.292 -0.2295 -0.1531  0.1183
13366TIP3    H161513   5.696   0.135  16.322 -1.5654  0.7695 -1.3361
13366TIP3    H261514   5.576   0.044  16.301 -0.3162 -1.0246 -0.9568
13367TIP3   OH261515   5.898   6.126  15.216  0.1794 -0.2329 -0.0788
13367TIP3    H161516   5.819   6.077  15.240  0.4545  0.5098  2.7173
13367TIP3    H261517   5.970   6.066  15.236  0.4610  0.7540  2.2957
13368TIP3   OH261518   0.332   6.590   3.330  0.9264 -0.7759 -0.0451
13368TIP3    H161519   0.317   6.630   3.416  1.8681 -0.5050  0.0139
13368TIP3    H261520   0.424   6.610   3.311  0.8420 -1.1921 -0.9307
13369TIP3   OH261521   0.329   2.424   1.242 -0.6803 -0.2166 -0.0749
13369TIP3    H161522   0.423   2.404   1.235 -0.5355  0.7228 -1.0127
13369TIP3    H261523   0.312   2.419   1.336  0.1638 -1.0119  0.0595
13370TIP3   OH261524   4.137   5.640   1.428  0.3373 -0.1826  0.1252
13370TIP3    H161525   4.049   5.654   1.464  0.7038 -0.4352  1.1530
13370TIP3    H261526   4.125   5.571   1.363 -0.2831  0.0635 -0.0398
13371TIP3   OH261527   1.566   1.427   4.013  0.3536  0.0309 -0.4739
13371TIP3    H161528   1.587   1.402   4.102 -0.8782 -1.2711 -0.5258
13371TIP3    H261529   1.648   1.465   3.979  1.8216 -2.3736  0.1593
13372TIP3   OH261530   1.463   0.974  14.475  0.3030  1.2317  0.7438
13372TIP3    H161531   1.459   0.995  14.382  0.2649 -0.6250  0.2865
13372TIP3    H261532   1.414   1.045  14.517 -2.8125  0.3369 -0.9994
13373TIP3   OH261533   2.454   3.388  12.738  0.4738  0.2448  0.1463
13373TIP3    H161534   2.506   3.370  12.660  0.0159 -1.0648  0.0995
13373TIP3    H261535   2.393   3.314  12.743  0.9508 -0.0911  2.1334
13374TIP3   OH261536   1.229   0.679   3.734 -0.0395  0.0574  0.0683
13374TIP3    H161537   1.136   0.678   3.756 -0.0699  1.6105  0.1364
13374TIP3    H261538   1.260   0.592   3.759 -1.2804 -0.1898  0.8779
13375TIP3   OH261539   1.279   4.276  11.312  1.0827 -0.0628 -0.1960
13375TIP3    H161540   1.194   4.234  11.328  0.4149  1.3034  0.0249
13375TIP3    H261541   1.297   4.259  11.220  0.3535 -0.0097 -0.3582
13376TIP3   OH261542   4.865   5.046  12.398 -0.1650 -0.1192  0.4072
13376TIP3    H161543   4.953   5.077  12.375 -0.4900 -0.3180 -1.2221
13376TIP3    H261544   4.809   5.123  12.385 -0.3113 -0.1360  0.9332
13377TIP3   OH261545   3.625   5.987  15.678 -0.5222 -0.8701 -0.1714
13377TIP3    H161546   3.578   5.961  15.599 -1.3668 -1.1359  0.4057
13377TIP3    H261547   3.573   6.059  15.714 -0.4950 -1.1730  0.4781
13378TIP3   OH261548   1.748   3.859  12.719 -0.0100  0.0086 -0.3693
13378TIP3    H161549   1.749   3.886  12.627  1.3856 -0.1154 -0.4110
13378TIP3    H261550   1.664   3.891  12.752 -0.3333  0.4610 -1.5591
13379TIP3   OH261551   0.373   6.085   0.063 -0.3200  0.3720 -0.0275
13379TIP3    H161552   0.311   6.121   0.127 -0.8782  0.7166 -0.7451
13379TIP3    H261553   0.320   6.066  -0.014  0.3204 -0.1629 -0.3461
13380TIP3   OH261554   5.350   4.213  16.831  0.4367  0.3149  0.3939
13380TIP3    H161555   5.288   4.142  16.814  3.0579 -2.5638  1.6713
13380TIP3    H261556   5.386   4.236  16.746  1.4791 -1.9732  0.1377
13381TIP3   OH261557   1.238   4.020  14.746  0.0006 -0.3421 -0.1722
13381TIP3    H161558   1.257   4.114  14.752 -0.0277 -0.3484 -0.0053
13381TIP3    H261559   1.283   3.981  14.820  0.4914 -0.5362 -0.5617
13382TIP3   OH261560   5.561   6.546  12.335  0.1581  0.0194 -0.1896
13382TIP3    H161561   5.567   6.537  12.240  1.2866 -0.1849 -0.1142
13382TIP3    H261562   5.471   6.573  12.351  0.1494  0.7801 -1.3721
13383TIP3   OH261563   6.578   3.845  13.993  0.1488  0.3733 -0.1211
13383TIP3    H161564   6.558   3.759  13.958 -0.3192  0.9118 -1.2391
13383TIP3    H261565   6.647   3.830  14.058 -0.6224 -0.9452  0.4121
13384TIP3   OH261566   3.636   6.536  13.922  0.1859  0.1237  0.2099
13384TIP3    H161567   3.580   6.460  13.938 -0.3756  0.5368  0.2260
13384TIP3    H261568   3.714   6.500  13.880 -0.5583 -0.3210 -0.8072
13385TIP3   OH261569   1.754   1.384   1.014  0.2618  0.5511  0.1221
13385TIP3    H161570   1.759   1.353   1.104 -0.5683  0.6793  0.2163
13385TIP3    H261571   1.812   1.460   1.011  1.3675 -0.2690  0.1903
13386TIP3   OH261572   3.579   2.665  10.739 -0.5677  0.2448  0.1532
13386TIP3    H161573   3.668   2.640  10.714 -0.5476 -0.5410  0.9588
13386TIP3    H261574   3.529   2.584  10.729 -0.8292  0.2479  1.3569
13387TIP3   OH261575   4.508   2.068   4.841 -0.3719  0.0720 -0.2427
13387TIP3    H161576   4.475   1.979   4.851 -0.2059  0.2277  2.3127
13387TIP3    H261577   4.553   2.087   4.924  1.8362  1.6330 -1.6781
13388TIP3   OH261578   1.066   5.343   2.742 -0.1158  0.4688  0.2750
13388TIP3    H161579   1.146   5.328   2.793 -1.0449 -0.7002  1.4527
13388TIP3    H261580   0.998   5.357   2.808 -1.5106 -1.8571 -0.5645
13389TIP3   OH261581   4.852   1.107   1.489 -0.4533  0.2736  0.0488
13389TIP3    H161582   4.843   1.032   1.547 -0.2348 -0.0741 -0.3575
13389TIP3    H261583   4.892   1.175   1.543  0.7783 -0.4004  0.0359
13390TIP3   OH261584   0.305   0.920  12.881  0.3577 -0.4223  0.3261
13390TIP3    H161585   0.384   0.915  12.934  0.4477  3.0769  0.7459
13390TIP3    H261586   0.328   0.980  12.810 -0.7553 -2.5151 -1.9539
13391TIP3   OH261587   1.775   1.329   5.960 -0.1269  0.6025  0.2937
13391TIP3    H161588   1.815   1.256   6.008  0.4996  1.2477  0.7696
13391TIP3    H261589   1.789   1.405   6.016  2.4569  1.8146 -1.7871
13392TIP3   OH261590   4.507   2.729  16.099 -0.0352  0.2843 -0.0134
13392TIP3    H161591   4.454   2.778  16.036 -1.2513  0.5863  1.1980
13392TIP3    H261592   4.557   2.667  16.045 -0.4809  1.0309 -1.3296
13393TIP3   OH261593   6.767   1.056  11.539 -0.1583 -0.3641 -0.3009
13393TIP3    H161594   6.705   1.085  11.471  0.7531 -0.2638 -1.1131
13393TIP3    H261595   6.798   0.971  11.508  1.3211  0.3075 -0.7567
13394TIP3   OH261596   2.299   4.902  13.254 -0.0241  0.5573  0.2764
13394TIP3    H161597   2.279   4.811  13.232  2.8063 -0.0229 -0.3902
13394TIP3    H261598   2.389   4.899  13.287 -0.0681  3.0440  0.8118
13395TIP3   OH261599   0.034   6.109   6.289  0.2433  0.0758  0.6048
13395TIP3    H161600  -0.054   6.147   6.283 -0.3215 -1.1117  1.1748
13395TIP3    H261601   0.021   6.022   6.327  1.6392 -0.2289  0.4513
13396TIP3   OH261602   1.955   2.903  16.592  0.3534 -0.1828 -1.1175
13396TIP3    H161603   1.989   2.987  16.560  1.6802  0.2872  1.3347
13396TIP3    H261604   1.860   2.916  16.596  0.4601  0.8536 -1.6890
13397TIP3   OH261605   5.029   1.305   4.868  0.6821 -0.1426  0.2022
13397TIP3    H161606   5.062   1.216   4.862 -0.3252 -0.4634 -1.1120
13397TIP3    H261607   5.089   1.357   4.815  0.1260 -0.4146 -0.7185
13398TIP3   OH261608   4.044   4.252   3.630 -0.1398 -0.1051  0.5453
13398TIP3    H161609   4.112   4.221   3.571  1.1718  2.1993  0.7277
13398TIP3    H261610   3.969   4.273   3.574  0.6965  0.9922 -0.1992
13399TIP3   OH261611   4.323   1.403  14.230 -0.1130  0.2481  0.4459
13399TIP3    H161612   4.330   1.374  14.139  1.6368  0.9132  0.3259
13399TIP3    H261613   4.270   1.483  14.225 -0.2581  0.1313  0.0496
13400TIP3   OH261614   2.592   6.407   5.206 -0.1065 -0.1121 -0.7839
13400TIP3    H161615   2.497   6.415   5.204 -0.1665 -0.1606  0.8303
13400TIP3    H261616   2.617   6.430   5.295  1.2421 -1.7429 -0.6810
13401TIP3   OH261617   1.835   6.235  13.940  0.2064 -0.1025  0.0719
13401TIP3    H161618   1.889   6.308  13.971 -0.2433  0.2514  0.0224
13401TIP3    H261619   1.814   6.185  14.019 -1.5766  1.2152  0.4878
13402TIP3   OH261620   3.912   4.361  11.700 -0.3346 -0.5542 -0.0625
13402TIP3    H161621   4.004   4.379  11.721 -0.8287 -0.4580  2.3378
13402TIP3    H261622   3.900   4.269  11.723 -1.1888 -0.1526  1.1892
13403TIP3   OH261623   4.516   0.863  14.281  0.1242  0.3176  0.5439
13403TIP3    H161624   4.569   0.926  14.330  1.4635 -0.1064 -0.3319
13403TIP3    H261625   4.549   0.777  14.307 -0.2603  0.0348  0.1289
13404TIP3   OH261626   6.733   6.756   2.930  0.3754  0.4165 -0.4829
13404TIP3    H161627   6.709   6.666   2.906  0.4111  0.2695  0.0177
13404TIP3    H261628   6.768   6.749   3.018 -0.5951  1.0654 -0.0211
13405TIP3   OH261629   2.309   2.554  14.572 -0.1661 -0.2442  0.4367
13405TIP3    H161630   2.245   2.566  14.642  0.2893  1.9645  0.5450
13405TIP3    H261631   2.394   2.573  14.614  0.2993 -0.6387 -0.3019
13406TIP3   OH261632   4.637   2.525   6.802  0.6881  0.1987 -0.1440
13406TIP3    H161633   4.700   2.489   6.739  0.8338  0.6826 -0.2786
13406TIP3    H261634   4.649   2.619   6.797 -2.0495  0.5996 -2.3822
13407TIP3   OH261635   2.109   5.390   2.720  0.2503  0.0837 -0.2944
13407TIP3    H161636   2.017   5.411   2.739 -0.1476 -0.6305 -1.3040
13407TIP3    H261637   2.159   5.438   2.785 -0.7598  1.8057 -0.7285
13408TIP3   OH261638   2.987   4.863  16.065  0.4441  0.1906 -0.1191
13408TIP3    H161639   3.008   4.897  15.979  1.9072  1.4739  0.7024
13408TIP3    H261640   2.892   4.874  16.072  0.5887  2.1883 -0.7199
13409TIP3   OH261641   2.761   0.052  15.464 -0.2543  0.3725 -1.0083
13409TIP3    H161642   2.829  -0.015  15.462  0.1278  0.7085 -0.0158
13409TIP3    H261643   2.744   0.072  15.372  1.2445  0.5289 -1.2707
13410TIP3   OH261644   2.903   0.037  13.176  0.4998 -0.2334  0.1204
13410TIP3    H161645   2.960  -0.015  13.233  0.4882 -1.0829 -0.6238
13410TIP3    H261646   2.906  -0.008  13.091 -0.4279  0.3309 -0.2264
13411TIP3   OH261647   0.443   4.357   5.850 -0.5197  0.2619 -0.0187
13411TIP3    H161648   0.351   4.369   5.872 -0.7375 -1.6858  0.3466
13411TIP3    H261649   0.446   4.272   5.805  0.8792  1.0388 -1.5146
13412TIP3   OH261650   1.097   3.884   5.553 -0.6024  0.5896  0.3300
13412TIP3    H161651   1.103   3.978   5.534  3.0806  0.7269  1.3259
13412TIP3    H261652   1.156   3.843   5.490 -2.7573 -1.2601 -0.6122
13413TIP3   OH261653   5.001   1.318   6.015  0.1272 -0.3414  0.0345
13413TIP3    H161654   4.918   1.347   6.053 -0.1238 -0.8194 -0.1483
13413TIP3    H261655   5.009   1.226   6.042  1.1237 -0.0026  0.9721
13414TIP3   OH261656   6.125   3.935   4.216  0.0352  0.2233 -0.2716
13414TIP3    H161657   6.174   3.858   4.245  0.9857  0.9499  0.1126
13414TIP3    H261658   6.070   3.958   4.291  0.1376  0.2257 -0.1968
13415TIP3   OH261659   0.975   5.398  16.963 -0.0109  0.5365  1.0279
13415TIP3    H161660   1.045   5.447  16.919  0.2523 -0.2693  0.5278
13415TIP3    H261661   0.961   5.322  16.907 -0.1004 -0.1927  2.0306
13416TIP3   OH261662   0.919   2.410   0.280 -0.2703  0.5972 -0.0984
13416TIP3    H161663   0.959   2.497   0.268  3.7182 -0.7480  1.7248
13416TIP3    H261664   0.950   2.360   0.205 -1.6926  0.3943 -0.5806
13417TIP3   OH261665   1.571   1.763   1.032 -0.1278  0.3336  0.4270
13417TIP3    H161666   1.487   1.724   1.007 -0.2061  1.1361 -0.6629
13417TIP3    H261667   1.549   1.821   1.105  0.1194 -2.1328  2.5980
13418TIP3   OH261668   2.303   5.778   4.503  0.0758 -0.0285  0.1219
13418TIP3    H161669   2.211   5.774   4.479 -0.2447  0.9167  1.1137
13418TIP3    H261670   2.303   5.779   4.598  0.8322  3.4625  0.2485
13419TIP3   OH261671   5.384   3.365   4.319 -0.0279  0.0557 -0.3312
13419TIP3    H161672   5.434   3.440   4.351  1.5842 -1.1081  0.0478
13419TIP3    H261673   5.415   3.351   4.230 -2.1026  1.2780 -1.2912
13420TIP3   OH261674   5.305   5.481   3.222 -0.1802  0.5761 -0.4813
13420TIP3    H161675   5.375   5.493   3.158 -1.0489  0.1621 -1.5466
13420TIP3    H261676   5.279   5.389   3.213 -0.3252  0.5109  0.4655
13421TIP3   OH261677   6.046   6.479   2.563  0.5115 -0.4967  0.1333
13421TIP3    H161678   6.108   6.546   2.535  0.2852 -0.5494 -0.5140
13421TIP3    H261679   6.093   6.428   2.628  1.2712 -0.7617 -0.6163
13422TIP3   OH261680   0.451   2.585  14.011 -0.2543  0.1399  0.4679
13422TIP3    H161681   0.476   2.672  14.042 -1.0527  1.2047 -1.6781
13422TIP3    H261682   0.523   2.559  13.953 -1.2084  0.5601 -0.9532
13423TIP3   OH261683   4.483   1.183  14.773  0.2097 -0.3759 -0.1918
13423TIP3    H161684   4.466   1.267  14.814  0.6923 -0.5701  0.4175
13423TIP3    H261685   4.429   1.120  14.821 -0.1886 -0.4144 -0.6759
13424TIP3   OH261686   5.174   0.154  14.894 -0.2232  0.3620  0.2874
13424TIP3    H161687   5.112   0.113  14.955 -2.0533  1.1597 -0.9204
13424TIP3    H261688   5.131   0.146  14.809  1.7478  0.2691 -0.7336
13425TIP3   OH261689   3.167   4.675   3.423 -0.1793 -0.1852  0.3758
13425TIP3    H161690   3.121   4.622   3.489  0.0449  0.2928  0.9209
13425TIP3    H261691   3.150   4.765   3.448 -1.0259  0.0233 -0.8822
13426TIP3   OH261692   6.605   4.649   2.945  0.1679  0.5714 -0.0337
13426TIP3    H161693   6.539   4.630   2.878  0.1284 -1.6234  0.5290
13426TIP3    H261694   6.646   4.564   2.962  0.3340  1.0872  2.5729
13427TIP3   OH261695   3.648   5.554   5.722  0.4265 -0.5691  0.7194
13427TIP3    H161696   3.705   5.618   5.680  1.7736 -2.3871 -0.4087
13427TIP3    H261697   3.559   5.585   5.704  1.0301  1.1533  0.5633
13428TIP3   OH261698   3.902   1.631   3.666  0.1491 -0.6134  0.5706
13428TIP3    H161699   3.954   1.658   3.742 -0.2358 -0.7444  0.8791
13428TIP3    H261700   3.950   1.557   3.629 -0.4529 -1.5239  1.5751
13429TIP3   OH261701   6.333   1.079   1.908  0.0287  0.2465  0.1250
13429TIP3    H161702   6.292   1.091   1.822 -0.1708 -1.3575 -0.0373
13429TIP3    H261703   6.277   1.016   1.952  2.5582 -2.5403 -0.3244
13430TIP3   OH261704   1.554   6.032   5.974 -0.1354 -0.0087  0.3021
13430TIP3    H161705   1.499   6.041   5.896  1.6894  0.8045 -0.9749
13430TIP3    H261706   1.515   6.091   6.039 -0.5607  0.8479 -0.7058
13431TIP3   OH261707   1.983   1.448   1.310 -0.1511  0.1482  0.0877
13431TIP3    H161708   2.072   1.428   1.340 -0.1800  1.4427  1.1086
13431TIP3    H261709   1.991   1.533   1.268 -0.3707 -1.0312 -2.5834
13432TIP3   OH261710   3.873   6.305   1.225 -0.5362 -0.4411 -0.0946
13432TIP3    H161711   3.912   6.218   1.237  2.2515  0.8137  0.9274
13432TIP3    H261712   3.893   6.352   1.306 -1.8263  1.2191 -0.6873
13433TIP3   OH261713   4.531   5.607   4.515 -0.4373 -0.3044 -0.3638
13433TIP3    H161714   4.511   5.554   4.592 -0.2799  1.7165  1.1416
13433TIP3    H261715   4.595   5.671   4.546 -1.2490  1.3145 -1.8608
13434TIP3   OH261716   2.856   3.316  16.254 -0.4832  0.4448 -0.1358
13434TIP3    H161717   2.894   3.316  16.342  2.3000 -1.1070 -1.2181
13434TIP3    H261718   2.857   3.224  16.227 -0.8503  0.9360 -1.9662
13435TIP3   OH261719   2.239   3.470   1.507 -0.6238  0.2032  0.0916
13435TIP3    H161720   2.188   3.415   1.566  0.3465 -0.9784 -0.1288
13435TIP3    H261721   2.211   3.559   1.527  0.2063 -0.0676  2.8928
13436TIP3   OH261722   1.540   4.190  15.535 -0.5209 -0.8876  0.4932
13436TIP3    H161723   1.568   4.134  15.607 -1.4616 -1.6708  0.2657
13436TIP3    H261724   1.451   4.162  15.515 -0.9671  0.6074  0.2745
13437TIP3   OH261725   6.120   1.100  15.003  0.5566 -0.4875 -0.6365
13437TIP3    H161726   6.035   1.106  15.046  0.7090 -1.8485 -0.1092
13437TIP3    H261727   6.100   1.071  14.914  0.4735 -0.9029 -0.4838
13438TIP3   OH261728   1.463   6.537   2.413 -0.0183  0.1863  0.0740
13438TIP3    H161729   1.516   6.461   2.439 -2.1503 -1.5345 -0.3133
13438TIP3    H261730   1.435   6.517   2.324 -0.5715  1.4873 -0.0665
13439TIP3   OH261731   0.075   6.668   4.541 -0.8433 -0.0226 -0.2873
13439TIP3    H161732   0.004   6.689   4.602 -0.5663  2.0250 -0.6031
13439TIP3    H261733   0.081   6.744   4.484  1.4193 -0.2727 -0.4583
13440TIP3   OH261734   0.767   4.970   3.751 -0.0479 -0.0983  0.1174
13440TIP3    H161735   0.834   4.915   3.793 -0.2259  1.2962  2.4033
13440TIP3    H261736   0.816   5.033   3.700  0.2197 -1.2055 -1.0336
13441TIP3   OH261737   2.861   3.004   1.902  0.1317  0.1988 -0.0722
13441TIP3    H161738   2.815   3.050   1.973  1.4541  1.1175  0.2291
13441TIP3    H261739   2.934   2.960   1.945  0.7903  0.5352 -0.8214
13442TIP3   OH261740   0.217   2.471  14.816  0.2882  0.6252 -0.4105
13442TIP3    H161741   0.230   2.379  14.793 -0.8559 -0.0652  1.4784
13442TIP3    H261742   0.216   2.472  14.912  1.5480  2.8127 -0.3561
13443TIP3   OH261743   6.708   6.689   0.816  0.0379 -0.1946 -0.6047
13443TIP3    H161744   6.695   6.782   0.800 -0.4091  0.8664  4.3594
13443TIP3    H261745   6.797   6.683   0.851 -0.1699 -1.5359 -0.2644
13444TIP3   OH261746   0.155   1.278   4.301 -0.4844 -0.2934 -0.7779
13444TIP3    H161747   0.129   1.190   4.329  0.7853 -0.5174 -0.2182
13444TIP3    H261748   0.145   1.332   4.380 -0.1983 -0.1797 -0.8174
13445TIP3   OH261749   2.083   6.670   4.424 -0.0362  0.4690 -0.0687
13445TIP3    H161750   2.150   6.732   4.395  0.1627  2.4938  4.0152
13445TIP3    H261751   2.011   6.725   4.455 -0.4749 -1.3135  2.4084
13446TIP3   OH261752   0.684   6.527   3.339 -0.4178  0.6050 -0.2118
13446TIP3    H161753   0.695   6.446   3.289  0.9708  0.5329  0.1728
13446TIP3    H261754   0.682   6.500   3.430 -0.1651  0.9775 -0.0916
13447TIP3   OH261755   5.162   4.065  10.543  1.2552 -0.0917 -0.3591
13447TIP3    H161756   5.201   4.100  10.464  1.8449 -0.6560 -0.3283
13447TIP3    H261757   5.077   4.109  10.550  1.7114  0.8487 -0.6434
13448TIP3   OH261758   4.279   1.536   4.198  0.3476  0.2550  0.1994
13448TIP3    H161759   4.374   1.543   4.192  0.2948  0.9210  0.0317
13448TIP3    H261760   4.252   1.616   4.244 -0.0937 -0.1561  0.6673
13449TIP3   OH261761   0.933   3.759   2.325 -0.4334  0.4028 -0.7153
13449TIP3    H161762   1.025   3.736   2.332 -0.6254 -0.5632 -1.3102
13449TIP3    H261763   0.932   3.854   2.337  0.4710  0.2660  0.7493
13450TIP3   OH261764   5.117   0.652   2.928  0.6918  0.2307 -0.2387
13450TIP3    H161765   5.065   0.730   2.911  2.5642  1.0595 -2.7922
13450TIP3    H261766   5.204   0.685   2.948  1.1480 -1.2014  0.2625
13451TIP3   OH261767   4.375   1.825   4.039 -0.6555  0.4918  0.0079
13451TIP3    H161768   4.350   1.873   3.959 -0.0552  0.0352 -0.4654
13451TIP3    H261769   4.470   1.817   4.033 -0.1342  3.1796  2.3159
13452TIP3   OH261770   2.883   6.520   4.699 -0.3877  0.4530 -0.1615
13452TIP3    H161771   2.873   6.439   4.649  0.0685  0.5046 -0.3420
13452TIP3    H261772   2.846   6.500   4.785  2.0292 -0.8074  0.6695
13453TIP3   OH261773   3.986   2.282   3.963 -0.1073 -0.6298 -0.2686
13453TIP3    H161774   3.954   2.192   3.959  0.0930 -0.7620  0.7798
13453TIP3    H261775   4.065   2.277   4.017  0.0105  0.1459 -0.3580
13454TIP3   OH261776   4.793   4.328  16.965 -0.4514 -0.0851  0.2199
13454TIP3    H161777   4.745   4.393  17.016  1.1385  0.9469  0.4916
13454TIP3    H261778   4.784   4.357  16.874  1.7889  1.7008  0.4768
13455TIP3   OH261779   4.101   5.919   2.242  0.1449 -0.0815 -0.1089
13455TIP3    H161780   4.029   5.977   2.216  0.2597  0.6739  1.1880
13455TIP3    H261781   4.075   5.883   2.326  1.6491  0.9045  0.8313
13456TIP3   OH261782   1.506   1.168   3.645 -0.3771  0.4232 -0.6766
13456TIP3    H161783   1.567   1.235   3.615 -0.7261  0.8509 -0.4425
13456TIP3    H261784   1.455   1.145   3.567 -0.8387  1.0577 -0.5713
13457TIP3   OH261785   4.062   4.773   1.828  0.2167  0.1450 -0.2636
13457TIP3    H161786   4.037   4.826   1.752 -0.0123  0.9971  0.3861
13457TIP3    H261787   4.016   4.691   1.817 -0.3949  0.5374 -0.6794
13458TIP3   OH261788   4.782   2.391  12.496  0.3057 -0.3830  0.0207
13458TIP3    H161789   4.758   2.310  12.542  0.8970  0.1367  1.2941
13458TIP3    H261790   4.869   2.374  12.462  0.5673 -0.1709  0.5776
13459TIP3   OH261791   1.170   0.492  13.950 -0.2611 -0.6245  0.0221
13459TIP3    H161792   1.194   0.551  13.878 -2.7811  0.1256 -0.3289
13459TIP3    H261793   1.114   0.426  13.909  0.2047 -1.5931  0.9109
13460TIP3   OH261794   6.054   3.070   0.563 -0.4112 -0.0186  0.1911
13460TIP3    H161795   6.064   3.035   0.651  0.8233  0.6611  0.3354
13460TIP3    H261796   5.998   3.006   0.518 -0.3726 -0.7917  1.2124
13461TIP3   OH261797   2.459   3.606   1.338  0.1876 -0.0024  0.4770
13461TIP3    H161798   2.401   3.559   1.398  0.6452 -1.4860 -0.1911
13461TIP3    H261799   2.451   3.558   1.255  0.2328  1.4645 -0.4140
13462TIP3   OH261800   6.260   0.716   6.347  0.5318 -0.9703 -0.4629
13462TIP3    H161801   6.266   0.634   6.396  0.7356 -1.2845 -1.0026
13462TIP3    H261802   6.211   0.775   6.404 -2.5649 -2.4641 -1.3585
13463TIP3   OH261803   5.177   4.674   5.138  0.6217  0.2697  0.0145
13463TIP3    H161804   5.165   4.595   5.085  1.0355  1.0790 -1.3219
13463TIP3    H261805   5.225   4.643   5.215 -0.4774 -1.0303  0.2185
13464TIP3   OH261806   6.222   4.506   0.771  0.6715  0.2311  0.0121
13464TIP3    H161807   6.271   4.580   0.805 -0.5775  1.2220 -0.2335
13464TIP3    H261808   6.151   4.494   0.834  0.0641  0.1662 -0.6725
13465TIP3   OH261809   1.151   5.098  16.211 -0.1346 -0.0109  0.2381
13465TIP3    H161810   1.246   5.104  16.220 -0.0120  0.5793 -1.1068
13465TIP3    H261811   1.137   5.072  16.120 -1.2625  0.8500  0.1367
13466TIP3   OH261812   6.196   1.634   0.055  0.1627 -0.3465 -0.0102
13466TIP3    H161813   6.199   1.588   0.139  0.7844 -1.3714 -0.5773
13466TIP3    H261814   6.103   1.650   0.041  0.1445  1.1975  1.5746
13467TIP3   OH261815   2.105   1.739  11.614 -0.3773  0.4145 -0.0256
13467TIP3    H161816   2.066   1.704  11.694  1.9616  1.2814  1.6247
13467TIP3    H261817   2.199   1.722  11.624  0.6217  4.6900 -0.2881
13468TIP3   OH261818   1.824   6.300  13.296 -0.3543  0.0335  0.0089
13468TIP3    H161819   1.862   6.238  13.359  2.1095 -0.4679 -1.8198
13468TIP3    H261820   1.774   6.361  13.351 -0.2325 -1.6659  2.1919
13469TIP3   OH261821   3.600   4.060   1.235 -0.3260  0.4408  0.8321
13469TIP3    H161822   3.667   4.128   1.238 -1.0141  1.1685  0.2864
13469TIP3    H261823   3.519   4.108   1.216 -0.4861 -0.7338 -2.0602
13470TIP3   OH261824   5.352   0.823   1.164 -0.3219 -0.6356 -0.6215
13470TIP3    H161825   5.410   0.748   1.153  0.8987 -0.0379  1.3214
13470TIP3    H261826   5.322   0.817   1.255 -3.7265 -1.1599 -1.6250
13471TIP3   OH261827   4.392   5.740  12.738  0.3644  0.2016  0.2946
13471TIP3    H161828   4.482   5.750  12.708  0.5294 -0.1565  0.6599
13471TIP3    H261829   4.397   5.673  12.807 -0.2198 -0.0244  0.1201
13472TIP3   OH261830   0.141   0.168   1.931 -0.1283  0.2247  0.4599
13472TIP3    H161831   0.057   0.211   1.948 -1.3349 -1.5490 -0.5640
13472TIP3    H261832   0.150   0.103   2.001  0.2794  0.2562  0.4406
13473TIP3   OH261833   4.241   4.972  13.523  0.4401  0.4397  0.1317
13473TIP3    H161834   4.225   5.059  13.488  0.5134 -0.0292 -1.1191
13473TIP3    H261835   4.208   4.912  13.455 -1.7598 -0.5476  1.9152
13474TIP3   OH261836   2.684   4.328   5.090  0.0361 -0.0415 -0.5656
13474TIP3    H161837   2.774   4.334   5.058  1.0117 -0.8658  1.8037
13474TIP3    H261838   2.649   4.248   5.050  0.8630 -0.5166 -0.3480
13475TIP3   OH261839   1.238   5.394  12.834 -0.2585  0.1448  0.5440
13475TIP3    H161840   1.316   5.360  12.877  0.2970  0.8244  0.1151
13475TIP3    H261841   1.170   5.330  12.851  1.1720 -2.2102 -1.8518
13476TIP3   OH261842   2.875   6.294  12.331 -0.4216  0.2304  0.3755
13476TIP3    H161843   2.839   6.206  12.346  0.8820 -0.4589 -0.3981
13476TIP3    H261844   2.835   6.323  12.249  1.1170 -0.7648 -0.7817
13477TIP3   OH261845   5.039   1.887  13.512 -0.3232  0.3417 -0.0134
13477TIP3    H161846   5.106   1.927  13.456  3.3182 -2.8351  1.5958
13477TIP3    H261847   5.064   1.913  13.601 -1.0789 -1.1153  0.6532
13478TIP3   OH261848   4.899   1.272  13.746 -0.5229 -0.0451  0.1051
13478TIP3    H161849   4.856   1.348  13.784 -1.6995  0.1141 -1.4491
13478TIP3    H261850   4.983   1.306  13.714 -0.3895  0.2466  0.7368
13479TIP3   OH261851   5.531   6.605   5.746 -0.5017  0.1880  0.2972
13479TIP3    H161852   5.515   6.510   5.741  0.2465  0.0943 -0.5667
13479TIP3    H261853   5.574   6.617   5.830 -0.2846 -0.2916  0.2618
13480TIP3   OH261854   0.477   0.760  11.283 -0.0590 -0.6036 -0.3798
13480TIP3    H161855   0.554   0.773  11.228  0.8585 -0.3995  0.9058
13480TIP3    H261856   0.490   0.674  11.324 -0.8255 -0.8448 -0.6089
13481TIP3   OH261857   1.489   0.107   4.803  0.6898 -0.1647  0.3572
13481TIP3    H161858   1.460   0.018   4.825  0.6556 -1.0327 -2.6889
13481TIP3    H261859   1.412   0.149   4.766  0.9377  0.8231  0.9414
13482TIP3   OH261860   5.326   2.313  12.474  0.3600 -0.0674  0.3016
13482TIP3    H161861   5.353   2.310  12.566  1.4311  0.4685  0.0192
13482TIP3    H261862   5.394   2.365  12.431 -0.1145 -0.3430 -0.8046
13483TIP3   OH261863   2.631   2.206   0.287  0.0468 -0.4850 -0.6243
13483TIP3    H161864   2.564   2.220   0.220 -1.2345 -0.1611  0.6708
13483TIP3    H261865   2.617   2.116   0.317 -1.5679  0.3474  1.4095
13484TIP3   OH261866   6.135   0.501   1.689 -1.2926 -0.4244  0.9042
13484TIP3    H161867   6.128   0.596   1.692  0.4389 -0.2813  2.2285
13484TIP3    H261868   6.054   0.470   1.730 -0.1634  0.6507  4.2536
13485TIP3   OH261869   1.283   0.208   6.669  0.0769 -0.0716 -0.5691
13485TIP3    H161870   1.219   0.157   6.718  1.2583  0.0841  1.2373
13485TIP3    H261871   1.332   0.143   6.619 -0.5569 -0.3363 -0.8598
13486TIP3   OH261872   5.299   1.850   6.523 -0.0226 -0.4874 -0.3037
13486TIP3    H161873   5.393   1.841   6.508 -0.2501 -0.2925 -2.0403
13486TIP3    H261874   5.270   1.762   6.547  0.7904 -0.2809  1.6352
13487TIP3   OH261875   5.526   4.914   4.524  0.6811  0.1804  0.2468
13487TIP3    H161876   5.468   4.961   4.584  0.1140 -0.8016  0.4950
13487TIP3    H261877   5.501   4.944   4.437  0.0600  0.0636  0.3793
13488TIP3   OH261878   1.228   0.716   1.988 -0.0188  0.6374  0.0776
13488TIP3    H161879   1.238   0.808   1.964  0.2838  0.6756  0.3421
13488TIP3    H261880   1.318   0.686   2.005 -0.1409  0.3583  0.2287
13489TIP3   OH261881   3.627   6.305  16.288 -0.1948  0.8242 -0.2060
13489TIP3    H161882   3.707   6.311  16.338 -0.8950 -0.2188  1.1062
13489TIP3    H261883   3.637   6.370  16.218  1.1902  1.6648  0.7273
13490TIP3   OH261884   2.718   2.410  12.548 -0.4022 -0.1546  0.6896
13490TIP3    H161885   2.647   2.473  12.538 -1.3151 -1.3161 -0.4927
13490TIP3    H261886   2.682   2.341  12.602 -0.0660 -0.5959  0.3591
13491TIP3   OH261887   0.773   2.161   3.736 -0.0958  0.1784 -0.0040
13491TIP3    H161888   0.833   2.163   3.810  0.7348 -0.8236 -0.6170
13491TIP3    H261889   0.728   2.246   3.738  0.4673  0.4574  1.1751
13492TIP3   OH261890   2.632   5.065   4.567 -0.8399  0.7428 -0.3280
13492TIP3    H161891   2.546   5.108   4.570 -1.3747 -0.3044  0.1703
13492TIP3    H261892   2.694   5.134   4.589 -1.4141  1.8343 -1.9047
13493TIP3   OH261893   0.016   4.731  15.567  0.1795  0.3481 -0.7718
13493TIP3    H161894   0.080   4.690  15.625 -1.2151 -0.7119  0.0888
13493TIP3    H261895   0.024   4.825  15.586  0.6749  0.1315  0.1747
13494TIP3   OH261896   5.098   0.921   4.609  0.1664 -0.3191  0.7432
13494TIP3    H161897   5.108   0.829   4.632  1.2441 -0.5737 -0.5894
13494TIP3    H261898   5.067   0.921   4.519 -0.6410  0.6374  0.9930
13495TIP3   OH261899   2.360   4.484  13.489  0.3781 -0.2451  0.5208
13495TIP3    H161900   2.385   4.520  13.403  0.7898 -1.0133  0.3066
13495TIP3    H261901   2.417   4.408  13.500 -1.1523 -1.4309  0.5011
13496TIP3   OH261902   5.059   2.949  16.541 -0.1442  0.7224 -0.2537
13496TIP3    H161903   5.140   2.929  16.588 -0.7014 -2.6326 -0.5297
13496TIP3    H261904   5.081   2.937  16.449 -0.7537  0.6663 -0.3954
13497TIP3   OH261905   0.452   0.685  12.291 -0.3577 -0.6258  0.2657
13497TIP3    H161906   0.522   0.695  12.226 -2.7965  1.0535 -2.3571
13497TIP3    H261907   0.457   0.764  12.344 -0.9052  0.0492 -0.6585
13498TIP3   OH261908   1.961   2.018  16.209 -0.2092 -0.5397 -0.6070
13498TIP3    H161909   1.948   2.012  16.114 -1.1356  1.7065 -0.6822
13498TIP3    H261910   2.018   2.094  16.220 -0.5588 -0.4479  0.6453
13499TIP3   OH261911   3.603   2.817   0.365  0.0498 -0.5078  0.3357
13499TIP3    H161912   3.605   2.742   0.424  0.3130 -1.6977 -1.1307
13499TIP3    H261913   3.659   2.792   0.292  0.6483  1.3834  0.0929
13500TIP3   OH261914   3.071   0.426   2.301  0.0768  0.0690 -0.3087
13500TIP3    H161915   3.049   0.387   2.217 -2.0221 -0.7388  0.5461
13500TIP3    H261916   2.990   0.469   2.330  1.2513  1.8898  0.5071
13501TIP3   OH261917   5.903   4.526  13.635 -0.7320  0.0900  0.4868
13501TIP3    H161918   5.972   4.494  13.693  0.4162  1.1621 -0.2341
13501TIP3    H261919   5.895   4.460  13.567 -0.7111 -0.2325  0.7964
13502TIP3   OH261920   3.223   0.882  15.305  0.2357  0.0472  0.1395
13502TIP3    H161921   3.178   0.812  15.258  0.3287  0.0458  0.0530
13502TIP3    H261922   3.193   0.874  15.395  0.1664 -0.0388  0.1082
13503TIP3   OH261923   0.816   4.335  15.092 -0.2445  0.3575 -0.2322
13503TIP3    H161924   0.839   4.318  15.001 -2.3625  0.3101 -0.8296
13503TIP3    H261925   0.886   4.390  15.126  0.7556  0.0786 -1.7852
13504TIP3   OH261926   0.080   2.776   2.047 -0.1777 -0.7476 -0.9790
13504TIP3    H161927   0.085   2.690   2.089 -0.9663  0.1534  1.1120
13504TIP3    H261928   0.168   2.813   2.058 -0.8586  0.2738  1.8641
13505TIP3   OH261929   5.987   6.089  17.074 -0.1482 -0.0036 -0.0858
13505TIP3    H161930   5.959   6.150  17.006  0.0810  0.3868  0.1669
13505TIP3    H261931   5.927   6.016  17.067  0.1754 -0.1951 -1.0492
13506TIP3   OH261932   4.158   3.095  16.883  0.0066 -0.0004  0.3344
13506TIP3    H161933   4.124   3.013  16.848 -2.3656  0.9219  0.2905
13506TIP3    H261934   4.175   3.149  16.806 -2.3352  0.9420  0.3948
13507TIP3   OH261935   0.646   1.733   1.047  0.2582 -0.0704  0.2041
13507TIP3    H161936   0.557   1.712   1.075 -0.1234 -0.0126 -0.9545
13507TIP3    H261937   0.640   1.821   1.010  1.0363  0.4109  1.1468
13508TIP3   OH261938   5.260   4.017  12.471  0.3565  0.1133 -0.6830
13508TIP3    H161939   5.189   3.997  12.409  0.5666  0.9879 -1.2222
13508TIP3    H261940   5.240   3.964  12.548  0.1928 -1.1479 -1.5626
13509TIP3   OH261941   6.413   5.717   0.705  0.0020 -0.1207  0.2175
13509TIP3    H161942   6.327   5.758   0.698 -0.0574  0.1015  1.9169
13509TIP3    H261943   6.474   5.782   0.671 -0.2737  0.6998  1.2536
13510TIP3   OH261944   1.042   0.768   3.337  0.3174 -0.0782 -0.2132
13510TIP3    H161945   0.957   0.732   3.312  0.0723 -1.3448  2.1500
13510TIP3    H261946   1.083   0.699   3.390  2.5040  0.8010 -0.6674
13511TIP3   OH261947   3.685   0.437   4.749 -0.4570 -0.3060 -0.4120
13511TIP3    H161948   3.635   0.400   4.677 -0.5901  0.0858 -0.5243
13511TIP3    H261949   3.649   0.396   4.827  1.3197 -2.6344 -0.6880
13512TIP3   OH261950   4.235   6.665   1.951 -0.5790 -0.3983 -0.1044
13512TIP3    H161951   4.176   6.717   1.895 -0.1186 -0.7124 -0.8950
13512TIP3    H261952   4.181   6.593   1.982 -0.8682 -0.1660 -0.0665
13513TIP3   OH261953   1.749   1.126  16.406  0.2444 -0.2031 -0.1060
13513TIP3    H161954   1.658   1.101  16.424  0.2533 -0.2100 -0.0696
13513TIP3    H261955   1.745   1.174  16.323  0.3080 -0.7940 -0.4510
13514TIP3   OH261956   5.217   5.005  15.414  0.3065 -0.0253  0.4073
13514TIP3    H161957   5.129   5.031  15.388  0.6760 -1.2986 -2.5766
13514TIP3    H261958   5.213   4.910  15.424  1.0630  0.0459  1.6542
13515TIP3   OH261959   2.796   6.254   6.531 -0.0940  0.3480 -0.6341
13515TIP3    H161960   2.758   6.233   6.616  1.9355 -1.5980 -0.1294
13515TIP3    H261961   2.721   6.252   6.470 -1.4633  1.1283  0.9466
13516TIP3   OH261962   2.389   2.084   3.829 -0.1562  0.9804 -0.1322
13516TIP3    H161963   2.378   2.151   3.762 -1.1701 -1.3805 -2.5034
13516TIP3    H261964   2.484   2.076   3.838  0.1181  0.0835 -2.8066
13517TIP3   OH261965   6.020   3.121  15.202 -0.1333 -0.5172  0.1490
13517TIP3    H161966   6.003   3.140  15.110  0.7519 -4.0137 -0.8899
13517TIP3    H261967   5.961   3.179  15.250 -1.0029  1.0545 -2.6111
13518TIP3   OH261968   6.201   3.699  12.959 -0.4002  0.3270  0.4492
13518TIP3    H161969   6.271   3.763  12.948  0.6958 -1.1532 -2.0799
13518TIP3    H261970   6.120   3.749  12.945  0.2608  1.6222  1.1131
13519TIP3   OH261971   4.882   4.926  15.356  0.1110 -0.0966 -0.1927
13519TIP3    H161972   4.889   4.900  15.447  1.0647 -0.2083 -0.2934
13519TIP3    H261973   4.868   5.020  15.359 -0.0011 -0.1209  0.0701
13520TIP3   OH261974   4.359   6.227  11.992 -0.8265 -0.2078  0.5091
13520TIP3    H161975   4.392   6.149  11.948 -1.7469 -0.8804  0.9768
13520TIP3    H261976   4.318   6.278  11.922 -0.1714 -0.1117  0.1908
13521TIP3   OH261977   0.973   4.734  12.674  0.7712 -0.2102  0.6286
13521TIP3    H161978   1.067   4.716  12.674  0.5351 -1.6942 -0.8014
13521TIP3    H261979   0.966   4.823  12.708  2.9906  1.1501 -2.0205
13522TIP3   OH261980   2.252   0.813  14.216  0.2301 -0.0537 -0.2591
13522TIP3    H161981   2.162   0.785  14.201  0.1952  0.1022 -0.3336
13522TIP3    H261982   2.294   0.736  14.255 -0.6713  0.7913  2.5827
13523TIP3   OH261983   4.311   0.952   2.289  0.4838 -0.2917 -0.2622
13523TIP3    H161984   4.404   0.942   2.269  0.2979 -0.6039 -1.0008
13523TIP3    H261985   4.289   0.876   2.342  0.4866 -0.6036 -0.7017
13524TIP3   OH261986   6.592   3.802   5.108 -0.7505 -0.2828 -0.0510
13524TIP3    H161987   6.593   3.753   5.190  0.3454  2.5236  1.7834
13524TIP3    H261988   6.679   3.788   5.071 -0.8280 -0.5930 -0.1192
13525TIP3   OH261989   5.331   6.337  11.240 -0.2952 -0.0196  0.0221
13525TIP3    H161990   5.378   6.293  11.169 -1.3524 -1.3595  0.0873
13525TIP3    H261991   5.380   6.417  11.256  0.3483  0.0014 -1.7753
13526TIP3   OH261992   6.037   1.152   5.680 -0.5278 -0.6787  0.4344
13526TIP3    H161993   6.120   1.197   5.664 -0.4301 -1.2041 -0.5861
13526TIP3    H261994   6.022   1.163   5.774 -0.6523  1.7096  0.1981
13527TIP3   OH261995   3.908   0.214  10.630 -0.0687 -0.2746  0.1062
13527TIP3    H161996   3.964   0.138  10.611  0.2557 -0.8255  2.8899
13527TIP3    H261997   3.830   0.177  10.671 -0.3079  0.8242  0.6753
13528TIP3   OH261998   4.479   1.203  16.218 -0.3272 -0.2421  0.4980
13528TIP3    H161999   4.546   1.134  16.217 -0.4731 -0.4259  1.6084
13528TIP3    H262000   4.513   1.271  16.160  0.3362 -0.7779  0.2440
13529TIP3   OH262001   2.490   0.713   4.058 -0.2371  0.2939  0.0390
13529TIP3    H162002   2.500   0.688   3.966 -0.2394  2.4144 -0.5914
13529TIP3    H262003   2.401   0.686   4.081 -1.2120  2.1027 -1.4218
13530TIP3   OH262004   5.770   1.757  13.412  0.2323 -0.0082 -0.0853
13530TIP3    H162005   5.768   1.790  13.322  1.3005  0.7637  0.1473
13530TIP3    H262006   5.785   1.663  13.402  1.0898  0.1762 -0.7263
13531TIP3   OH262007   0.202   3.597   5.176 -0.0451  0.0179  0.2428
13531TIP3    H162008   0.265   3.660   5.140 -0.1112 -0.3291 -0.5058
13531TIP3    H262009   0.162   3.643   5.249 -1.0381  1.3667 -1.0864
13532TIP3   OH262010   1.140   4.689  17.135  0.2985 -0.0673 -0.9341
13532TIP3    H162011   1.090   4.663  17.057  1.9927 -2.5012 -1.2947
13532TIP3    H262012   1.228   4.656  17.119  1.0383  0.5755  1.4680
13533TIP3   OH262013   5.282   1.559  13.592  0.4373  0.8020  0.3862
13533TIP3    H162014   5.333   1.484  13.624 -1.5338 -1.2804 -1.0445
13533TIP3    H262015   5.311   1.571  13.502 -0.8499  0.2061 -0.1357
13534TIP3   OH262016   0.420   0.801  10.841  0.0585  0.2577 -0.0643
13534TIP3    H162017   0.461   0.858  10.905  2.5729  0.4113 -1.6622
13534TIP3    H262018   0.482   0.798  10.768 -2.2642 -0.5533 -2.1676
13535TIP3   OH262019   6.716   5.122   2.828 -0.4542 -0.1956  0.2117
13535TIP3    H162020   6.633   5.133   2.875 -2.0537 -1.6867 -2.0344
13535TIP3    H262021   6.714   5.031   2.798  1.5871  0.0194 -0.7240
13536TIP3   OH262022   1.716   3.684   1.389 -0.3318 -0.3427  0.5110
13536TIP3    H162023   1.711   3.777   1.412  0.0550 -0.1451 -0.1595
13536TIP3    H262024   1.698   3.637   1.471  1.4652  0.3202  1.3184
13537TIP3   OH262025   0.603   4.822  14.459 -0.2463  0.0649 -0.1662
13537TIP3    H162026   0.598   4.751  14.522  1.9495 -0.4490 -0.5059
13537TIP3    H262027   0.688   4.812  14.417 -1.2709  0.8657 -2.6671
13538TIP3   OH262028   6.566   3.461  12.413 -0.2766  0.4851  0.0157
13538TIP3    H162029   6.563   3.397  12.341  0.3085 -1.0498  1.3048
13538TIP3    H262030   6.652   3.502  12.405  0.4272 -0.7957  0.7238
13539TIP3   OH262031   3.716   2.872   5.079 -0.0615 -0.1126 -0.8157
13539TIP3    H162032   3.699   2.930   5.004 -0.2370 -0.5953 -1.1503
13539TIP3    H262033   3.716   2.784   5.042  0.3646 -0.3204 -0.3326
13540TIP3   OH262034   2.000   1.885  17.332  0.3426 -0.8638  0.1368
13540TIP3    H162035   1.957   1.941  17.396 -1.2577 -1.4392 -0.3765
13540TIP3    H262036   2.033   1.946  17.265  0.5911 -0.3834  0.6913
13541TIP3   OH262037   0.055   3.925  14.998  0.4233 -0.3316 -0.3742
13541TIP3    H162038   0.051   3.907  14.904 -1.4061  0.3471 -0.4672
13541TIP3    H262039  -0.010   3.867  15.037  2.7680 -2.3320  0.8581
13542TIP3   OH262040   3.489   1.258  15.864  0.5199  0.1283  0.3864
13542TIP3    H162041   3.522   1.212  15.941 -0.5758 -0.7852  0.3349
13542TIP3    H262042   3.485   1.191  15.796  0.8091  0.7684 -0.2793
13543TIP3   OH262043   5.418   6.577   4.443 -0.0013 -0.1853  0.0654
13543TIP3    H162044   5.419   6.542   4.354  0.1742  0.8411 -0.3481
13543TIP3    H262045   5.328   6.605   4.457  0.2273  0.7312 -0.2332
13544TIP3   OH262046   2.190   6.343  16.151  0.4223 -0.3974 -0.2537
13544TIP3    H162047   2.145   6.392  16.220 -0.0354 -0.1598 -0.7126
13544TIP3    H262048   2.153   6.378  16.070  0.5380 -1.0767 -0.5989
13545TIP3   OH262049   1.768   4.467   4.282  0.1948 -0.4426 -0.4197
13545TIP3    H162050   1.693   4.515   4.317  0.9046  0.6312 -0.3397
13545TIP3    H262051   1.729   4.393   4.234 -0.9817  0.7576 -1.3952
13546TIP3   OH262052   4.896   3.679   2.858  0.1582  0.2209  1.1609
13546TIP3    H162053   4.903   3.598   2.807 -1.3626  1.2456 -0.8217
13546TIP3    H262054   4.987   3.705   2.874  0.6737 -1.2523  0.8397
13547TIP3   OH262055   0.278   3.344   3.896  0.2462 -0.0569  0.4429
13547TIP3    H162056   0.356   3.289   3.890 -0.6889 -1.4329  0.4489
13547TIP3    H262057   0.215   3.291   3.943 -0.8589  0.8396  0.0103
13548TIP3   OH262058   0.466   1.199  10.952  0.4227  0.0475  0.0408
13548TIP3    H162059   0.560   1.210  10.943  0.2723  1.1481 -0.3143
13548TIP3    H262060   0.434   1.285  10.979 -0.3767 -0.5494  1.0751
13549TIP3   OH262061   4.587   1.994   4.417 -0.4460  0.4258 -0.3403
13549TIP3    H162062   4.675   2.003   4.381 -0.5774  0.2611 -0.7026
13549TIP3    H262063   4.584   1.904   4.451 -0.2101  0.6823  0.3968
13550TIP3   OH262064   3.322   4.122  11.585 -0.6889 -0.3491 -0.3685
13550TIP3    H162065   3.248   4.106  11.526 -0.9099 -0.6755 -0.0044
13550TIP3    H262066   3.379   4.047  11.573 -2.0773 -1.8823  1.8770
13551TIP3   OH262067   3.429   1.906   5.835 -0.4366  0.1034  0.2680
13551TIP3    H162068   3.427   1.811   5.825  0.4632 -0.0597  1.3887
13551TIP3    H262069   3.432   1.920   5.930 -0.1187  1.2299  0.1093
13552TIP3   OH262070   5.027   5.132   0.248  0.0066  0.5732 -0.0551
13552TIP3    H162071   5.110   5.175   0.265  0.6098 -0.9612  1.0753
13552TIP3    H262072   4.974   5.199   0.205  0.7684  2.5358  1.8927
13553TIP3   OH262073   2.827   4.593  15.982  0.2918  0.2733  0.1802
13553TIP3    H162074   2.840   4.638  15.899 -1.1955 -0.7865 -0.6949
13553TIP3    H262075   2.780   4.512  15.958  0.0210 -0.1641  2.0164
13554TIP3   OH262076   1.922   1.689  17.155  0.6430  0.1132  0.5728
13554TIP3    H162077   1.935   1.753  17.086  0.3869 -1.7095 -1.2531
13554TIP3    H262078   1.921   1.740  17.236  0.4667  2.3727 -0.7929
13555TIP3   OH262079   2.708   3.886  15.865  0.1392 -1.0749  0.0033
13555TIP3    H162080   2.733   3.795  15.883  0.3181 -1.3021 -1.3263
13555TIP3    H262081   2.613   3.884  15.858  0.2330 -1.4616 -1.4896
13556TIP3   OH262082   0.858   5.666   4.103 -0.0004 -0.7997 -0.2135
13556TIP3    H162083   0.898   5.580   4.118 -1.4281 -1.7106 -1.4073
13556TIP3    H262084   0.765   5.648   4.087 -0.3496  0.9717 -0.4637
13557TIP3   OH262085   3.367   2.738  13.197 -0.2937 -0.5773 -0.2840
13557TIP3    H162086   3.426   2.790  13.251  0.3238 -0.2162 -1.2841
13557TIP3    H262087   3.340   2.665  13.254 -1.2379  0.8369  1.1733
13558TIP3   OH262088   4.562   1.671  14.910 -0.3360  0.0109  0.2816
13558TIP3    H162089   4.545   1.690  15.002  0.7891  0.5261  0.3920
13558TIP3    H262090   4.657   1.669  14.903 -0.3678 -2.1107 -0.4468
13559TIP3   OH262091   3.950   6.559  15.450 -0.6166  0.0998  0.1902
13559TIP3    H162092   3.907   6.515  15.523  1.0960 -3.5924 -0.7935
13559TIP3    H262093   3.971   6.489  15.389  1.5247  2.4922 -2.0561
13560TIP3   OH262094   6.263   0.364   0.537  0.5780  0.0840  0.3742
13560TIP3    H162095   6.221   0.441   0.576 -0.5522 -0.8150  0.9985
13560TIP3    H262096   6.234   0.291   0.591  1.2253 -0.8601 -0.5084
13561TIP3   OH262097   0.954   5.381  12.266 -0.2995  0.3625 -0.2929
13561TIP3    H162098   0.986   5.303  12.221 -0.9542  0.9233 -1.7943
13561TIP3    H262099   0.870   5.354  12.304 -0.0861  0.0841 -0.0127
13562TIP3   OH262100   3.185   3.464   6.044  0.1955 -0.2160  0.0502
13562TIP3    H162101   3.099   3.465   6.086 -1.0611  1.0713 -2.3523
13562TIP3    H262102   3.247   3.460   6.116 -1.7949  2.1899  2.0593
13563TIP3   OH262103   1.526   4.458  13.906 -0.5787  0.1047  0.1734
13563TIP3    H162104   1.439   4.448  13.870 -0.8054  2.1349  0.0244
13563TIP3    H262105   1.572   4.377  13.883 -2.3868 -0.9792  0.2342
13564TIP3   OH262106   5.820   5.026  15.968 -0.5953  0.0364 -0.7835
13564TIP3    H162107   5.733   5.056  15.992 -1.1969 -2.0689 -0.1981
13564TIP3    H262108   5.806   4.952  15.910  0.8447  0.5908 -1.9354
13565TIP3   OH262109   2.774   6.047  12.380 -0.5976 -0.4640  0.5032
13565TIP3    H162110   2.682   6.074  12.374 -0.4201 -0.0420 -0.7577
13565TIP3    H262111   2.786   6.020  12.471 -1.4831  1.2498  1.1759
13566TIP3   OH262112   4.558   1.268  12.990 -0.6050  0.8602 -0.6322
13566TIP3    H162113   4.580   1.244  12.900  0.5069  3.1400 -1.0323
13566TIP3    H262114   4.610   1.208  13.044  1.0705  1.4137 -1.5604
13567TIP3   OH262115   1.011   2.226   2.136 -0.5638  0.7748 -0.1395
13567TIP3    H162116   1.096   2.261   2.111 -0.7555  0.8901 -0.6487
13567TIP3    H262117   0.963   2.219   2.054 -0.6407 -0.4000 -0.0091
13568TIP3   OH262118   0.921   2.183   6.458 -0.2359  0.6084 -0.4541
13568TIP3    H162119   0.838   2.178   6.409  0.6603 -0.1289 -1.9787
13568TIP3    H262120   0.937   2.092   6.486 -1.0431  1.0975  1.8601
13569TIP3   OH262121   3.643   1.194   5.119  0.3767  0.6062  0.4145
13569TIP3    H162122   3.685   1.229   5.197  0.7612  0.3289  0.3348
13569TIP3    H262123   3.639   1.100   5.134 -0.1896  0.6252  0.4049
13570TIP3   OH262124   1.535   4.972   4.291  0.2818  0.0608  0.1806
13570TIP3    H162125   1.453   4.987   4.339  0.4092 -1.5436  0.9593
13570TIP3    H262126   1.596   4.940   4.358  1.2546  0.2890 -0.5809
13571TIP3   OH262127   4.986   0.472   4.480 -0.3242  0.3144  0.4153
13571TIP3    H162128   4.917   0.518   4.431  0.4367  0.9770 -0.0585
13571TIP3    H262129   4.954   0.382   4.488 -0.5157  0.2134 -1.2091
13572TIP3   OH262130   1.002   5.913   1.011 -0.2655 -0.3395  0.1859
13572TIP3    H162131   1.016   5.833   0.961  1.2633 -0.7050  1.1391
13572TIP3    H262132   0.935   5.961   0.962  0.8702 -0.8535 -1.9706
13573TIP3   OH262133   3.258   0.010  11.493 -0.4764  0.4560  0.0347
13573TIP3    H162134   3.192  -0.059  11.480  0.2284 -0.5330  1.4599
13573TIP3    H262135   3.324  -0.008  11.426  0.1706 -0.8756  0.9918
13574TIP3   OH262136   1.736   2.229   5.226 -0.5315  0.1726  0.1069
13574TIP3    H162137   1.814   2.268   5.266 -2.2139  0.7451  3.1523
13574TIP3    H262138   1.714   2.156   5.284 -2.3355  0.1068 -0.6211
13575TIP3   OH262139   3.461   2.660  15.527 -0.3705 -0.4401  0.0695
13575TIP3    H162140   3.447   2.647  15.621 -2.6688 -0.2964 -0.2140
13575TIP3    H262141   3.444   2.753  15.513  0.1995 -0.4100 -0.4786
13576TIP3   OH262142   0.927   4.691   3.631  0.0903 -0.0418 -0.1739
13576TIP3    H162143   0.985   4.723   3.562  0.4907 -0.0140  0.1704
13576TIP3    H262144   0.842   4.730   3.610  0.0145 -0.6848 -1.1009
13577TIP3   OH262145   0.401   5.103  16.217  0.2547 -0.7096 -0.1566
13577TIP3    H162146   0.317   5.132  16.252  0.4715 -0.1620 -0.0845
13577TIP3    H262147   0.453   5.183  16.209 -0.1092 -0.6297 -2.6752
13578TIP3   OH262148   5.718   1.094  13.477  0.3831  0.3839  0.2366
13578TIP3    H162149   5.740   1.185  13.456  1.7084 -0.2279 -1.2440
13578TIP3    H262150   5.799   1.046  13.458 -0.5986 -1.2363  0.0370
13579TIP3   OH262151   5.237   3.121  12.260  0.0940  0.2474 -0.2527
13579TIP3    H162152   5.214   3.212  12.243 -2.5183 -0.3403 -0.4228
13579TIP3    H262153   5.263   3.119  12.352  0.5468  1.2011 -0.3489
13580TIP3   OH262154   1.716   0.692   2.405 -0.1063  0.3397  1.0115
13580TIP3    H162155   1.625   0.690   2.376  0.1399 -0.6157  0.2539
13580TIP3    H262156   1.715   0.749   2.482 -1.5562 -0.5789  1.7184
13581TIP3   OH262157   5.115   1.527   0.723 -0.1496  0.0552  0.3100
13581TIP3    H162158   5.094   1.594   0.788  1.2463  0.6754  0.1546
13581TIP3    H262159   5.175   1.468   0.769 -2.3278 -1.8905  0.8679
13582TIP3   OH262160   1.754   1.556  11.101  0.6246  0.0487  0.0946
13582TIP3    H162161   1.820   1.532  11.036  0.2246 -1.9245  0.3752
13582TIP3    H262162   1.799   1.618  11.159  1.3639  0.8590 -1.2918
13583TIP3   OH262163   6.071   1.102   1.370  0.5647 -0.6228 -0.0318
13583TIP3    H162164   6.150   1.149   1.399  0.7922 -1.0372  0.0242
13583TIP3    H262165   6.033   1.159   1.303  0.6010 -0.1478  0.3422
13584TIP3   OH262166   2.671   2.386  14.731 -0.6163  0.9143  0.0313
13584TIP3    H162167   2.604   2.451  14.751 -2.0181 -0.4582  0.0462
13584TIP3    H262168   2.699   2.406  14.642 -2.2046  0.6147 -0.5762
13585TIP3   OH262169   1.682   5.000  12.857 -0.3437 -0.3486  0.6491
13585TIP3    H162170   1.733   4.919  12.862  0.6143  0.0099 -2.0378
13585TIP3    H262171   1.736   5.065  12.902  0.5640 -0.4591 -0.2579
13586TIP3   OH262172   2.443   2.314   5.710 -0.3046  0.0225  0.2457
13586TIP3    H162173   2.431   2.383   5.645 -0.5294  1.0318  1.3220
13586TIP3    H262174   2.452   2.361   5.793 -0.3675 -1.2481  0.9923
13587TIP3   OH262175   5.600   4.844  13.415  0.4446  0.0954  0.6169
13587TIP3    H162176   5.593   4.771  13.477  1.2169 -2.7900 -2.4003
13587TIP3    H262177   5.510   4.873  13.402  0.1383 -0.1223  2.0133
13588TIP3   OH262178   2.275   5.322   0.282  0.2795  0.3202  0.2724
13588TIP3    H162179   2.292   5.262   0.354  0.6230  0.0470 -0.0268
13588TIP3    H262180   2.355   5.317   0.228 -0.0915  0.2891 -0.2842
13589TIP3   OH262181   3.330   5.502   3.059 -0.1062 -0.3095  0.4878
13589TIP3    H162182   3.418   5.541   3.060  0.4798 -1.5557  1.7184
13589TIP3    H262183   3.338   5.425   3.116 -2.0512 -0.3551  0.7465
13590TIP3   OH262184   5.876   0.362   5.492 -0.4972  0.2137 -0.0173
13590TIP3    H162185   5.840   0.395   5.410  0.6247  0.5679 -0.3916
13590TIP3    H262186   5.953   0.311   5.465 -0.2299  0.1777  0.7952
13591TIP3   OH262187   3.982   1.361   5.587 -0.1415  0.3809  0.5132
13591TIP3    H162188   3.895   1.380   5.552  0.1120  1.2657  0.3349
13591TIP3    H262189   4.036   1.435   5.558  0.9541 -0.7133 -0.4029
13592TIP3   OH262190   3.232   4.926   1.958 -0.1661 -0.6836  0.1481
13592TIP3    H162191   3.190   4.840   1.952 -0.6436 -0.3998 -0.6590
13592TIP3    H262192   3.162   4.989   1.944  0.0290 -0.1156  1.5320
13593TIP3   OH262193   1.199   1.891   5.040 -0.2983  0.3799 -0.0107
13593TIP3    H162194   1.227   1.808   5.002 -0.0538  1.4023 -2.1839
13593TIP3    H262195   1.110   1.874   5.072  0.2191 -1.0329  0.7712
13594TIP3   OH262196   3.512   5.382  13.876 -0.0686 -0.3046 -0.0647
13594TIP3    H162197   3.483   5.361  13.965 -1.7964  0.9502 -0.2959
13594TIP3    H262198   3.586   5.441  13.888  0.3758 -0.9532  0.5182
13595TIP3   OH262199   3.914   6.103   5.216  0.0931  0.1445 -0.5201
13595TIP3    H162200   3.906   6.024   5.163  2.6729 -0.1708 -0.5425
13595TIP3    H262201   3.933   6.173   5.154 -0.4937  0.4708 -0.3393
13596TIP3   OH262202   5.239   3.101  12.530 -0.5471 -0.3000  0.4959
13596TIP3    H162203   5.332   3.079  12.524 -0.5186 -0.1889  0.5287
13596TIP3    H262204   5.212   3.069  12.616 -0.5626 -0.4200  0.4468
13597TIP3   OH262205   1.019   2.142  15.097  0.1159 -0.9969 -0.0601
13597TIP3    H162206   0.989   2.082  15.165 -0.3021 -0.9368 -0.1862
13597TIP3    H262207   0.940   2.188  15.070  0.7859  1.4383  1.8048
13598TIP3   OH262208   6.748   5.397  16.887  0.0230 -0.1057 -0.1660
13598TIP3    H162209   6.681   5.336  16.918 -0.3778  0.7796  0.7709
13598TIP3    H262210   6.831   5.355  16.909 -0.1699 -1.5317 -1.9511
13599TIP3   OH262211   3.385   6.253  14.282 -0.0146 -0.4838  0.1578
13599TIP3    H162212   3.382   6.298  14.197 -0.7270 -1.6902 -0.4772
13599TIP3    H262213   3.466   6.201  14.278  0.1391 -0.2644  0.3728
13600TIP3   OH262214   6.510   1.206   5.481 -0.4915 -0.8599  0.3698
13600TIP3    H162215   6.522   1.299   5.498 -1.7365 -0.7397  0.7000
13600TIP3    H262216   6.545   1.162   5.558  0.2916 -0.6900  0.1202
13601TIP3   OH262217   5.541   3.758   2.739 -0.1306 -0.1480  0.2341
13601TIP3    H162218   5.576   3.841   2.707  1.8114 -0.6858  0.8018
13601TIP3    H262219   5.524   3.774   2.832 -0.3213 -0.2073  0.2086
13602TIP3   OH262220   1.101   5.857  12.173 -0.2912  0.5690  0.8653
13602TIP3    H162221   1.131   5.940  12.135 -0.2587  0.3158  0.3403
13602TIP3    H262222   1.022   5.835  12.124 -0.3784  0.3570  1.0984
13603TIP3   OH262223   0.377   6.160  13.147 -0.3607  0.6901 -0.0254
13603TIP3    H162224   0.399   6.253  13.140 -0.7215  0.7186 -0.8880
13603TIP3    H262225   0.462   6.117  13.161 -0.2770  1.2096  1.2369
13604TIP3   OH262226   3.387   4.031   0.973 -0.0495  0.0860  0.0927
13604TIP3    H162227   3.478   4.014   0.950 -0.4767 -0.8340 -1.0408
13604TIP3    H262228   3.367   3.967   1.041 -0.1575 -0.4675 -0.4513
13605TIP3   OH262229   2.179   1.235  14.386 -0.6778 -0.1245  0.5394
13605TIP3    H162230   2.266   1.270  14.367 -1.1620  0.3179 -1.0802
13605TIP3    H262231   2.147   1.287  14.459 -0.3278  1.0617 -0.1209
13606TIP3   OH262232   2.148   0.672  15.908 -0.4773 -0.5255 -0.1587
13606TIP3    H162233   2.088   0.620  15.962 -0.5817 -0.0945  0.1472
13606TIP3    H262234   2.170   0.615  15.835  0.3505 -1.4506  0.7914
13607TIP3   OH262235   6.300   5.237   0.587  0.1194  0.1440  0.3271
13607TIP3    H162236   6.209   5.231   0.617 -0.6377 -1.1992 -2.0291
13607TIP3    H262237   6.350   5.191   0.654 -1.5854 -3.4891 -0.6267
13608TIP3   OH262238   0.249   5.449   6.328  0.2129 -0.2420 -0.1041
13608TIP3    H162239   0.206   5.403   6.257 -0.5675 -1.1660  0.9436
13608TIP3    H262240   0.215   5.538   6.323 -1.1749 -0.7406  0.1721
13609TIP3   OH262241   2.647   4.802  13.261 -0.1223 -0.4369 -0.1235
13609TIP3    H162242   2.676   4.885  13.223 -2.3265 -0.2859 -1.6710
13609TIP3    H262243   2.708   4.786  13.333  0.7925  2.1568 -0.2073
13610TIP3   OH262244   3.544   0.336  14.351 -0.1187  0.2232 -0.1366
13610TIP3    H162245   3.603   0.346  14.276  2.4641  0.0341  1.7670
13610TIP3    H262246   3.563   0.248  14.384 -1.4486  0.1940  0.5870
13611TIP3   OH262247   3.325   0.184   1.483 -0.4929 -0.3771  0.0767
13611TIP3    H162248   3.375   0.127   1.425 -0.4434 -0.3309  0.0739
13611TIP3    H262249   3.332   0.271   1.443 -0.2939 -0.3082  0.2558
13612TIP3   OH262250   4.766   0.220   4.945  0.2172  0.0680 -0.0217
13612TIP3    H162251   4.734   0.289   4.886 -2.1515 -0.1306  0.9344
13612TIP3    H262252   4.707   0.223   5.020  1.4598 -1.5315  1.0886
13613TIP3   OH262253   3.433   1.092   2.198 -0.0977 -0.9137  0.2881
13613TIP3    H162254   3.445   1.083   2.293 -1.9582  0.5440  0.7157
13613TIP3    H262255   3.521   1.079   2.162  0.9853  0.0700  2.3617
13614TIP3   OH262256   4.190   6.637  10.916 -0.2978 -0.3523  0.0020
13614TIP3    H162257   4.224   6.548  10.931  0.6847  0.0532  0.2857
13614TIP3    H262258   4.226   6.661  10.830  1.2415  0.5631  0.8573
13615TIP3   OH262259   0.006   0.526   5.260 -0.4383  0.4572 -0.6530
13615TIP3    H162260  -0.007   0.562   5.348 -0.5819  1.2764 -1.0070
13615TIP3    H262261  -0.079   0.487   5.237 -0.4563  0.4138 -0.5152
13616TIP3   OH262262   0.947   3.219   6.368 -0.0902  0.1534  0.3398
13616TIP3    H162263   0.890   3.180   6.302  0.7261  0.9659 -0.8968
13616TIP3    H262264   0.900   3.297   6.397  0.8613  1.5352 -1.6087
13617TIP3   OH262265   3.377   0.101   1.017  0.4327 -0.6881  0.3819
13617TIP3    H162266   3.344   0.187   1.041 -1.3959 -0.7178 -1.6139
13617TIP3    H262267   3.446   0.119   0.954 -0.5361 -0.6205 -0.7060
13618TIP3   OH262268   5.804   1.343  17.253  0.2271  0.6428 -0.0608
13618TIP3    H162269   5.840   1.259  17.228 -0.5166  0.5690 -0.9279
13618TIP3    H262270   5.876   1.388  17.298  0.8255 -0.1894 -0.1736
13619TIP3   OH262271   6.689   6.271  17.199 -0.4136 -0.0615 -0.4669
13619TIP3    H162272   6.668   6.331  17.271  1.2108  1.3606 -1.0976
13619TIP3    H262273   6.629   6.295  17.129 -0.1716  0.4120 -0.5105
13620TIP3   OH262274   5.126   0.442  11.385 -0.5116  0.1314  0.1532
13620TIP3    H162275   5.124   0.538  11.380 -0.9085  0.1444  0.5274
13620TIP3    H262276   5.034   0.416  11.383 -0.4178 -0.2227  0.4233
13621TIP3   OH262277   1.899   3.045   3.998 -0.0778 -0.2450  0.0282
13621TIP3    H162278   1.944   3.036   3.913 -0.9441 -1.2188 -0.3579
13621TIP3    H262279   1.969   3.034   4.063  0.3785 -0.9988 -0.5637
13622TIP3   OH262280   2.005   3.508  11.700 -0.2394  0.0114 -0.1256
13622TIP3    H162281   2.032   3.468  11.782 -1.4396 -0.8405 -0.1131
13622TIP3    H262282   2.081   3.557  11.670  0.3912 -0.1127  1.2164
13623TIP3   OH262283   5.106   6.305  13.211  0.0590  0.1074 -0.2003
13623TIP3    H162284   5.091   6.325  13.303  1.5211  0.7439 -0.0724
13623TIP3    H262285   5.138   6.387  13.173  0.9143 -0.5334 -0.9270
13624TIP3   OH262286   5.735   1.817  16.758 -0.3571 -0.5531  0.3238
13624TIP3    H162287   5.701   1.770  16.681 -0.1512 -1.2251  0.6309
13624TIP3    H262288   5.719   1.909  16.739  0.0644 -0.6781 -0.7142
13625TIP3   OH262289   0.594   2.754   4.402 -0.0878 -0.6283  0.0897
13625TIP3    H162290   0.541   2.738   4.324  1.4023 -0.9802 -0.8960
13625TIP3    H262291   0.559   2.695   4.468 -2.3978  0.7754  0.2321
13626TIP3   OH262292   2.409   5.356  11.451  0.1598 -0.0345  0.4634
13626TIP3    H162293   2.447   5.314  11.374 -1.1586  0.8958 -0.7399
13626TIP3    H262294   2.407   5.449  11.429 -0.9721  0.1615  1.2845
13627TIP3   OH262295   0.441   1.086   2.522 -0.0751 -0.0482  0.1479
13627TIP3    H162296   0.460   1.001   2.483 -0.1163 -1.1289  2.3201
13627TIP3    H262297   0.380   1.128   2.462  1.8337 -0.4630 -2.2096
13628TIP3   OH262298   0.064   0.992  16.345  0.3319  0.0345 -0.0024
13628TIP3    H162299   0.059   0.946  16.429  0.1397  0.7288  0.3844
13628TIP3    H262300   0.149   0.967  16.309  0.2803 -0.5201  0.2525
13629TIP3   OH262301   4.666   1.525   5.553  0.1368 -0.0734  0.2317
13629TIP3    H162302   4.661   1.621   5.550  0.0919 -0.0930 -0.4101
13629TIP3    H262303   4.660   1.504   5.646  1.8785  0.6320  0.5352
13630TIP3   OH262304   2.323   3.165  12.690 -0.1898  0.6541 -0.0866
13630TIP3    H162305   2.378   3.090  12.714 -0.6345 -0.2655 -1.7880
13630TIP3    H262306   2.239   3.147  12.731 -0.6649 -0.4414 -1.4414
13631TIP3   OH262307   3.403   1.149  13.154 -0.0400  0.3727  0.1534
13631TIP3    H162308   3.373   1.227  13.200  0.1107 -0.2444  1.3553
13631TIP3    H262309   3.414   1.084  13.223 -0.6897 -0.8844 -0.8821
13632TIP3   OH262310   4.813   1.037   4.262  0.3049 -0.1441 -0.2451
13632TIP3    H162311   4.748   1.107   4.265  0.9091  0.5331 -1.6692
13632TIP3    H262312   4.762   0.957   4.252 -0.3382  0.4626 -2.3758
13633TIP3   OH262313   2.290   1.582   2.807  0.0733  0.3230 -0.2431
13633TIP3    H162314   2.254   1.670   2.821 -0.7375 -0.2381  1.4415
13633TIP3    H262315   2.226   1.539   2.749 -1.0237 -0.0243  1.1617
13634TIP3   OH262316   2.612   5.514  15.683 -0.2385 -0.1214 -0.0610
13634TIP3    H162317   2.686   5.468  15.723 -0.6694 -0.0520  0.8382
13634TIP3    H262318   2.646   5.602  15.665 -0.2379  0.0536  0.7804
13635TIP3   OH262319   0.436   0.911  16.656 -0.1877  0.0962 -0.5396
13635TIP3    H162320   0.444   1.000  16.690  3.1139  0.1053 -1.0634
13635TIP3    H262321   0.449   0.855  16.733 -0.5778  0.0652 -0.4949
13636TIP3   OH262322   5.991   3.464   5.617  0.2128  0.7397 -0.4384
13636TIP3    H162323   5.910   3.440   5.661  0.7663  0.6266  0.5631
13636TIP3    H262324   5.988   3.419   5.533 -0.0008 -0.6585  0.2814
13637TIP3   OH262325   2.667   3.501   4.796  0.4605  0.2838  0.2552
13637TIP3    H162326   2.602   3.431   4.788  1.3516 -0.3686 -2.2876
13637TIP3    H262327   2.650   3.540   4.882 -2.0614 -1.0526  0.4651
13638TIP3   OH262328   2.485   1.523   0.622  0.3272  0.4113 -0.4130
13638TIP3    H162329   2.406   1.497   0.670  1.6607 -0.8839  1.2221
13638TIP3    H262330   2.456   1.531   0.531 -1.2873 -2.0935 -0.2452
13639TIP3   OH262331   4.021   1.584   1.009  0.5668  0.3958  0.9039
13639TIP3    H162332   4.009   1.494   1.039  1.5765  0.0778  0.3917
13639TIP3    H262333   4.006   1.580   0.915 -2.7490  1.4184  1.2738
13640TIP3   OH262334   3.068   3.110   2.254  0.2838  0.0996  0.9909
13640TIP3    H162335   3.059   3.200   2.221 -1.1841 -0.3238  0.1053
13640TIP3    H262336   3.092   3.059   2.176  1.9780 -0.1670  1.6611
13641TIP3   OH262337   2.761   2.120  15.521  0.6465  0.1324  0.3978
13641TIP3    H162338   2.722   2.120  15.434 -1.7035  0.1161  1.3737
13641TIP3    H262339   2.810   2.038  15.525  0.5613  0.0045 -0.8044
13642TIP3   OH262340   1.547   2.847   2.538  0.0677 -0.0786 -0.2418
13642TIP3    H162341   1.636   2.814   2.552 -0.3841 -1.0980  0.3990
13642TIP3    H262342   1.555   2.912   2.468  1.7265  1.7715  1.5367
13643TIP3   OH262343   0.528   5.434   1.198  0.4862  0.5394 -0.1223
13643TIP3    H162344   0.527   5.469   1.287 -0.2566  3.9312 -1.3436
13643TIP3    H262345   0.620   5.428   1.176  0.6547  0.4231  0.5727
13644TIP3   OH262346   4.221   4.091   0.067  0.5439 -0.2715 -0.8936
13644TIP3    H162347   4.290   4.105   0.002  0.6809  0.1573 -0.6592
13644TIP3    H262348   4.140   4.115   0.021  0.6563  0.1788 -0.8671
13645TIP3   OH262349   4.359   0.112  13.783 -0.8824  0.2632 -0.3431
13645TIP3    H162350   4.291   0.151  13.727 -1.6191 -0.7109 -0.1604
13645TIP3    H262351   4.314   0.092  13.865 -0.3117 -0.1587 -0.1220
13646TIP3   OH262352   6.261   4.188   1.223 -0.2107  0.4479  0.6502
13646TIP3    H162353   6.345   4.231   1.235 -1.1266  2.3174  0.8456
13646TIP3    H262354   6.278   4.095   1.238  1.5403  0.9338  1.9553
13647TIP3   OH262355   0.469   2.932  15.477  0.2273 -0.0356  0.1904
13647TIP3    H162356   0.555   2.941  15.436  0.7549 -0.8954  1.0567
13647TIP3    H262357   0.421   2.873  15.420  0.7550 -0.7663  0.4872
13648TIP3   OH262358   4.681   0.058  14.117  0.2774  0.1999 -0.1620
13648TIP3    H162359   4.766   0.046  14.159 -0.0998 -1.6171  0.1712
13648TIP3    H262360   4.618   0.029  14.182 -0.5322  0.5553 -0.7722
13649TIP3   OH262361   5.728   2.163   4.267 -0.1042 -0.0674 -0.1885
13649TIP3    H162362   5.638   2.195   4.265 -0.0910  0.0940  0.8156
13649TIP3    H262363   5.726   2.078   4.224 -0.1416  1.2517 -2.9683
13650TIP3   OH262364   3.270   5.310   5.541  0.6891  0.1858 -0.1535
13650TIP3    H162365   3.262   5.241   5.607  1.6554  0.6087  0.4308
13650TIP3    H262366   3.349   5.287   5.492  0.6012  0.4789 -0.4360
13651TIP3   OH262367   6.437   1.490   0.951  0.0389  0.2732  0.4198
13651TIP3    H162368   6.453   1.525   1.038  0.8796  0.7653  0.0752
13651TIP3    H262369   6.429   1.567   0.895  1.5605 -0.0462 -0.2903
13652TIP3   OH262370   3.284   6.638   1.303  0.2287  0.2202  0.6992
13652TIP3    H162371   3.328   6.588   1.371  0.3924  1.1420  1.2807
13652TIP3    H262372   3.316   6.601   1.221 -0.3610 -1.2506  1.0975
13653TIP3   OH262373   6.137   5.792  16.095 -0.4089  0.3463  0.1735
13653TIP3    H162374   6.114   5.766  16.006  2.7327 -1.0986 -0.3478
13653TIP3    H262375   6.220   5.838  16.086 -0.7985  1.6059  2.2588
13654TIP3   OH262376   2.665   3.302  15.218 -0.1516 -0.2277 -0.0227
13654TIP3    H162377   2.691   3.394  15.224  1.1374 -0.3873 -1.9354
13654TIP3    H262378   2.743   3.258  15.183 -0.8595 -1.9860  0.5119
13655TIP3   OH262379   2.901   1.817   4.044  0.0521  0.7619 -0.1826
13655TIP3    H162380   2.955   1.741   4.065 -0.3737  0.5224  0.0458
13655TIP3    H262381   2.829   1.782   3.991  0.3725  1.1505 -0.8895
13656TIP3   OH262382   5.476   3.600  11.173  0.8282 -0.2831  0.2406
13656TIP3    H162383   5.523   3.678  11.144 -1.0156  0.2242 -1.6781
13656TIP3    H262384   5.493   3.535  11.105  0.8188 -0.9406  0.8497
13657TIP3   OH262385   5.887   2.196   2.077  0.2801  0.8873  0.0859
13657TIP3    H162386   5.812   2.201   2.136  1.1358  2.1458  1.1151
13657TIP3    H262387   5.855   2.145   2.002 -1.6779  1.6142  0.3684
13658TIP3   OH262388   5.090   4.441  14.566  0.0663  0.3366 -0.8402
13658TIP3    H162389   5.171   4.457  14.614  0.8353 -0.2789 -1.8931
13658TIP3    H262390   5.025   4.497  14.609 -0.0818 -2.2430  2.8356
13659TIP3   OH262391   3.522   4.928  11.867  0.3455  0.5907  0.4460
13659TIP3    H162392   3.477   5.003  11.828  0.4854 -0.1996 -1.3603
13659TIP3    H262393   3.463   4.854  11.851  1.3319 -0.1002 -0.0813
13660TIP3   OH262394   2.233   0.961  15.485  0.8224  0.7650 -0.2946
13660TIP3    H162395   2.303   0.948  15.421  1.2311  1.7563 -0.0629
13660TIP3    H262396   2.256   0.903  15.558  0.9067  0.4113 -0.5971
13661TIP3   OH262397   5.478   4.579  11.538  0.0915  0.0145  0.2024
13661TIP3    H162398   5.386   4.601  11.557 -0.5343 -1.5794 -0.8020
13661TIP3    H262399   5.516   4.560  11.624  0.3945  3.6273  1.0322
13662TIP3   OH262400   5.110   5.167  12.315 -0.2175  0.3050  0.1893
13662TIP3    H162401   5.169   5.108  12.268  1.8801  1.0306  1.7361
13662TIP3    H262402   5.133   5.254  12.284 -1.4039  0.5226 -0.1131
13663TIP3   OH262403   4.140   1.458  15.443  0.5999  0.5026 -0.2706
13663TIP3    H162404   4.233   1.467  15.422  0.7874 -0.2704  0.1804
13663TIP3    H262405   4.138   1.451  15.538 -0.1062  2.4039 -0.1005
13664TIP3   OH262406   2.690   4.365  12.267 -0.2832 -0.8204 -0.2794
13664TIP3    H162407   2.712   4.444  12.217 -0.3475 -0.8919 -0.4202
13664TIP3    H262408   2.766   4.308  12.257  0.0081 -0.5417  0.3008
13665TIP3   OH262409   3.875   1.170  13.479  0.2816  0.9178  0.0489
13665TIP3    H162410   3.805   1.231  13.455  0.1182  1.1621  1.0918
13665TIP3    H262411   3.947   1.226  13.506  1.3200  0.6945 -2.0644
13666TIP3   OH262412   4.111   4.789   2.215  0.0260 -0.1350 -0.1435
13666TIP3    H162413   4.088   4.761   2.303  0.5284  0.0913  0.0618
13666TIP3    H262414   4.143   4.879   2.226  0.2202 -0.1535 -0.5353
13667TIP3   OH262415   3.112   3.369   5.355  0.3051 -0.5093 -0.2699
13667TIP3    H162416   3.030   3.372   5.404  0.4285 -1.4758  0.0146
13667TIP3    H262417   3.157   3.291   5.387  1.9897  0.7614  0.6091
13668TIP3   OH262418   2.427   4.320  14.656  0.3328  0.6831  0.7165
13668TIP3    H162419   2.474   4.259  14.713 -0.6365  0.0696  0.8681
13668TIP3    H262420   2.374   4.264  14.599 -0.2314  1.3644  0.5609
13669TIP3   OH262421   5.304   1.932   2.928 -0.4038  0.4573  0.0907
13669TIP3    H162422   5.224   1.979   2.951 -0.8591  0.9943 -2.2731
13669TIP3    H262423   5.294   1.847   2.970 -1.7083  0.8818  0.7227
13670TIP3   OH262424   0.044   1.968  11.270  0.5486  0.8005 -0.3850
13670TIP3    H162425   0.069   1.904  11.203 -1.5316 -1.8202  1.1306
13670TIP3    H262426   0.106   1.953  11.342 -0.2936  0.0428  0.1972
13671TIP3   OH262427   4.325   4.562  15.186 -0.5342 -0.3126  0.1473
13671TIP3    H162428   4.274   4.589  15.109  1.5568 -0.5937 -1.4311
13671TIP3    H262429   4.291   4.476  15.209 -0.3572 -0.8050 -1.3247
13672TIP3   OH262430   6.152   1.664   5.922  0.4928 -0.3960 -0.0640
13672TIP3    H162431   6.064   1.627   5.924 -0.1431  0.9516 -0.9222
13672TIP3    H262432   6.149   1.738   5.982  0.3041  1.0625 -1.7684
13673TIP3   OH262433   0.672   0.513   5.942  0.0519 -0.9597 -0.3152
13673TIP3    H162434   0.690   0.470   6.026  1.0683  1.6781  0.9109
13673TIP3    H262435   0.757   0.547   5.913 -0.7937  0.7956 -0.8623
13674TIP3   OH262436   1.526   0.234   2.236  0.0899  0.3631  0.0280
13674TIP3    H162437   1.534   0.141   2.259  3.6638  0.6019  0.3027
13674TIP3    H262438   1.432   0.251   2.240 -0.8208 -3.4150 -0.8707
13675TIP3   OH262439   1.094   1.301  11.971  0.5079 -0.3796 -0.0929
13675TIP3    H162440   1.149   1.223  11.975 -0.3754 -1.1016 -1.3857
13675TIP3    H262441   1.010   1.270  11.937  0.7473  1.4040 -2.6743
13676TIP3   OH262442   4.757   3.175  14.814  0.2194  0.0119 -0.1631
13676TIP3    H162443   4.827   3.214  14.761 -0.1952  0.2782 -0.5322
13676TIP3    H262444   4.682   3.232  14.798 -0.3277 -0.7795 -0.4909
13677TIP3   OH262445   5.951   1.900   4.012 -0.0845  0.2452 -0.3079
13677TIP3    H162446   5.965   1.882   4.105  0.8646  0.7514 -0.3375
13677TIP3    H262447   6.032   1.873   3.970 -0.6258 -0.2674 -1.0407
13678TIP3   OH262448   0.657   3.704  11.299 -0.0601  0.3146 -0.5087
13678TIP3    H162449   0.567   3.687  11.329 -0.8601  1.2427 -2.2400
13678TIP3    H262450   0.665   3.654  11.218  0.5678  1.1541 -0.9801
13679TIP3   OH262451   5.797   3.530  13.582 -0.0071  0.1732 -0.5519
13679TIP3    H162452   5.752   3.614  13.590  0.6506  0.5119 -0.3155
13679TIP3    H262453   5.863   3.544  13.515  1.9880  0.7285  1.4020
13680TIP3   OH262454   1.291   6.278   4.591  0.2197 -0.1490  0.4602
13680TIP3    H162455   1.314   6.366   4.619  0.5754 -0.2275  0.4157
13680TIP3    H262456   1.219   6.291   4.529  1.9269  0.3139 -1.5240
13681TIP3   OH262457   5.090   3.212   1.948 -0.1371 -0.1219  0.3982
13681TIP3    H162458   5.012   3.238   1.997 -0.1546  1.2728 -0.3324
13681TIP3    H262459   5.157   3.197   2.015 -0.8184 -0.6463  0.9829
13682TIP3   OH262460   4.106   3.661  12.975 -0.2165  0.0642  0.3533
13682TIP3    H162461   4.068   3.672  13.062 -1.4851 -1.1491 -0.0240
13682TIP3    H262462   4.045   3.705  12.916 -0.1353 -0.4137 -0.0862
13683TIP3   OH262463   4.778   4.600   2.663  0.0928 -0.1504  0.7674
13683TIP3    H162464   4.686   4.599   2.636  0.0119 -1.1107  1.0667
13683TIP3    H262465   4.810   4.512   2.644  1.5297  0.7096 -1.2076
13684TIP3   OH262466   4.846   2.878   3.988 -0.0898 -0.2645 -0.3333
13684TIP3    H162467   4.837   2.877   4.084 -1.4534 -0.1353 -0.4441
13684TIP3    H262468   4.777   2.819   3.957 -2.1417  2.5131 -1.4009
13685TIP3   OH262469   0.982   3.519  15.244 -0.2010  0.3727 -0.3429
13685TIP3    H162470   0.980   3.513  15.149  0.0033 -0.9083 -0.2816
13685TIP3    H262471   0.930   3.445  15.275  1.4627 -0.4946  0.5448
13686TIP3   OH262472   0.563   5.312  16.255 -0.5734  0.3685 -0.0898
13686TIP3    H162473   0.531   5.392  16.296 -0.4099  0.9282 -1.0076
13686TIP3    H262474   0.625   5.343  16.188 -0.0597 -0.5544 -0.0620
13687TIP3   OH262475   6.436   2.648   4.722 -0.8543  0.3168 -0.3798
13687TIP3    H162476   6.398   2.593   4.654  0.0774 -0.0528 -0.6187
13687TIP3    H262477   6.364   2.705   4.750 -1.3187  0.2843 -1.4676
13688TIP3   OH262478   6.688   6.485   2.882 -0.3034  0.1114 -0.1477
13688TIP3    H162479   6.652   6.405   2.920  0.1931  0.6134  1.4510
13688TIP3    H262480   6.771   6.457   2.842 -0.8476 -0.4281 -0.9376
13689TIP3   OH262481   1.911   4.073   5.377 -0.2330 -0.2067  0.1121
13689TIP3    H162482   1.900   4.017   5.453 -3.7088 -0.8998 -0.7248
13689TIP3    H262483   1.864   4.153   5.398  1.6458  1.0105 -0.0844
13690TIP3   OH262484   6.546   6.212   2.467 -0.3627  0.2140 -0.0379
13690TIP3    H162485   6.602   6.168   2.403 -1.1088  0.6764 -1.0404
13690TIP3    H262486   6.470   6.241   2.416 -1.6643 -0.6741  1.3431
13691TIP3   OH262487   1.649   1.302  10.992  0.0280  0.4228  0.3191
13691TIP3    H162488   1.687   1.390  10.990  0.6482  0.1795  1.0183
13691TIP3    H262489   1.717   1.246  10.954 -0.7631  0.3669 -1.0984
13692TIP3   OH262490   4.876   5.539   5.601 -0.0374 -0.1051 -0.3314
13692TIP3    H162491   4.800   5.550   5.658 -2.0074 -0.8512 -2.6480
13692TIP3    H262492   4.935   5.611   5.625 -0.3668 -0.7906  3.0681
13693TIP3   OH262493   6.710   4.113  14.419 -0.1773  0.2291  0.7483
13693TIP3    H162494   6.674   4.117  14.330 -1.6691  1.2023  1.3653
13693TIP3    H262495   6.633   4.106  14.475  0.7643 -0.6182  1.9622
13694TIP3   OH262496   5.133   6.224  16.592  0.5929 -0.3649 -0.2915
13694TIP3    H162497   5.142   6.130  16.608 -0.3868 -0.4196 -0.0603
13694TIP3    H262498   5.115   6.230  16.498 -0.5436 -0.4933 -0.0880
13695TIP3   OH262499   0.908   3.772  12.118 -0.1824 -0.1485 -0.2851
13695TIP3    H162500   0.840   3.795  12.054 -0.5994  0.3653  0.3321
13695TIP3    H262501   0.946   3.691  12.084 -1.5375 -0.8152 -0.3088
13696TIP3   OH262502   5.942   3.716   5.575 -0.0042 -0.3409 -0.3992
13696TIP3    H162503   5.855   3.707   5.614 -0.2371  0.7793 -0.6368
13696TIP3    H262504   5.976   3.627   5.571 -1.7507 -0.9874 -1.7425
13697TIP3   OH262505   2.898   2.261  16.227 -0.3932  0.2709 -0.6737
13697TIP3    H162506   2.855   2.345  16.240  0.7477  0.7549  0.1616
13697TIP3    H262507   2.991   2.278  16.244 -0.3232 -1.4515  1.0347
13698TIP3   OH262508   4.785   1.646   0.836 -0.0658 -0.1228  0.1665
13698TIP3    H162509   4.756   1.652   0.928 -0.4396 -0.2882  0.0628
13698TIP3    H262510   4.880   1.655   0.840 -0.0689 -0.2470  0.5842
13699TIP3   OH262511   0.394   4.984   4.480 -1.0485  0.2574 -0.4376
13699TIP3    H162512   0.478   5.030   4.484 -0.3184 -1.0636  0.0871
13699TIP3    H262513   0.333   5.041   4.527 -0.3399  1.0087 -0.4027
13700TIP3   OH262514   2.898   2.503   0.862  0.1322  0.1525 -0.1557
13700TIP3    H162515   2.830   2.436   0.870  0.5123 -0.3807 -1.2259
13700TIP3    H262516   2.876   2.567   0.930 -2.1690  0.6316 -1.2593
13701TIP3   OH262517   4.322   6.339  12.317  0.0609 -0.3768  0.0066
13701TIP3    H162518   4.298   6.304  12.232  0.9047  0.0997 -0.4435
13701TIP3    H262519   4.273   6.286  12.380 -2.6442  0.9598 -0.8275
13702TIP3   OH262520   5.372   0.394  14.575 -0.6849  0.5122  0.5586
13702TIP3    H162521   5.331   0.443  14.647 -0.2296 -0.4653  1.5038
13702TIP3    H262522   5.440   0.453  14.541  0.0826  0.4231  1.8971
13703TIP3   OH262523   3.274   3.633   4.499  0.2760  0.1512  0.0212
13703TIP3    H162524   3.234   3.690   4.565 -1.2342  1.0755 -1.6026
13703TIP3    H262525   3.351   3.681   4.471 -0.7298  1.2484 -0.9978
13704TIP3   OH262526   4.457   5.232   5.092  0.3590  0.7879 -0.0190
13704TIP3    H162527   4.498   5.259   5.009  1.8948  1.1050  0.8037
13704TIP3    H262528   4.515   5.164   5.126 -0.9644 -0.2801  0.1985
13705TIP3   OH262529   6.598   0.790   0.129 -0.0231 -0.0218  0.6302
13705TIP3    H162530   6.645   0.712   0.100  0.0370  0.6627 -1.2627
13705TIP3    H262531   6.592   0.781   0.224  0.1306 -2.2360  0.4804
13706TIP3   OH262532   5.241   1.310   7.024 -0.1045  0.5622 -0.1286
13706TIP3    H162533   5.257   1.404   7.015 -1.2835  0.7423 -0.4674
13706TIP3    H262534   5.281   1.287   7.108  0.9558  1.1752 -0.4405
13707TIP3   OH262535   1.243   3.248  13.151 -0.6486 -0.1228 -0.1955
13707TIP3    H162536   1.336   3.254  13.130 -0.3920  2.6754  1.2867
13707TIP3    H262537   1.199   3.280  13.072 -0.2355  0.5289 -0.1708
13708TIP3   OH262538   4.718   3.614   4.329 -0.1406 -0.4830 -0.0184
13708TIP3    H162539   4.795   3.583   4.281  0.4555  0.1823  0.4855
13708TIP3    H262540   4.653   3.632   4.261  0.5022 -0.0741 -0.5447
13709TIP3   OH262541   2.328   3.671  11.659 -0.0630  0.0082  0.5695
13709TIP3    H162542   2.285   3.751  11.689  0.2936  1.4510 -2.4297
13709TIP3    H262543   2.422   3.690  11.669  0.0466  0.3464 -0.8921
13710TIP3   OH262544   0.446   6.670  11.777  0.0035  0.3014 -0.1720
13710TIP3    H162545   0.381   6.602  11.794 -2.1895  2.7725  2.1796
13710TIP3    H262546   0.461   6.711  11.862  2.8229  1.4951 -1.1221
13711TIP3   OH262547   0.859   4.859  12.409  0.0237  1.0757 -0.1961
13711TIP3    H162548   0.857   4.845  12.504  0.3072  1.6128 -0.1012
13711TIP3    H262549   0.768   4.871  12.384 -0.3441 -1.6389 -0.4278
13712TIP3   OH262550   1.277   3.835   0.370  0.6859  0.8438  0.1209
13712TIP3    H162551   1.289   3.870   0.459 -1.6067  1.4859  0.2454
13712TIP3    H262552   1.281   3.912   0.313 -2.8260  1.3003  0.2491
13713TIP3   OH262553   3.247   6.201  13.097  0.4021 -0.1348  0.4203
13713TIP3    H162554   3.181   6.192  13.028  1.5381 -2.2269 -0.4709
13713TIP3    H262555   3.199   6.184  13.178 -0.3295 -0.7710 -0.1343
13714TIP3   OH262556   3.636   0.152   0.850 -0.2268  0.6685 -0.5005
13714TIP3    H162557   3.630   0.221   0.916 -1.0595  0.1628 -0.0422
13714TIP3    H262558   3.694   0.086   0.890  0.3315  0.9643 -0.8176
13715TIP3   OH262559   0.288   0.893   0.125 -0.2245 -0.2826 -0.1090
13715TIP3    H162560   0.232   0.816   0.128 -0.8642  0.1882  2.2742
13715TIP3    H262561   0.352   0.874   0.056 -2.2639 -1.5440 -1.7509
13716TIP3   OH262562   0.101   0.064   1.281 -0.0876 -0.2097 -0.1258
13716TIP3    H162563   0.031   0.017   1.235 -1.6614 -0.5707  2.4295
13716TIP3    H262564   0.154  -0.006   1.320 -0.3071  0.0709  0.6979
13717TIP3   OH262565   0.239   3.614   4.863  0.1149  0.6660  0.1016
13717TIP3    H162566   0.291   3.568   4.797  0.9242  1.8798 -0.1231
13717TIP3    H262567   0.300   3.630   4.935  0.0113  1.9292 -0.0782
13718TIP3   OH262568   2.254   6.742   2.241  0.2157 -0.3646  0.5073
13718TIP3    H162569   2.216   6.750   2.328  0.8893  1.6037  0.6784
13718TIP3    H262570   2.248   6.830   2.204  0.7775 -0.9584 -1.0849
13719TIP3   OH262571   4.638   3.552  11.334  0.2156 -0.5838 -0.2394
13719TIP3    H162572   4.626   3.543  11.240 -0.3551 -0.2124 -0.2079
13719TIP3    H262573   4.698   3.625  11.345 -0.3330 -0.1143 -0.2997
13720TIP3   OH262574   3.064   1.396  15.578 -0.2274 -0.5341  0.3352
13720TIP3    H162575   3.080   1.320  15.523  2.8354 -0.4110  0.8941
13720TIP3    H262576   3.120   1.383  15.654 -0.7057  1.6100  1.1240
13721TIP3   OH262577   3.554   0.832   5.441  0.5091  0.2427 -0.0973
13721TIP3    H162578   3.487   0.764   5.432  1.5074 -0.6766 -0.8195
13721TIP3    H262579   3.535   0.894   5.371 -0.7554  1.0461  0.9205
13722TIP3   OH262580   6.412   5.847  13.823 -0.0011 -0.5098 -0.1782
13722TIP3    H162581   6.486   5.841  13.763 -0.1933  0.3488 -0.5093
13722TIP3    H262582   6.429   5.926  13.875 -1.0788  0.1639 -0.8100
13723TIP3   OH262583   5.469   3.259  16.856 -0.2456  0.0638  0.2427
13723TIP3    H162584   5.521   3.193  16.810  0.0882 -1.1674  2.2486
13723TIP3    H262585   5.423   3.210  16.924 -1.8292  1.5709  0.3211
13724TIP3   OH262586   6.242   3.645  14.429  0.1167  0.0436 -0.1155
13724TIP3    H162587   6.219   3.585  14.358 -1.4743  1.4082 -0.8372
13724TIP3    H262588   6.333   3.623  14.451  0.2030 -1.3122 -1.6520
13725TIP3   OH262589   3.199   5.996  13.595 -0.1587  0.2509  0.0091
13725TIP3    H162590   3.267   5.988  13.662  1.2394 -0.6238 -1.4210
13725TIP3    H262591   3.179   6.090  13.592  1.8381  0.7182 -0.2916
13726TIP3   OH262592   1.450   6.667   1.531  0.2609  0.2347 -0.0732
13726TIP3    H162593   1.468   6.654   1.624 -2.2834  1.6673  0.7253
13726TIP3    H262594   1.498   6.597   1.487 -1.3170 -2.7856  2.6045
13727TIP3   OH262595   4.854   2.351  14.023  0.0004  0.3997 -0.8495
13727TIP3    H162596   4.901   2.405  13.960  0.1712  1.2151 -0.0527
13727TIP3    H262597   4.762   2.362  14.001  0.0978  0.0900 -1.4126
13728TIP3   OH262598   4.526   0.763   6.751  0.4311 -0.1274  0.3236
13728TIP3    H162599   4.557   0.773   6.841 -0.3299  0.2526  0.5583
13728TIP3    H262600   4.446   0.816   6.748  0.5187 -0.0334 -0.6132
13729TIP3   OH262601   1.761   5.062   2.753  0.4814 -0.0085  0.3727
13729TIP3    H162602   1.758   5.089   2.662 -0.5373  1.2270  0.7378
13729TIP3    H262603   1.793   4.972   2.751 -2.0920 -1.0186 -1.4437
13730TIP3   OH262604   1.945   1.594  14.236  0.3068 -0.1329 -0.1903
13730TIP3    H162605   1.927   1.501  14.225  0.5781  0.0509 -2.8000
13730TIP3    H262606   2.007   1.598  14.309  1.5701 -2.1665 -1.0757
13731TIP3   OH262607   5.914   4.449   5.085  0.1334  0.7300 -0.0108
13731TIP3    H162608   6.001   4.424   5.052  0.5029  3.0255 -0.9433
13731TIP3    H262609   5.925   4.538   5.119 -1.6068  0.6153  0.9947
13732TIP3   OH262610   2.132   6.639  14.539 -0.3046 -0.1825 -0.5681
13732TIP3    H162611   2.123   6.663  14.631  0.6621  1.5443 -0.8825
13732TIP3    H262612   2.067   6.692  14.493 -0.7492 -0.9993 -0.9123
13733TIP3   OH262613   5.525   5.881   3.498  0.0085  0.0139 -0.4173
13733TIP3    H162614   5.460   5.870   3.428  0.2378 -0.9318 -0.4913
13733TIP3    H262615   5.512   5.971   3.528 -3.1202 -0.8830  1.3395
13734TIP3   OH262616   2.584   4.181  13.202 -1.3413  0.3559 -0.8129
13734TIP3    H162617   2.508   4.175  13.260  0.5551 -0.6009  1.7568
13734TIP3    H262618   2.628   4.261  13.229  0.3440 -0.8397  0.1606
13735TIP3   OH262619   0.512   4.779   5.116 -0.0075  0.3322 -0.3845
13735TIP3    H162620   0.432   4.760   5.164  0.9434  0.9967  1.5700
13735TIP3    H262621   0.494   4.748   5.027 -1.6660 -1.4603  0.4825
13736TIP3   OH262622   5.472   1.342  13.312 -0.1878  0.5778  0.7826
13736TIP3    H162623   5.399   1.309  13.365 -0.0849  1.5465  1.5594
13736TIP3    H262624   5.448   1.432  13.291  0.1165  0.4362 -0.2218
13737TIP3   OH262625   3.018   1.787  12.879 -0.6910 -0.1002 -0.5876
13737TIP3    H162626   2.949   1.730  12.845 -0.5471 -1.3052  1.0218
13737TIP3    H262627   3.085   1.786  12.811 -0.8564 -1.5777 -0.7781
13738TIP3   OH262628   5.804   5.131   2.417 -0.1790 -0.1410 -0.4364
13738TIP3    H162629   5.803   5.035   2.416  1.8769 -0.2218 -0.1983
13738TIP3    H262630   5.763   5.157   2.335 -0.3156 -1.2315 -0.7287
13739TIP3   OH262631   0.359   0.424  14.102  0.0945  0.6971 -0.5672
13739TIP3    H162632   0.395   0.430  14.014  0.9286  0.1207 -0.2735
13739TIP3    H262633   0.393   0.501  14.148  2.3778 -0.6610  0.1921
13740TIP3   OH262634   0.674   5.796  10.435 -0.2579 -0.3386 -0.6085
13740TIP3    H162635   0.641   5.782  10.524 -0.8964 -0.0196 -0.7889
13740TIP3    H262636   0.718   5.715  10.413  1.1653  0.0849  0.5323
13741TIP3   OH262637   4.047   6.714   6.491  0.7557 -0.2369 -0.9147
13741TIP3    H162638   4.068   6.630   6.531 -0.4362 -0.4072 -0.6075
13741TIP3    H262639   4.022   6.693   6.402  1.0594 -0.1332 -1.0256
13742TIP3   OH262640   5.595   0.828   0.647  0.5733  0.2918 -0.5368
13742TIP3    H162641   5.503   0.831   0.620  1.0666  0.7000 -2.3303
13742TIP3    H262642   5.598   0.880   0.727 -0.7333  0.4452 -0.5607
13743TIP3   OH262643   0.155   1.320  13.598  0.0710  0.4810 -0.5278
13743TIP3    H162644   0.164   1.352  13.688 -0.2690  2.2287 -1.0764
13743TIP3    H262645   0.074   1.268  13.600  0.2752  0.1726  0.2535
13744TIP3   OH262646   4.941   3.159  15.801 -0.3191  0.4750  0.0117
13744TIP3    H162647   4.958   3.173  15.708 -3.1448  0.4558 -0.5832
13744TIP3    H262648   4.854   3.197  15.816  0.3218  1.0633  2.8117
13745TIP3   OH262649   3.001   3.453   3.967  0.6540 -0.0388 -0.8584
13745TIP3    H162650   2.909   3.473   3.948  0.8414  0.4507 -1.2528
13745TIP3    H262651   3.048   3.480   3.889  1.2902  0.8812 -0.1730
13746TIP3   OH262652   5.704   1.201   5.238 -0.0968  0.4924 -0.6724
13746TIP3    H162653   5.708   1.139   5.311 -0.1921  0.4178 -0.7290
13746TIP3    H262654   5.717   1.147   5.160  0.2624  0.6096 -0.6959
13747TIP3   OH262655   3.585   1.126  16.377  0.4102  0.4196  0.3708
13747TIP3    H162656   3.670   1.103  16.415  0.0827  0.1014  0.9239
13747TIP3    H262657   3.539   1.171  16.448 -0.3380 -0.4752  0.4775
13748TIP3   OH262658   0.480   0.159  15.290  0.3550  0.1603  0.6092
13748TIP3    H162659   0.549   0.195  15.235  0.0534  0.4429  0.4169
13748TIP3    H262660   0.524   0.135  15.371  0.7555 -0.0403  0.3322
13749TIP3   OH262661   0.609   3.414  13.660 -0.5978  0.5046  0.5693
13749TIP3    H162662   0.562   3.479  13.609 -0.8283  0.1929  0.3833
13749TIP3    H262663   0.575   3.330  13.630  0.4084  0.2578  0.0877
13750TIP3   OH262664   1.920   1.317  17.062  0.2658 -0.4228 -0.5818
13750TIP3    H162665   1.856   1.294  17.129  0.0088  0.7291 -0.4267
13750TIP3    H262666   1.874   1.302  16.979  0.3058 -1.0335 -0.5005
13751TIP3   OH262667   5.359   3.127   3.097  0.1175 -1.3288  0.6183
13751TIP3    H162668   5.386   3.088   3.179 -1.0857  0.4247  1.9222
13751TIP3    H262669   5.439   3.161   3.058  0.3905  0.1268  2.3620
13752TIP3   OH262670   3.764   2.734   2.965  0.9205 -0.4150  0.4379
13752TIP3    H162671   3.829   2.771   3.025  0.5776 -0.6228  0.9448
13752TIP3    H262672   3.734   2.654   3.008  3.4857 -2.7769 -1.7860
13753TIP3   OH262673   3.859   2.268  15.282 -0.3644  0.0024 -0.5546
13753TIP3    H162674   3.813   2.345  15.315  0.1982  0.1660 -0.1327
13753TIP3    H262675   3.931   2.255  15.344  0.2793 -0.1185 -1.3140
13754TIP3   OH262676   1.250   1.917  13.604  0.2819 -0.1614  0.0164
13754TIP3    H162677   1.192   1.948  13.535  0.2216 -0.6210 -0.1371
13754TIP3    H262678   1.254   1.990  13.666 -0.7223 -0.2533  0.1983
13755TIP3   OH262679   4.127   3.813   3.400 -1.0411  0.3100  0.5119
13755TIP3    H162680   4.072   3.760   3.457 -1.6678 -0.9816 -1.2201
13755TIP3    H262681   4.147   3.757   3.325  0.7738  1.5202  0.0147
13756TIP3   OH262682   1.627   6.361   5.318 -0.1803 -0.0476 -0.5408
13756TIP3    H162683   1.667   6.285   5.361  0.5232  0.2906 -0.5871
13756TIP3    H262684   1.586   6.410   5.390 -1.8452 -1.1665 -0.6712
13757TIP3   OH262685   1.002   4.031   1.350  0.1436  0.2325  0.1880
13757TIP3    H162686   1.078   4.074   1.389  1.8505 -1.0143 -1.5692
13757TIP3    H262687   0.973   4.089   1.281  0.4477  0.0362 -0.1079
13758TIP3   OH262688   5.585   1.756   2.513 -0.1890 -0.1693 -0.8480
13758TIP3    H162689   5.501   1.795   2.491  0.6713  1.9249 -0.6106
13758TIP3    H262690   5.597   1.686   2.449 -1.3489  0.6063 -1.9438
13759TIP3   OH262691   6.499   5.488   3.769  0.4287  0.2087  0.4496
13759TIP3    H162692   6.590   5.488   3.799  0.5327  0.2218  0.1363
13759TIP3    H262693   6.464   5.404   3.799  0.2346  0.6468  1.4888
13760TIP3   OH262694   5.958   5.174   3.850 -0.1598 -0.3611  0.0239
13760TIP3    H162695   6.002   5.254   3.822  2.5836 -2.0348 -0.7690
13760TIP3    H262696   5.973   5.170   3.944  0.1412 -0.1966 -0.0159
13761TIP3   OH262697   1.741   3.239  10.762 -0.0846  0.4304  0.5955
13761TIP3    H162698   1.708   3.160  10.719 -1.9057  0.5418  1.6748
13761TIP3    H262699   1.668   3.301  10.757  0.6458  1.3822  1.4208
13762TIP3   OH262700   5.326   3.760  12.908 -0.0915  0.1187 -0.0632
13762TIP3    H162701   5.261   3.694  12.884 -1.7475  1.4574  0.5414
13762TIP3    H262702   5.276   3.841  12.915  1.5833  1.1224  0.8692
13763TIP3   OH262703   5.836   3.048  12.910  0.1013 -0.3032 -0.9236
13763TIP3    H162704   5.802   3.107  12.977 -0.5364 -1.8604  0.1755
13763TIP3    H262705   5.883   3.105  12.850 -0.2124  1.2795  0.2698
13764TIP3   OH262706   2.214   1.566  16.420 -0.0716  0.1757  0.0075
13764TIP3    H162707   2.172   1.495  16.370 -0.5832  0.8177 -0.4880
13764TIP3    H262708   2.208   1.642  16.362 -0.8956  1.0002  1.1569
13765TIP3   OH262709   0.750   3.617   2.831  0.4925 -0.3032 -0.2828
13765TIP3    H162710   0.791   3.651   2.752  0.6120 -0.3102 -0.2250
13765TIP3    H262711   0.733   3.524   2.812 -1.5342  0.1824 -1.1337
13766TIP3   OH262712   2.969   6.328  11.998  0.3260  0.5411 -0.2493
13766TIP3    H162713   3.017   6.285  12.069 -1.3177 -1.2998 -0.1478
13766TIP3    H262714   2.990   6.275  11.920 -1.5137 -0.3813 -0.1795
13767TIP3   OH262715   5.207   4.555  15.203 -0.0159  0.5617 -0.7368
13767TIP3    H162716   5.170   4.566  15.116 -4.1616  2.5006  1.0039
13767TIP3    H262717   5.200   4.461  15.221 -0.4762  0.3449 -1.9817
13768TIP3   OH262718   3.981   5.914  14.043 -0.3090  0.3553  0.6749
13768TIP3    H162719   3.890   5.888  14.030 -0.0840  0.1482 -0.7072
13768TIP3    H262720   4.015   5.927  13.954  0.7067  1.4976  1.1887
13769TIP3   OH262721   0.093   5.306  15.812 -0.2244 -0.8226 -0.2430
13769TIP3    H162722   0.136   5.233  15.857  1.0358 -1.5269 -2.4400
13769TIP3    H262723   0.165   5.356  15.773 -1.1091  1.2516  0.6363
13770TIP3   OH262724   0.060   3.098   5.262  0.2748  0.3170 -0.5830
13770TIP3    H162725   0.133   3.115   5.201  1.3336 -1.3783  0.1456
13770TIP3    H262726   0.026   3.013   5.235  0.6398 -0.3830  1.0521
13771TIP3   OH262727   3.348   4.053   1.954 -0.4768  0.4701 -0.0103
13771TIP3    H162728   3.327   4.146   1.955  0.8448  0.8160  2.2864
13771TIP3    H262729   3.434   4.047   1.995 -1.4443 -1.9232  1.8941
13772TIP3   OH262730   6.472   6.673  16.945 -0.2477  0.1189  0.0309
13772TIP3    H162731   6.478   6.749  16.887 -2.0385  1.7746  1.8702
13772TIP3    H262732   6.378   6.658  16.955  0.0442 -1.0278  1.3562
13773TIP3   OH262733   5.620   2.866   4.989 -0.5267  0.4598 -0.5488
13773TIP3    H162734   5.620   2.856   5.085  1.3805  1.5753 -0.3846
13773TIP3    H262735   5.678   2.796   4.958  1.6615  2.1749 -0.5433
13774TIP3   OH262736   3.542   1.761   3.833  0.9583  0.4479 -0.0034
13774TIP3    H162737   3.454   1.747   3.866  1.0761  0.8215  0.4760
13774TIP3    H262738   3.584   1.675   3.839 -0.1980 -0.4118 -2.8155
13775TIP3   OH262739   4.654   1.981  14.603 -0.2429  0.0697  0.2263
13775TIP3    H162740   4.687   2.064  14.570 -0.0604 -0.1491 -0.1472
13775TIP3    H262741   4.731   1.925  14.609 -0.5132 -0.4056 -0.5407
13776TIP3   OH262742   4.949   1.094  15.123  0.4301  0.0731 -0.4415
13776TIP3    H162743   4.983   1.025  15.065  0.0575 -0.8277  0.3933
13776TIP3    H262744   4.854   1.085  15.118  0.4075 -0.7292  1.1466
13777TIP3   OH262745   2.497   3.750   5.795  0.2021  0.9483 -0.2526
13777TIP3    H162746   2.442   3.793   5.861  1.2726 -0.6342  1.8043
13777TIP3    H262747   2.560   3.699   5.846 -0.9154 -3.0105 -2.4143
13778TIP3   OH262748   0.467   0.499   0.603 -0.4433 -0.2478 -0.2199
13778TIP3    H162749   0.446   0.406   0.592  1.7023 -1.0981  1.9011
13778TIP3    H262750   0.465   0.513   0.697  0.5725  1.5248 -0.4195
13779TIP3   OH262751   1.628   4.217  13.742 -0.0717  0.4067  0.5355
13779TIP3    H162752   1.560   4.264  13.694 -0.9783 -1.5683 -0.2544
13779TIP3    H262753   1.704   4.217  13.684 -0.7239 -0.7866 -0.3567
13780TIP3   OH262754   4.524   5.890   0.118  0.4934  0.2293 -0.5286
13780TIP3    H162755   4.467   5.854   0.050  1.8577 -2.4394 -0.3841
13780TIP3    H262756   4.598   5.926   0.070  1.5701 -1.8629 -0.5708
13781TIP3   OH262757   0.006   0.962  13.743 -0.1698  0.1541  0.2798
13781TIP3    H162758  -0.004   1.003  13.658  0.2105  1.0943  0.6717
13781TIP3    H262759  -0.075   0.912  13.756 -0.7793  1.0260 -0.0852
13782TIP3   OH262760   0.325   1.457  16.077 -0.0335 -0.3536 -0.2865
13782TIP3    H162761   0.354   1.544  16.103 -0.3897 -0.4602  0.5010
13782TIP3    H262762   0.297   1.415  16.159 -2.1459 -0.3539 -0.9402
13783TIP3   OH262763   4.845   3.292   0.913 -0.5224 -0.3266 -0.2797
13783TIP3    H162764   4.758   3.322   0.938  0.1047  2.2440 -0.8759
13783TIP3    H262765   4.841   3.283   0.818 -0.5134 -1.6077 -0.1683
13784TIP3   OH262766   2.740   0.018   2.160 -0.3213 -0.3975  0.0281
13784TIP3    H162767   2.721   0.111   2.154 -1.9941 -0.4953  2.3114
13784TIP3    H262768   2.739  -0.014   2.070 -0.1774  1.6788 -0.7424
13785TIP3   OH262769   4.604   5.856  15.082 -0.9454  0.4366  0.0395
13785TIP3    H162770   4.680   5.798  15.073 -1.6816 -0.8422  1.5571
13785TIP3    H262771   4.532   5.806  15.043 -1.4461  0.6512  0.6898
13786TIP3   OH262772   2.467   5.572  14.380 -0.2283  0.4016 -0.5179
13786TIP3    H162773   2.504   5.618  14.455 -2.1027 -0.5184  1.0473
13786TIP3    H262774   2.394   5.627  14.352  1.5305  1.6946 -2.9562
13787TIP3   OH262775   2.248   5.159   1.673 -0.4632  0.0639  0.0670
13787TIP3    H162776   2.168   5.106   1.666 -0.3535  0.0236 -1.0610
13787TIP3    H262777   2.303   5.129   1.601 -0.2256  1.4261 -0.3445
13788TIP3   OH262778   1.188   0.970   5.694  0.2136 -0.3413  0.5319
13788TIP3    H162779   1.169   0.884   5.657 -1.3293  0.3282 -0.3527
13788TIP3    H262780   1.201   1.027   5.618 -1.2528  0.6965  1.0038
13789TIP3   OH262781   5.669   5.446   3.560 -0.0554  0.2045 -0.1752
13789TIP3    H162782   5.692   5.376   3.499 -1.1519 -0.3725  0.0328
13789TIP3    H262783   5.748   5.459   3.613  0.3073 -0.5677 -0.5136
13790TIP3   OH262784   5.083   5.476  14.926  0.1727  0.0775 -0.1107
13790TIP3    H162785   5.012   5.442  14.872 -0.0829 -1.9487  1.3611
13790TIP3    H262786   5.124   5.543  14.873 -1.0050 -0.7449 -2.1757
13791TIP3   OH262787   4.278   3.740  13.972 -0.3087  0.0404 -0.6287
13791TIP3    H162788   4.259   3.769  14.061  0.1038  2.3450 -1.2374
13791TIP3    H262789   4.194   3.712  13.938 -0.8589  1.0727 -0.1613
13792TIP3   OH262790   2.345   1.337  13.841 -0.1762  0.3745  0.1259
13792TIP3    H162791   2.412   1.269  13.835 -0.3566  0.0911  1.1688
13792TIP3    H262792   2.301   1.335  13.756  0.0790 -0.5388  0.0015
13793TIP3   OH262793   5.276   1.142   1.968 -0.0338 -0.1145 -0.1499
13793TIP3    H162794   5.296   1.201   2.041  0.3495  2.0700 -1.9254
13793TIP3    H262795   5.337   1.166   1.899 -1.7064 -0.6878 -1.9375
13794TIP3   OH262796   0.269   6.093  13.502 -0.3145 -0.3708  0.6910
13794TIP3    H162797   0.307   6.079  13.589 -1.1069 -0.0574  1.0930
13794TIP3    H262798   0.309   6.025  13.447  2.1482  0.9762  0.6632
13795TIP3   OH262799   0.539   0.022  13.141 -0.0428 -0.0118  0.1343
13795TIP3    H162800   0.572   0.111  13.149 -2.0359  0.7261  0.7150
13795TIP3    H262801   0.517  -0.003  13.231  0.0399 -0.9134 -0.0880
13796TIP3   OH262802   2.363   1.100   1.273  0.1627  0.4370  0.2250
13796TIP3    H162803   2.296   1.163   1.247 -1.0787  0.1247  2.4434
13796TIP3    H262804   2.437   1.154   1.302 -0.4838  0.8729  1.0932
13797TIP3   OH262805   5.281   2.435  14.712  0.0658 -0.1053  0.6080
13797TIP3    H162806   5.362   2.450  14.761  1.3123  1.1899 -1.6943
13797TIP3    H262807   5.305   2.370  14.646 -1.1868 -0.7397  0.7460
13798TIP3   OH262808   5.455   3.212  12.836  0.0252 -0.5419 -0.3814
13798TIP3    H162809   5.519   3.269  12.793  1.8928 -1.0453  1.5882
13798TIP3    H262810   5.451   3.134  12.780 -1.4864  0.8139 -2.3184
13799TIP3   OH262811   6.702   5.384   3.895  0.0753  0.3054  0.3457
13799TIP3    H162812   6.767   5.344   3.838 -0.5777 -0.0143 -0.1943
13799TIP3    H262813   6.697   5.325   3.970 -0.4159 -0.3063 -0.1499
13800TIP3   OH262814   5.325   2.801  14.937 -0.0646  0.0908 -0.0996
13800TIP3    H162815   5.379   2.861  14.987  1.3144  0.2619 -1.6881
13800TIP3    H262816   5.272   2.858  14.880 -0.1232 -0.1447 -0.2840
13801TIP3   OH262817   1.581   6.681   3.462 -0.0386 -0.2704 -0.1277
13801TIP3    H162818   1.599   6.588   3.471  0.8008  0.1008  3.5132
13801TIP3    H262819   1.487   6.690   3.477 -0.0025 -0.4628  0.2022
13802TIP3   OH262820   5.750   6.412   3.458  0.1185  1.0600 -0.3769
13802TIP3    H162821   5.760   6.377   3.547 -0.4451  1.6266 -0.0804
13802TIP3    H262822   5.678   6.475   3.465 -1.0492 -0.0542 -1.5735
13803TIP3   OH262823   1.042   3.156   0.368 -0.3445 -0.5831  0.3702
13803TIP3    H162824   1.080   3.235   0.330 -1.3222  1.4044  3.2061
13803TIP3    H262825   0.952   3.181   0.391 -1.0717 -2.9136  0.2877
13804TIP3   OH262826   5.641   4.525  15.236 -0.0438 -0.1172  0.1576
13804TIP3    H162827   5.732   4.499  15.248 -0.3858 -1.9633 -0.8872
13804TIP3    H262828   5.608   4.539  15.325  1.1730  0.3823  0.5535
13805TIP3   OH262829   3.245   2.397  17.203  0.2552 -0.3280  0.2217
13805TIP3    H162830   3.302   2.473  17.216  0.3408 -0.3415 -0.0685
13805TIP3    H262831   3.297   2.337  17.149  0.8522 -1.3249  1.8194
13806TIP3   OH262832   2.300   2.850   6.469  0.4218 -0.6334 -0.1948
13806TIP3    H162833   2.381   2.819   6.430  0.1450 -0.1135 -1.2161
13806TIP3    H262834   2.301   2.945   6.455 -0.0102 -0.5227  0.4600
13807TIP3   OH262835   4.315   4.833  11.636 -0.1863  0.1272  0.2824
13807TIP3    H162836   4.289   4.760  11.581  0.3028  0.6958 -0.7503
13807TIP3    H262837   4.233   4.871  11.667 -0.5258  0.3775 -0.8689
13808TIP3   OH262838   2.530   1.546  13.801 -0.6932 -0.0152  0.2326
13808TIP3    H162839   2.526   1.546  13.706  0.1044  0.8716  0.1793
13808TIP3    H262840   2.471   1.476  13.828 -0.9405 -0.2638 -0.9081
13809TIP3   OH262841   2.349   6.411   1.085 -0.8068 -0.0539  0.2143
13809TIP3    H162842   2.366   6.335   1.141 -2.2544  0.5394  1.5180
13809TIP3    H262843   2.389   6.387   1.001  1.0535 -1.1538  1.3270
13810TIP3   OH262844   3.330   5.936   5.317  0.2931  0.2169 -0.4755
13810TIP3    H162845   3.246   5.973   5.290  0.7087  1.6929  0.1192
13810TIP3    H262846   3.311   5.892   5.400 -0.1889 -0.8792 -1.1411
13811TIP3   OH262847   6.074   1.537   0.705  0.4099  0.2153  0.0249
13811TIP3    H162848   5.993   1.588   0.706 -0.0622 -0.4780  1.6057
13811TIP3    H262849   6.047   1.450   0.733  1.4925 -0.4323 -0.8523
13812TIP3   OH262850   2.554   2.620  15.524  0.1695 -0.6421  0.1317
13812TIP3    H162851   2.528   2.711  15.516 -0.5570 -0.9906 -2.5045
13812TIP3    H262852   2.645   2.617  15.495  0.5418 -0.6350  1.2489
13813TIP3   OH262853   2.319   0.502   5.731  0.4734  0.8359 -0.1617
13813TIP3    H162854   2.257   0.480   5.662  0.5448  0.0879  0.0082
13813TIP3    H262855   2.265   0.521   5.807  0.4065  1.3791 -0.3428
13814TIP3   OH262856   0.188   1.070   3.879  0.2392 -0.3977  0.0647
13814TIP3    H162857   0.150   1.150   3.843 -0.0937 -0.2977  0.6237
13814TIP3    H262858   0.113   1.012   3.894  0.1774  0.1138  1.9597
13815TIP3   OH262859   2.721   1.425   3.993 -0.2986 -0.4045 -0.2985
13815TIP3    H162860   2.784   1.440   3.923  0.4874  1.5132  0.7275
13815TIP3    H262861   2.661   1.359   3.958  0.0393  0.4925 -2.7628
13816TIP3   OH262862   3.917   5.679  13.268  0.9437 -0.0983 -0.3950
13816TIP3    H162863   4.006   5.709  13.251  1.2123 -0.2668  0.6506
13816TIP3    H262864   3.881   5.743  13.330  0.6689 -0.5427 -0.0813
13817TIP3   OH262865   2.886   4.519  17.160 -0.7022 -0.5084  0.1356
13817TIP3    H162866   2.878   4.538  17.066  0.5624 -0.8391 -0.0532
13817TIP3    H262867   2.892   4.605  17.201 -0.6555 -0.3774 -0.1418
13818TIP3   OH262868   5.055   6.187   0.155 -0.2304 -0.4171  0.1472
13818TIP3    H162869   4.967   6.152   0.151  0.0621 -1.2392  0.6515
13818TIP3    H262870   5.112   6.113   0.134  0.3400  0.1100 -0.2211
13819TIP3   OH262871   5.357   5.096  15.646 -0.4725  0.2345  0.1135
13819TIP3    H162872   5.349   5.036  15.572 -1.0145  0.8089 -0.3072
13819TIP3    H262873   5.268   5.130  15.659  0.0236  1.7649 -0.3627
13820TIP3   OH262874   2.035   3.437  15.326  0.0135  0.3672 -0.5117
13820TIP3    H162875   2.121   3.403  15.300 -0.7594 -2.1399 -0.0559
13820TIP3    H262876   1.980   3.425  15.248 -0.3730  0.1710 -0.2139
13821TIP3   OH262877   0.175   5.018   4.185  0.3441  0.8484  0.2715
13821TIP3    H162878   0.262   5.042   4.217  0.0643  1.6507  0.4542
13821TIP3    H262879   0.117   5.034   4.259  0.3475 -2.2494  1.0848
13822TIP3   OH262880   6.068   0.599   5.028  0.4978  0.3228  0.1337
13822TIP3    H162881   6.079   0.505   5.046  4.0547  0.3182 -1.2544
13822TIP3    H262882   5.988   0.604   4.975  0.8995 -2.1179 -0.8388
13823TIP3   OH262883   2.754   1.935  14.957  0.0592 -0.7104 -0.2448
13823TIP3    H162884   2.777   1.979  15.039 -0.6714 -0.2758 -0.2696
13823TIP3    H262885   2.776   1.843  14.973  0.3933 -0.5499  0.2584
13824TIP3   OH262886   1.608   0.660   1.772  0.2465  0.4332 -0.6341
13824TIP3    H162887   1.686   0.609   1.750  0.2809  1.0118 -1.9482
13824TIP3    H262888   1.535   0.609   1.738  0.1809  0.6303 -0.7934
13825TIP3   OH262889   4.482   1.803   0.554 -0.1656  0.1533 -0.3618
13825TIP3    H162890   4.531   1.878   0.589  1.7924 -1.8241  1.4608
13825TIP3    H262891   4.471   1.824   0.461  0.3273  2.6692  0.0675
13826TIP3   OH262892   5.210   2.544   5.659  0.7331 -0.1930  0.3083
13826TIP3    H162893   5.195   2.451   5.644  0.7401 -0.1096 -0.2382
13826TIP3    H262894   5.134   2.588   5.621  0.8216  0.0377  0.3902
13827TIP3   OH262895   4.310   2.985  10.886 -0.4594  0.6300 -0.6153
13827TIP3    H162896   4.223   2.956  10.858 -0.5672  1.2892 -0.9966
13827TIP3    H262897   4.326   3.064  10.833 -0.3004  1.4183  0.5803
13828TIP3   OH262898   1.740   4.327   2.709  0.1745  0.4548 -0.2248
13828TIP3    H162899   1.715   4.360   2.795  2.4783 -0.1226  0.7479
13828TIP3    H262900   1.819   4.376   2.686  0.2508 -0.2148 -1.4896
13829TIP3   OH262901   2.978   2.450  11.581  0.6614 -1.1118 -0.3230
13829TIP3    H162902   3.057   2.448  11.635  1.0960  1.7896 -0.6623
13829TIP3    H262903   3.007   2.420  11.494  1.2470 -0.7257 -0.2670
13830TIP3   OH262904   4.865   3.970   3.018 -0.4884 -1.1090 -0.2876
13830TIP3    H162905   4.930   3.943   2.954  0.2581 -0.4485  0.1670
13830TIP3    H262906   4.842   3.890   3.064  0.5352 -1.2545  0.0055
13831TIP3   OH262907   2.948   4.313   2.774 -0.6280  0.2147  0.2572
13831TIP3    H162908   2.959   4.407   2.759 -0.2574  0.2335  0.6260
13831TIP3    H262909   2.908   4.307   2.860 -0.9623  0.0434  0.0890
13832TIP3   OH262910   0.564   2.616  11.005  0.0830  0.0752  0.4731
13832TIP3    H162911   0.604   2.615  11.092  1.0170  0.2871  0.0598
13832TIP3    H262912   0.637   2.636  10.946 -1.0152  2.6772 -0.1195
13833TIP3   OH262913   6.532   4.544   0.423 -0.3060 -0.2234 -0.3808
13833TIP3    H162914   6.616   4.591   0.422 -0.5877  0.2834 -1.8219
13833TIP3    H262915   6.472   4.600   0.375 -1.4768 -0.6237  0.5546
13834TIP3   OH262916   2.628   4.224  12.870  0.0311  0.3009  0.1292
13834TIP3    H162917   2.676   4.307  12.868  1.0870 -0.2944 -0.1954
13834TIP3    H262918   2.537   4.249  12.885  0.1256  1.6174 -1.2333
13835TIP3   OH262919   3.538   6.213   6.683  0.2985 -0.3219 -0.4198
13835TIP3    H162920   3.464   6.210   6.622 -0.8262  0.2910  0.8521
13835TIP3    H262921   3.562   6.306   6.687 -0.7574 -0.0607  1.2747
13836TIP3   OH262922   4.929   0.062   4.098 -0.0186 -0.0656 -0.0965
13836TIP3    H162923   4.907  -0.023   4.059 -0.8098 -0.6907  1.5887
13836TIP3    H262924   4.989   0.040   4.169  1.6417  1.0707 -1.0872
13837TIP3   OH262925   0.947   2.014  15.724 -0.3927 -0.6639  0.3191
13837TIP3    H162926   0.955   1.950  15.653 -3.0255  1.0886 -1.8008
13837TIP3    H262927   0.891   1.972  15.788 -1.6387 -0.7643 -0.7894
13838TIP3   OH262928   2.280   1.930   2.226  0.1835 -0.0706 -0.0812
13838TIP3    H162929   2.329   1.889   2.155 -1.8861  1.8929 -2.8660
13838TIP3    H262930   2.199   1.961   2.185 -2.4869 -1.2334  3.7634
13839TIP3   OH262931   1.373   3.118  13.494 -0.9024 -0.1694  0.4415
13839TIP3    H162932   1.412   3.081  13.573 -0.5184 -0.1200  0.2762
13839TIP3    H262933   1.443   3.169  13.454 -0.9734 -0.5062 -0.1315
13840TIP3   OH262934   5.770   6.461   2.107  0.6356  0.1109  0.1323
13840TIP3    H162935   5.755   6.388   2.167 -0.3733 -0.6078 -0.9488
13840TIP3    H262936   5.825   6.423   2.038 -1.1598 -0.1028 -1.2443
13841TIP3   OH262937   6.545   5.021   4.194  0.3066  0.4323  0.0205
13841TIP3    H162938   6.595   5.092   4.153  0.9734  0.6883  1.2476
13841TIP3    H262939   6.453   5.045   4.179  0.5267  1.3348  0.0578
13842TIP3   OH262940   3.571   2.983   3.597  0.5126  0.2382  0.4251
13842TIP3    H162941   3.577   2.976   3.692  1.9064 -1.1164  0.2948
13842TIP3    H262942   3.493   2.934   3.574 -0.3835  1.4001  0.9209
13843TIP3   OH262943   4.511   3.223  13.682  0.2483 -0.2273 -0.1466
13843TIP3    H162944   4.591   3.267  13.655 -0.1891  1.1054  0.6281
13843TIP3    H262945   4.441   3.271  13.638 -0.1133 -2.6762 -2.5586
13844TIP3   OH262946   3.959   2.028  13.233 -0.1269 -0.1118  0.1115
13844TIP3    H162947   3.915   2.110  13.215 -0.8012 -0.7225 -1.1558
13844TIP3    H262948   4.030   2.024  13.169  1.6955  0.7542  1.9781
13845TIP3   OH262949   1.369   1.015   5.910 -0.3379  0.2047 -0.2179
13845TIP3    H162950   1.316   0.999   5.832 -0.5942  1.8501 -0.4192
13845TIP3    H262951   1.305   1.034   5.978 -0.0576  1.8956 -0.3885
13846TIP3   OH262952   2.988   3.562   1.983  0.3759  0.2090 -0.2392
13846TIP3    H162953   3.008   3.602   2.068 -1.0349  0.6390 -0.0797
13846TIP3    H262954   3.063   3.583   1.929  0.2406  2.0736  0.2094
13847TIP3   OH262955   2.029   5.039   1.419  0.1512 -0.0627 -0.1733
13847TIP3    H162956   1.942   5.058   1.455  0.6431 -0.9383  1.6043
13847TIP3    H262957   2.079   5.006   1.494  1.4282 -1.4875 -1.5869
13848TIP3   OH262958   0.724   0.435   2.007 -0.3432  0.6753  0.1417
13848TIP3    H162959   0.811   0.473   1.996 -0.9770  2.6194  1.3061
13848TIP3    H262960   0.682   0.448   1.922 -0.6109  2.9173  0.5580
13849TIP3   OH262961   5.116   1.980  13.777 -0.2300 -0.3514 -0.1464
13849TIP3    H162962   5.090   2.072  13.779 -0.0904 -0.3160  1.4842
13849TIP3    H262963   5.147   1.962  13.866 -1.0985 -2.2204 -0.1796
13850TIP3   OH262964   5.172   2.593  12.941  0.0831  0.0683  0.1652
13850TIP3    H162965   5.131   2.604  12.855  2.3548  1.4180 -0.8342
13850TIP3    H262966   5.241   2.528  12.927  0.2316  0.0161  1.0694
13851TIP3   OH262967   3.254   1.366  15.765  0.4849 -0.2061  0.4789
13851TIP3    H162968   3.255   1.438  15.828  0.7316 -0.0313  0.2751
13851TIP3    H262969   3.342   1.328  15.769  0.9763  0.7285 -0.8072
13852TIP3   OH262970   3.539   2.572  11.414 -0.1533  0.0042 -0.1328
13852TIP3    H162971   3.476   2.644  11.418 -3.3093 -2.5329 -0.4056
13852TIP3    H262972   3.561   2.564  11.321 -1.5107 -0.6676 -0.4255
13853TIP3   OH262973   3.244   1.765   5.499  0.3458  0.8535 -0.8086
13853TIP3    H162974   3.319   1.710   5.474 -0.7417 -0.2255 -1.8232
13853TIP3    H262975   3.190   1.708   5.554 -1.5328  0.3206 -3.0597
13854TIP3   OH262976   5.196   2.317  16.545 -0.5498  0.0871  0.0348
13854TIP3    H162977   5.205   2.230  16.584 -1.2794  0.6107  1.4459
13854TIP3    H262978   5.210   2.378  16.617  0.2908  1.1762 -0.9968
13855TIP3   OH262979   0.841   5.398   5.609 -0.5144  0.0667 -0.3505
13855TIP3    H162980   0.871   5.307   5.611  0.6123  0.4240  1.0080
13855TIP3    H262981   0.918   5.448   5.580 -1.0205  0.6158 -0.7642
13856TIP3   OH262982   5.696   0.770   1.064 -0.0814  0.2764  0.0821
13856TIP3    H162983   5.644   0.703   1.109 -0.4407  0.1451 -0.5161
13856TIP3    H262984   5.757   0.721   1.010  0.8682  0.4295  0.9862
13857TIP3   OH262985   6.732   5.755  14.437 -0.0708  0.5825  0.2838
13857TIP3    H162986   6.703   5.832  14.387 -0.5382  0.3580  0.2053
13857TIP3    H262987   6.706   5.680  14.383  0.3574  0.3637  0.3761
13858TIP3   OH262988   6.544   6.757  12.574  0.4071 -0.0206 -0.8270
13858TIP3    H162989   6.615   6.782  12.515 -1.0016  1.0019 -2.1643
13858TIP3    H262990   6.497   6.838  12.591 -0.4725 -0.6820  0.0153
13859TIP3   OH262991   4.876   0.136   6.646 -0.2007  0.7386  0.3473
13859TIP3    H162992   4.826   0.078   6.703  0.5893  1.4346  1.7923
13859TIP3    H262993   4.898   0.081   6.570  0.6189 -0.9074  1.7075
13860TIP3   OH262994   0.682   1.841   5.274 -0.0894 -0.7223  0.4033
13860TIP3    H162995   0.760   1.894   5.292 -0.4919 -0.2937  0.8943
13860TIP3    H262996   0.609   1.891   5.310 -0.5957 -1.1302 -0.0386
13861TIP3   OH262997   5.990   3.182  11.645 -0.5682  0.6595  0.1359
13861TIP3    H162998   6.039   3.173  11.727  0.0673 -0.9731 -0.3741
13861TIP3    H262999   6.056   3.172  11.577 -0.8478  3.4472 -0.6506
13862TIP3   OH263000   1.653   4.892  16.801 -0.1198 -0.4813  0.1467
13862TIP3    H163001   1.644   4.917  16.709 -0.8617  0.3066  0.4155
13862TIP3    H263002   1.656   4.797  16.799 -0.7512 -0.5033 -0.6598
13863TIP3   OH263003   2.943   2.367   3.425 -0.2046  0.4680  0.2634
13863TIP3    H163004   2.866   2.367   3.368 -0.2429  4.3393  0.0367
13863TIP3    H263005   3.017   2.377   3.365  0.2290 -0.4010  0.6402
13864TIP3   OH263006   3.855   6.222  16.444  0.8802  0.0280  0.0181
13864TIP3    H163007   3.897   6.152  16.494  0.8247 -2.6837 -3.3592
13864TIP3    H263008   3.911   6.233  16.367 -0.1554  2.4179 -0.4744
13865TIP3   OH263009   1.308   4.025  10.567 -0.0785 -0.0762 -0.5054
13865TIP3    H163010   1.313   3.989  10.479  0.5785 -0.3300 -0.3723
13865TIP3    H263011   1.396   4.014  10.603 -0.4319 -0.3275  0.3164
13866TIP3   OH263012   4.094   0.152   5.234 -0.5163 -0.2816 -0.0417
13866TIP3    H163013   4.160   0.164   5.166 -1.3445  0.4859 -0.7350
13866TIP3    H263014   4.119   0.071   5.279  1.9929  0.9783  0.9927
13867TIP3   OH263015   6.077   0.961  13.748 -0.5441  0.7663  0.0599
13867TIP3    H163016   6.042   0.884  13.792  0.5270  0.1821 -0.0618
13867TIP3    H263017   6.167   0.937  13.727 -0.2596  1.9792 -0.1796
13868TIP3   OH263018   2.807   6.164   2.473 -0.4158 -0.0315 -0.5337
13868TIP3    H163019   2.808   6.121   2.559 -0.8013  0.5984 -0.2081
13868TIP3    H263020   2.724   6.210   2.470  0.0169  0.7482 -0.8495
13869TIP3   OH263021   1.767   1.702  16.876  0.2142  0.4008  0.2598
13869TIP3    H163022   1.805   1.653  16.803 -0.0872 -1.8923  1.5421
13869TIP3    H263023   1.832   1.770  16.895  0.8172  0.3446 -1.3746
13870TIP3   OH263024   2.078   4.672   2.216 -0.2948  0.3633 -0.4121
13870TIP3    H163025   2.126   4.754   2.231  0.4309 -0.3166  1.2348
13870TIP3    H263026   2.143   4.613   2.178 -0.4326  0.1222 -0.2760
13871TIP3   OH263027   6.651   2.236   2.701 -0.6899  0.1662  0.3812
13871TIP3    H163028   6.610   2.240   2.615 -2.4502  1.8127  1.2172
13871TIP3    H263029   6.684   2.324   2.717  1.8946 -0.7209  0.4319
13872TIP3   OH263030   0.106   2.464   4.824 -0.7687  0.7836 -0.5361
13872TIP3    H163031   0.168   2.428   4.761 -0.3782  0.5071 -0.0041
13872TIP3    H263032   0.154   2.466   4.907 -1.7913 -0.4091  0.1143
13873TIP3   OH263033   5.853   5.630   5.266  0.4804 -0.4751 -0.0528
13873TIP3    H163034   5.943   5.642   5.236  0.3106 -0.6344 -0.6247
13873TIP3    H263035   5.799   5.668   5.198  0.0624 -1.6868 -0.4279
13874TIP3   OH263036   5.612   1.982   6.284  0.3280  0.3441  0.0888
13874TIP3    H163037   5.706   1.995   6.297  0.1493  0.3735  1.4981
13874TIP3    H263038   5.597   1.892   6.311  0.3114 -0.4924 -2.4560
13875TIP3   OH263039   4.126   5.244   5.250 -0.1745  0.6121 -0.0333
13875TIP3    H163040   4.136   5.199   5.166  1.3108 -0.5029  0.6936
13875TIP3    H263041   4.116   5.336   5.226 -1.3666  0.1464 -1.4769
13876TIP3   OH263042   3.415   1.458   2.506 -0.6013 -0.0280 -0.2328
13876TIP3    H163043   3.377   1.539   2.471  0.2603  0.3967 -0.2081
13876TIP3    H263044   3.458   1.417   2.431 -1.1965 -0.5711 -0.2880
13877TIP3   OH263045   2.184   2.223  16.234  0.5314  0.6326  0.5019
13877TIP3    H163046   2.246   2.167  16.282 -0.6822 -1.0521  0.2247
13877TIP3    H263047   2.239   2.274  16.174  1.6554 -1.3270 -0.2598
13878TIP3   OH263048   2.122   4.996   3.500  0.3978  0.1689 -0.3280
13878TIP3    H163049   2.190   5.029   3.559 -0.1221  2.0674 -0.7452
13878TIP3    H263050   2.169   4.936   3.441  1.2702 -0.3020  0.7955
13879TIP3   OH263051   3.956   5.081  15.486  0.0415 -0.1816 -0.3727
13879TIP3    H163052   3.900   5.004  15.490  0.0095 -0.1172  0.9858
13879TIP3    H263053   4.016   5.071  15.560 -0.3737  1.3979  0.2226
13880TIP3   OH263054   3.181   4.748   0.993  0.2951  0.2767 -0.2553
13880TIP3    H163055   3.110   4.772   0.934  0.5610  1.0737 -0.2735
13880TIP3    H263056   3.200   4.657   0.972 -1.1844 -0.1754  0.2517
13881TIP3   OH263057   6.487   3.291   1.223 -0.8429 -0.7393 -0.1081
13881TIP3    H163058   6.488   3.356   1.293  0.6337  0.3253 -1.0462
13881TIP3    H263059   6.460   3.210   1.265 -1.2661  0.1503  1.4072
13882TIP3   OH263060   0.764   3.095   6.193 -0.4179 -0.1836  0.5147
13882TIP3    H163061   0.744   3.019   6.248 -0.2789 -0.0320  0.7741
13882TIP3    H263062   0.738   3.068   6.105  0.7868 -0.9998  0.3886
13883TIP3   OH263063   3.265   3.859   2.273  0.6647  0.3817  0.0032
13883TIP3    H163064   3.218   3.923   2.220 -0.3314  0.1354  0.5631
13883TIP3    H263065   3.240   3.774   2.237 -0.8524  0.1461  1.4361
13884TIP3   OH263066   3.692   5.504  11.160  0.1211  0.2643  0.3808
13884TIP3    H163067   3.681   5.462  11.075  3.1599 -0.1702  0.0852
13884TIP3    H263068   3.752   5.577  11.144  0.6293  0.2890  2.1025
13885TIP3   OH263069   5.814   3.484  14.379 -0.7286  0.4674  0.1009
13885TIP3    H163070   5.789   3.412  14.437  1.0344  0.1296  0.5043
13885TIP3    H263071   5.820   3.444  14.292  3.2463 -0.7679  0.7411
13886TIP3   OH263072   4.214   5.576   1.066  0.6655  0.3538 -0.4986
13886TIP3    H163073   4.187   5.517   1.136  0.7982  1.1106  0.2051
13886TIP3    H263074   4.137   5.629   1.047  1.1197  1.3344  0.3042
13887TIP3   OH263075   5.837   0.673  16.867 -0.0196  0.0206  0.0229
13887TIP3    H163076   5.808   0.593  16.911 -2.1854  1.0988  0.6661
13887TIP3    H263077   5.892   0.642  16.795 -0.8648 -2.0526  0.2156
13888TIP3   OH263078   2.739   4.676  16.216 -0.5473  0.2415 -0.0807
13888TIP3    H163079   2.769   4.653  16.129  1.9375 -1.2936  1.0697
13888TIP3    H263080   2.763   4.768  16.227  2.3692 -0.4513  0.1303
13889TIP3   OH263081   6.304   4.650  12.056 -0.1227 -0.1280 -0.3256
13889TIP3    H163082   6.316   4.742  12.033 -0.5475 -0.0389 -0.2033
13889TIP3    H263083   6.322   4.603  11.974 -2.4015  0.2421 -1.1208
13890TIP3   OH263084   0.080   0.805   0.517 -0.4980 -0.1199  0.3919
13890TIP3    H163085   0.143   0.867   0.481  3.0578 -1.8385  2.9650
13890TIP3    H263086   0.036   0.853   0.587 -0.8632  0.6278 -0.3338
13891TIP3   OH263087   4.872   6.364   5.263  0.4078 -0.1241  0.0041
13891TIP3    H163088   4.870   6.319   5.348 -0.3852 -1.1476 -0.5321
13891TIP3    H263089   4.857   6.294   5.199 -0.6063  0.8718 -0.8785
13892TIP3   OH263090   2.679   0.422   0.564 -1.2130 -0.1004 -0.5089
13892TIP3    H163091   2.701   0.400   0.655 -0.1164  0.9321 -0.4949
13892TIP3    H263092   2.711   0.511   0.553 -0.8605 -0.3904 -2.0540
13893TIP3   OH263093   2.696   3.756  17.340  0.0349 -0.5045 -0.9310
13893TIP3    H163094   2.686   3.804  17.258  0.8232 -1.6468 -1.7236
13893TIP3    H263095   2.707   3.824  17.407  1.8451  0.4295 -2.1036
13894TIP3   OH263096   6.160   0.186   2.041  0.3340  0.0194  0.0224
13894TIP3    H163097   6.203   0.136   2.111  0.0782 -1.8124 -1.0848
13894TIP3    H263098   6.072   0.204   2.075  0.5237 -0.0055  0.5413
13895TIP3   OH263099   5.353   6.423   3.444 -0.0393 -0.7706 -0.3778
13895TIP3    H163100   5.343   6.407   3.538 -0.2928  0.9442 -0.0624
13895TIP3    H263101   5.407   6.503   3.439 -1.2978  0.0636 -1.6223
13896TIP3   OH263102   2.255   5.843   2.971 -0.0098  0.6130 -0.3007
13896TIP3    H163103   2.179   5.901   2.958  0.6672  1.2688 -1.6333
13896TIP3    H263104   2.286   5.826   2.882 -0.3050 -2.0181  0.0271
13897TIP3   OH263105   3.406   5.293  11.493  0.4477  0.3059  0.1385
13897TIP3    H163106   3.314   5.267  11.481  0.5329  0.1269 -0.1579
13897TIP3    H263107   3.449   5.266  11.411  0.8426  0.0268  0.4329
13898TIP3   OH263108   3.821   3.104  11.870 -0.6160 -0.1855 -0.7294
13898TIP3    H163109   3.875   3.138  11.942 -0.9916 -0.8992 -0.1085
13898TIP3    H263110   3.883   3.057  11.814 -0.4216 -0.1182 -0.5730
13899TIP3   OH263111   0.231   2.729  11.066 -0.0867  0.0806  0.2664
13899TIP3    H163112   0.214   2.727  10.972 -1.0627 -0.6072  0.4381
13899TIP3    H263113   0.149   2.701  11.106  0.6752 -0.8301  1.2752
13900TIP3   OH263114   4.897   6.325  12.306 -0.6682 -0.1612 -0.2795
13900TIP3    H163115   4.867   6.298  12.393  0.3011 -0.2332  0.0419
13900TIP3    H263116   4.951   6.403  12.322  1.5497 -1.5608 -0.4958
13901TIP3   OH263117   0.021   6.571   5.239 -0.3015  0.0692  0.1789
13901TIP3    H163118  -0.019   6.485   5.227 -1.3049  0.4664  0.5350
13901TIP3    H263119  -0.036   6.615   5.302  1.1806  0.3651  1.3704
13902TIP3   OH263120   6.729   3.668  16.490  0.1783  0.1431  0.0705
13902TIP3    H163121   6.750   3.698  16.579 -1.1844  2.0259 -0.1837
13902TIP3    H263122   6.808   3.687  16.439  0.0834  1.3810  0.3681
13903TIP3   OH263123   1.729   6.066  11.381 -0.0944  0.1373 -0.2348
13903TIP3    H163124   1.669   6.006  11.337 -0.1554  1.7868 -2.5823
13903TIP3    H263125   1.806   6.069  11.325  0.6418  0.9145  0.7698
13904TIP3   OH263126   0.254   4.357   1.588 -0.6055 -0.0404 -0.1711
13904TIP3    H163127   0.321   4.346   1.521  0.1755 -1.5818  0.8222
13904TIP3    H263128   0.185   4.296   1.563 -0.4816 -0.3415  0.2269
13905TIP3   OH263129   5.134   3.411   5.844 -0.1657 -0.1960  0.0150
13905TIP3    H163130   5.099   3.370   5.923 -1.8890 -0.6139 -0.9083
13905TIP3    H263131   5.131   3.505   5.862 -1.6207 -0.2295  0.0609
13906TIP3   OH263132   2.581   0.733  14.168  0.5913  0.0673 -0.4273
13906TIP3    H163133   2.546   0.743  14.256 -0.1355 -1.0740 -0.5665
13906TIP3    H263134   2.674   0.719  14.180  1.0560  2.8868 -0.0293
13907TIP3   OH263135   0.736   2.605   2.761 -0.4633  0.0289  0.0065
13907TIP3    H163136   0.812   2.659   2.782 -0.1842  0.7517 -2.5251
13907TIP3    H263137   0.768   2.515   2.764  0.3615  0.2971 -0.5116
13908TIP3   OH263138   4.424   0.593  16.142  0.2232  0.2686  0.0809
13908TIP3    H163139   4.392   0.504  16.125  0.0366  0.6818 -2.0090
13908TIP3    H263140   4.397   0.611  16.232 -2.2593 -0.7463 -0.3845
13909TIP3   OH263141   4.257   4.456   6.575 -0.4049  0.2210  0.0467
13909TIP3    H163142   4.171   4.451   6.532  0.8006 -0.7685 -2.4459
13909TIP3    H263143   4.296   4.537   6.542  0.2324 -0.1497 -0.1267
13910TIP3   OH263144   0.554   5.659  10.655  0.1722 -0.1480  0.1882
13910TIP3    H163145   0.608   5.670  10.733  0.3757 -1.4031  0.2534
13910TIP3    H263146   0.464   5.659  10.688  0.0250  2.6932 -0.0094
13911TIP3   OH263147   4.691   0.703  16.085  0.3048  0.1787 -0.2364
13911TIP3    H163148   4.709   0.670  16.173  2.0581 -0.0391 -0.6400
13911TIP3    H263149   4.608   0.750  16.093  0.1361 -0.3582  1.3898
13912TIP3   OH263150   1.321   1.964  14.667 -0.7131 -0.2594 -0.1911
13912TIP3    H163151   1.313   2.044  14.615 -0.4197 -0.5763 -0.7311
13912TIP3    H263152   1.330   1.894  14.602 -0.1652 -0.6411  0.2835
13913TIP3   OH263153   4.697   2.188   3.408 -0.2117 -0.3989  0.0008
13913TIP3    H163154   4.727   2.181   3.318  1.2624 -1.7209  0.5529
13913TIP3    H263155   4.644   2.110   3.422  0.0082 -0.4710  0.4373
13914TIP3   OH263156   0.947   1.806  12.073  0.4438  0.5131  0.6806
13914TIP3    H163157   1.040   1.806  12.095  0.6944  2.3189 -0.2087
13914TIP3    H263158   0.919   1.897  12.086 -0.7987  0.3608 -0.6659
13915TIP3   OH263159   3.114   2.591   5.837 -0.1033  0.3145 -0.6461
13915TIP3    H163160   3.020   2.570   5.836  0.4855 -3.7974  2.2822
13915TIP3    H263161   3.148   2.554   5.756 -0.9085  2.1302 -1.8981
13916TIP3   OH263162   3.129   6.162  14.055  0.1101 -0.1787 -0.6626
13916TIP3    H163163   3.118   6.129  14.144  0.1856  0.5723 -0.3705
13916TIP3    H263164   3.215   6.204  14.055 -1.6149  3.7638  0.2057
13917TIP3   OH263165   5.638   3.387   3.370 -0.3856  0.4416 -0.2882
13917TIP3    H163166   5.660   3.373   3.278  0.1176  1.6011 -0.3669
13917TIP3    H263167   5.546   3.412   3.369 -1.1928 -2.2024 -0.1787
13918TIP3   OH263168   5.061   4.714   0.563  0.0051 -0.2691 -0.1627
13918TIP3    H163169   5.102   4.785   0.514  1.1590 -0.8940 -0.1271
13918TIP3    H263170   5.129   4.683   0.623  0.1845 -2.6287 -1.4707
13919TIP3   OH263171   2.112   3.595  13.411  0.0121 -0.1351  0.6335
13919TIP3    H163172   2.155   3.636  13.336 -2.0382  1.5352  0.2930
13919TIP3    H263173   2.137   3.502  13.405  0.2817  0.0394 -1.8356
13920TIP3   OH263174   5.712   0.934   6.441  0.0868 -0.2397  0.1445
13920TIP3    H163175   5.703   0.982   6.523  0.0748  0.5808 -0.3336
13920TIP3    H263176   5.623   0.918   6.412  0.0524 -1.7309  0.9630
13921TIP3   OH263177   3.301   3.752   3.690 -0.0533 -0.3896 -0.4661
13921TIP3    H163178   3.342   3.733   3.605  0.5621  0.8889 -0.4836
13921TIP3    H263179   3.357   3.708   3.754  0.1621 -0.3836 -0.6465
13922TIP3   OH263180   0.690   5.218  15.457  0.1445 -0.0840 -0.0192
13922TIP3    H163181   0.599   5.244  15.447 -0.0479 -0.6223  0.3286
13922TIP3    H263182   0.692   5.126  15.429  0.0471 -0.9307  2.5476
13923TIP3   OH263183   5.732   1.548   5.533 -0.1521  0.3335 -0.4449
13923TIP3    H163184   5.775   1.463   5.528 -1.6959 -0.5997  1.0936
13923TIP3    H263185   5.641   1.529   5.511 -1.1560  0.9860  2.6747
13924TIP3   OH263186   1.294   2.368   5.493 -0.3625 -0.3411  0.0605
13924TIP3    H163187   1.335   2.330   5.571  1.5486  0.2413 -0.5995
13924TIP3    H263188   1.260   2.294   5.444 -3.1368 -0.6436  2.1706
13925TIP3   OH263189   4.559   6.316   4.165 -0.0692 -0.2251  0.1662
13925TIP3    H163190   4.491   6.313   4.233  1.0916 -0.7796  1.3578
13925TIP3    H263191   4.634   6.357   4.209  0.0427  1.4131 -1.4565
13926TIP3   OH263192   3.062   3.218   1.960 -0.3247  0.2539  0.4111
13926TIP3    H163193   2.970   3.239   1.979 -0.8306 -1.1928 -0.2506
13926TIP3    H263194   3.112   3.290   1.999 -1.6762  0.5740  1.6559
13927TIP3   OH263195   2.991   4.773   5.151 -0.3087  0.1785 -0.0389
13927TIP3    H163196   2.907   4.746   5.113 -0.2651 -0.4419  0.2988
13927TIP3    H263197   3.037   4.816   5.079 -1.0843  0.9219 -0.1193
13928TIP3   OH263198   5.681   0.998   5.040 -0.0789 -0.0773 -0.5445
13928TIP3    H163199   5.665   1.011   4.947 -1.5189  0.5366 -0.2353
13928TIP3    H263200   5.636   0.917   5.061  0.7100 -0.5112 -0.4744
13929TIP3   OH263201   0.964   5.295  14.561 -0.6583  0.0769 -0.3233
13929TIP3    H163202   0.959   5.257  14.474  0.7229  0.9088 -0.7865
13929TIP3    H263203   0.988   5.387  14.547  0.7828 -0.0547  0.9521
13930TIP3   OH263204   6.761   5.420   0.595  0.2840 -0.5585 -0.3025
13930TIP3    H163205   6.670   5.443   0.613  0.5122  0.3539 -0.2902
13930TIP3    H263206   6.806   5.435   0.679  0.5487 -0.4705 -0.4600
13931TIP3   OH263207   4.416   3.556  12.256 -0.5398 -0.4739  0.3508
13931TIP3    H163208   4.496   3.608  12.251 -1.6142  1.1480 -2.5857
13931TIP3    H263209   4.375   3.581  12.339  1.0751  0.0861  1.0046
13932TIP3   OH263210   2.905   4.384   1.229 -0.9469  0.1872 -0.2632
13932TIP3    H163211   2.990   4.425   1.246 -1.7833  1.6508  0.5429
13932TIP3    H263212   2.858   4.445   1.173 -1.8659 -0.1020  0.1643
13933TIP3   OH263213   0.670   0.418   1.086  0.4365  0.4555 -0.1425
13933TIP3    H163214   0.622   0.361   1.145 -0.3877  1.5484  0.2820
13933TIP3    H263215   0.760   0.418   1.119 -0.1833  1.7302  1.6905
13934TIP3   OH263216   6.564   3.859   1.321  0.9878  0.5861  0.0367
13934TIP3    H163217   6.578   3.772   1.284  1.2883  0.9913 -0.8057
13934TIP3    H263218   6.633   3.868   1.387  2.1500  0.9187 -1.1879
13935TIP3   OH263219   4.624   3.234  12.180 -0.3448 -0.0670  0.2106
13935TIP3    H163220   4.578   3.194  12.254 -2.8771  1.4246 -0.4163
13935TIP3    H263221   4.673   3.307  12.219 -1.6618  0.7125  0.4701
13936TIP3   OH263222   5.394   2.319   5.627 -0.3106  0.2636  0.3657
13936TIP3    H163223   5.467   2.267   5.661 -0.5730 -1.2571 -1.2396
13936TIP3    H263224   5.317   2.288   5.676 -0.4009 -0.5894 -0.3033
13937TIP3   OH263225   2.832   5.818   5.710  1.1082  0.1589 -0.3226
13937TIP3    H163226   2.900   5.751   5.718 -0.1555 -1.1022  0.1668
13937TIP3    H263227   2.833   5.863   5.795 -0.0493 -1.2590  0.4880
13938TIP3   OH263228   3.037   6.692  16.701 -0.1826 -0.0367  0.1856
13938TIP3    H163229   3.050   6.612  16.753  1.0167 -0.1964 -0.3289
13938TIP3    H263230   3.018   6.659  16.613 -0.5374  0.2449  0.1581
13939TIP3   OH263231   4.682   4.442  16.746 -0.1583  0.0277  0.4852
13939TIP3    H163232   4.717   4.496  16.676 -0.4485 -1.6795 -1.0400
13939TIP3    H263233   4.609   4.492  16.781  0.0158  0.9281 -0.4022
13940TIP3   OH263234   3.377   3.624   4.939 -0.2543  0.0157 -0.2411
13940TIP3    H163235   3.315   3.573   4.991 -2.0713  0.4045 -1.9311
13940TIP3    H263236   3.370   3.588   4.850  2.3433 -0.2619 -0.4171
13941TIP3   OH263237   0.682   2.231   5.873 -0.0423 -0.0606  0.7063
13941TIP3    H163238   0.754   2.186   5.916  0.5257 -0.0968 -0.2582
13941TIP3    H263239   0.724   2.288   5.808 -0.8761 -0.0113  0.1913
13942TIP3   OH263240   0.023   1.286   3.839  0.2865  0.1168 -0.8016
13942TIP3    H163241  -0.017   1.279   3.926 -1.0353  1.0039 -1.3167
13942TIP3    H263242   0.065   1.372   3.840  1.0451 -0.2379 -0.7603
13943TIP3   OH263243   4.366   1.351  11.268 -0.2618  0.1312 -0.3190
13943TIP3    H163244   4.461   1.353  11.280 -0.2400 -0.3276 -0.3912
13943TIP3    H263245   4.353   1.299  11.189 -0.6158 -0.6801  0.2630
13944TIP3   OH263246   5.242   3.994  14.909  0.0775  0.0064 -0.1144
13944TIP3    H163247   5.152   3.967  14.927  0.0345  1.6433  2.7745
13944TIP3    H263248   5.286   3.987  14.993  2.4338  0.1780 -1.2529
13945TIP3   OH263249   4.024   5.989   3.863 -0.7827 -0.1080 -0.2238
13945TIP3    H163250   4.076   6.015   3.939 -0.4041  0.6378 -0.7292
13945TIP3    H263251   4.077   5.921   3.820 -1.6255 -1.5353  0.9182
13946TIP3   OH263252   5.273   4.238  17.098  0.3656 -0.1819 -0.2511
13946TIP3    H163253   5.329   4.310  17.128  0.4882  0.1671 -1.2794
13946TIP3    H263254   5.289   4.233  17.004 -1.5969  0.1736 -0.6540
13947TIP3   OH263255   1.928   4.781   4.851  0.2065  0.6144 -0.7744
13947TIP3    H163256   1.967   4.828   4.777  3.1347 -2.3699 -1.3404
13947TIP3    H263257   1.986   4.707   4.866 -2.2558 -0.9319  2.2527
13948TIP3   OH263258   0.727   1.512  14.611 -0.0689 -0.1728  0.1618
13948TIP3    H163259   0.709   1.577  14.543  0.7359  0.7417  0.8109
13948TIP3    H263260   0.818   1.486  14.597 -0.0631 -0.3824  0.5616
13949TIP3   OH263261   6.269   1.665   6.602 -0.2648  0.0321 -0.2713
13949TIP3    H163262   6.254   1.743   6.656 -1.3514 -0.4294  0.1338
13949TIP3    H263263   6.183   1.622   6.598 -0.6025  0.7101 -3.4631
13950TIP3   OH263264   4.821   2.314   1.904 -0.4423 -0.3119 -0.1662
13950TIP3    H163265   4.806   2.387   1.844 -0.8521 -2.3053 -2.6541
13950TIP3    H263266   4.756   2.328   1.974 -0.2087  1.8865 -0.2961
13951TIP3   OH263267   0.180   4.916   2.823  0.2631  0.0169  0.6493
13951TIP3    H163268   0.098   4.871   2.841  0.9718 -1.2423  0.8298
13951TIP3    H263269   0.219   4.933   2.909  1.5500 -2.0262  0.5275
13952TIP3   OH263270   6.629   2.005   4.845 -0.6411  0.4110 -0.0350
13952TIP3    H163271   6.680   1.977   4.922  1.5640 -1.9528 -2.1429
13952TIP3    H263272   6.685   2.070   4.803 -0.4604 -0.3910 -1.0724
13953TIP3   OH263273   0.500   1.652   5.376  0.6891  0.3114  0.7689
13953TIP3    H163274   0.573   1.691   5.328  1.2059  0.1861  1.4338
13953TIP3    H263275   0.450   1.605   5.309  1.0574  0.6320  0.2563
13954TIP3   OH263276   0.828   5.695   1.133 -0.1813 -0.3157 -0.1785
13954TIP3    H163277   0.850   5.774   1.181  0.5064 -1.8438  2.1824
13954TIP3    H263278   0.792   5.727   1.050  0.4863  2.4239  0.4809
13955TIP3   OH263279   4.315   5.489  14.508  0.3880 -0.5034 -0.2155
13955TIP3    H163280   4.221   5.507  14.512  0.8113  1.9647 -0.2597
13955TIP3    H263281   4.353   5.542  14.578  2.0708  1.0885 -2.2186
13956TIP3   OH263282   5.221   1.975  14.072  0.1565 -0.1403 -0.3075
13956TIP3    H163283   5.181   2.055  14.107  0.7122 -0.6050  1.5459
13956TIP3    H263284   5.172   1.904  14.114 -0.3745 -0.8125 -1.9714
13957TIP3   OH263285   0.286   2.483  13.423 -0.0507 -0.5432  0.3658
13957TIP3    H163286   0.381   2.492  13.434 -0.1129  0.1104  0.3871
13957TIP3    H263287   0.268   2.521  13.338 -0.7171  2.5232  1.7354
13958TIP3   OH263288   2.599   5.027   3.394 -0.1568  0.0128  0.2428
13958TIP3    H163289   2.602   4.938   3.430  0.2568  0.8190  2.3446
13958TIP3    H263290   2.619   5.084   3.469 -3.1438  2.0659 -0.3344
13959TIP3   OH263291   1.157   0.971  11.212 -0.1200  0.2067  0.3547
13959TIP3    H163292   1.100   0.895  11.222  0.4186 -0.2500 -0.0152
13959TIP3    H263293   1.170   0.979  11.117 -1.3374  1.6402  0.2664
13960TIP3   OH263294   2.018   3.166   0.234 -0.5966  0.3647  0.2141
13960TIP3    H163295   1.978   3.218   0.165  0.2204 -0.2151 -0.7235
13960TIP3    H263296   1.957   3.094   0.248  0.5433 -1.1158 -1.9648
13961TIP3   OH263297   4.241   5.932   3.121  0.0397 -0.5756  0.1281
13961TIP3    H163298   4.328   5.958   3.092 -0.4869  0.4625 -0.5745
13961TIP3    H263299   4.210   5.872   3.052  0.1931 -0.9533  0.3833
13962TIP3   OH263300   5.534   3.441   5.752  0.3773  0.3425  0.0474
13962TIP3    H163301   5.502   3.501   5.820  0.6135  0.3670  0.1393
13962TIP3    H263302   5.459   3.386   5.730  0.0668  0.8925 -0.2759
13963TIP3   OH263303   5.746   4.885   3.500 -0.1298  0.2435 -0.0881
13963TIP3    H163304   5.685   4.883   3.574  0.3847  2.0281  0.4314
13963TIP3    H263305   5.811   4.951   3.525  0.5418  0.2460 -1.7641
13964TIP3   OH263306   4.395   1.123  11.887 -0.3366  0.1989 -0.6589
13964TIP3    H163307   4.313   1.074  11.878 -0.2410 -0.0141 -0.3830
13964TIP3    H263308   4.458   1.075  11.834  0.1459 -0.8736  0.8283
13965TIP3   OH263309   0.139   5.609  13.851  0.0396 -0.3369 -0.1633
13965TIP3    H163310   0.123   5.564  13.768  0.2744 -0.4667 -0.1402
13965TIP3    H263311   0.180   5.692  13.826  0.5240 -0.5675 -0.1598
13966TIP3   OH263312   0.234   2.935   2.528  0.3275  0.2357 -0.1454
13966TIP3    H163313   0.264   2.970   2.444  0.2242  0.5059 -0.0700
13966TIP3    H263314   0.240   2.840   2.518  1.2577  0.2760 -0.1230
13967TIP3   OH263315   3.681   5.039  15.050 -0.0036 -0.1858  0.3049
13967TIP3    H163316   3.686   5.098  15.125  1.0338  0.4186 -0.2090
13967TIP3    H263317   3.772   5.019  15.029 -0.2506 -0.0895 -0.9657
13968TIP3   OH263318   4.100   5.849   5.620  0.0598 -0.1524 -0.0110
13968TIP3    H163319   4.038   5.917   5.647  1.1971  0.7510  0.3907
13968TIP3    H263320   4.100   5.854   5.525 -0.2534  0.0523 -0.0034
13969TIP3   OH263321   2.578   3.744   2.223 -0.6301 -0.0323  0.5825
13969TIP3    H163322   2.619   3.787   2.298  0.7769 -0.2858 -0.0109
13969TIP3    H263323   2.610   3.793   2.147 -1.1885 -0.4484  0.0700
13970TIP3   OH263324   0.289   5.878   2.629 -0.4565  0.1289  0.1535
13970TIP3    H163325   0.357   5.943   2.606  0.2105 -0.5411  0.1863
13970TIP3    H263326   0.294   5.813   2.559 -0.1136 -0.6400  0.8715
13971TIP3   OH263327   3.941   3.192   4.709  0.4537  0.6752  0.1038
13971TIP3    H163328   3.970   3.279   4.734 -1.0021  0.9567  0.9296
13971TIP3    H263329   3.856   3.205   4.668  0.4864 -0.2995 -0.3148
13972TIP3   OH263330   4.493   6.454  13.640 -0.1703 -0.0212 -0.1702
13972TIP3    H163331   4.438   6.491  13.709 -0.8124 -1.5041  0.1499
13972TIP3    H263332   4.582   6.459  13.674 -0.3087  0.6497  0.1086
13973TIP3   OH263333   1.184   6.073   3.273 -0.1256  0.6412  0.1661
13973TIP3    H163334   1.186   6.025   3.191 -1.2904 -2.2459  1.6848
13973TIP3    H263335   1.094   6.063   3.304  0.5794  0.5728  2.3611
13974TIP3   OH263336   1.490   4.430  12.496 -0.4945 -0.1154  0.1225
13974TIP3    H163337   1.483   4.348  12.447  2.5378 -0.0823 -0.5271
13974TIP3    H263338   1.471   4.499  12.432  1.3110 -0.1712 -0.5222
13975TIP3   OH263339   5.903   6.659   0.803 -0.6159  0.2820  0.4258
13975TIP3    H163340   5.916   6.734   0.861  2.3459 -0.2812  0.6214
13975TIP3    H263341   5.894   6.698   0.716 -0.0371  0.9091  0.6343
13976TIP3   OH263342   3.641   0.947  11.778 -0.5983 -0.0866 -0.4500
13976TIP3    H163343   3.619   0.884  11.845  0.0976 -0.3594 -0.4640
13976TIP3    H263344   3.560   0.994  11.760 -1.1615 -1.0895 -0.5647
13977TIP3   OH263345   1.126   0.167   5.119 -0.0385  0.4466  0.0734
13977TIP3    H163346   1.129   0.232   5.190 -0.4151  0.3049  0.2220
13977TIP3    H263347   1.218   0.147   5.102  0.2250  2.6578 -1.5167
13978TIP3   OH263348   5.063   5.616  12.962  0.2887 -0.0415  0.0558
13978TIP3    H163349   5.111   5.681  13.014  2.0502  1.1850 -2.8858
13978TIP3    H263350   5.122   5.541  12.956  0.4443  0.1451 -0.8165
13979TIP3   OH263351   0.446   2.881  16.073  0.2007  0.7846  0.2117
13979TIP3    H163352   0.538   2.880  16.048  0.3780 -0.2712  0.8495
13979TIP3    H263353   0.423   2.788  16.083 -0.0452  1.0942  3.2183
13980TIP3   OH263354   4.951   2.031   0.394 -0.1871  0.7165  0.3888
13980TIP3    H163355   4.889   2.002   0.327  0.0460  1.3963 -0.1350
13980TIP3    H263356   4.914   1.999   0.476  0.9117 -2.5558 -0.2311
13981TIP3   OH263357   5.235   3.123   3.808 -0.1810 -0.2581  0.1768
13981TIP3    H163358   5.273   3.098   3.892  1.4503 -0.2301 -0.5317
13981TIP3    H263359   5.176   3.050   3.786 -0.4806 -0.3504  1.2408
13982TIP3   OH263360   4.275   3.238  16.665 -0.2642 -0.4317 -0.0362
13982TIP3    H163361   4.346   3.173  16.670  1.6408  1.5512  0.1012
13982TIP3    H263362   4.227   3.214  16.585  1.5392 -0.9188 -1.0498
13983TIP3   OH263363   5.004   3.166   6.328  0.1113  0.1699 -0.3750
13983TIP3    H163364   5.088   3.124   6.346 -0.5608 -2.2613 -2.4005
13983TIP3    H263365   4.949   3.141   6.401  0.6901  0.4942  0.1871
13984TIP3   OH263366   2.712   5.437   1.886  0.4063 -0.2976 -0.0980
13984TIP3    H163367   2.672   5.520   1.912 -1.1940 -1.1289  0.1593
13984TIP3    H263368   2.652   5.400   1.822  1.6961 -0.7420 -1.1158
13985TIP3   OH263369   2.032   4.507   4.548 -0.3053  0.4962  0.8309
13985TIP3    H163370   1.978   4.580   4.519  0.6480  0.6176 -0.7678
13985TIP3    H263371   2.000   4.432   4.497  0.0999  0.2686  0.9081
13986TIP3   OH263372   3.891   5.628  16.950 -0.0597 -0.1762  0.2189
13986TIP3    H163373   3.861   5.625  17.040  0.0847 -0.6600  0.2555
13986TIP3    H263374   3.986   5.617  16.956 -0.0519 -0.2372  0.0097
13987TIP3   OH263375   0.686   6.591   4.094 -0.0749 -0.2349 -0.4538
13987TIP3    H163376   0.725   6.678   4.080  0.1867 -0.3756 -0.6148
13987TIP3    H263377   0.700   6.546   4.011 -1.0709 -0.1061 -0.6975
13988TIP3   OH263378   1.845   5.827  12.401 -0.3349  0.3768  0.1253
13988TIP3    H163379   1.759   5.864  12.379  0.0011  0.3921 -1.2333
13988TIP3    H263380   1.867   5.771  12.327 -0.0077 -1.1401  1.3246
13989TIP3   OH263381   0.923   3.409  11.389 -0.0214 -0.0231 -0.3110
13989TIP3    H163382   0.974   3.329  11.404  0.9710  0.6727  0.1578
13989TIP3    H263383   0.953   3.442  11.304  0.0121  0.1686 -0.2269
13990TIP3   OH263384   2.695   2.454  14.401  0.8367 -0.0859 -0.4563
13990TIP3    H163385   2.754   2.504  14.346 -0.4454  1.3984 -0.5489
13990TIP3    H263386   2.607   2.479  14.372  0.1350 -0.4150  1.2234
13991TIP3   OH263387   3.991   1.920  13.481  0.3359  0.6378 -0.3258
13991TIP3    H163388   3.954   1.946  13.397 -0.5612 -0.1648 -0.1846
13991TIP3    H263389   4.066   1.865  13.459  0.0671  0.3836 -0.5914
13992TIP3   OH263390   2.845   1.252  17.026  0.2115  0.1754  0.0704
13992TIP3    H163391   2.838   1.161  16.998 -0.8937 -0.1322  1.2235
13992TIP3    H263392   2.770   1.265  17.084  0.4460  1.7756  0.0740
13993TIP3   OH263393   5.987   1.050   5.036 -0.0399  0.2227 -0.2000
13993TIP3    H163394   5.896   1.023   5.026 -0.6972  2.3516 -0.5140
13993TIP3    H263395   5.986   1.107   5.113  1.6024 -1.8726  1.5273
13994TIP3   OH263396   6.501   4.042  15.307  0.6880 -0.1494  0.0123
13994TIP3    H163397   6.483   3.988  15.384  0.2386 -1.5130 -1.0051
13994TIP3    H263398   6.470   4.129  15.331 -1.1965 -0.9677  0.7091
13995TIP3   OH263399   3.812   5.718   5.221 -0.5220  0.5636  0.0065
13995TIP3    H163400   3.889   5.775   5.225  0.9694 -1.1962 -1.9629
13995TIP3    H263401   3.843   5.633   5.252 -1.0935 -0.6571 -2.4862
13996TIP3   OH263402   3.735   4.255  16.935  0.2473  0.6583  0.3137
13996TIP3    H163403   3.718   4.213  17.019 -2.3124  1.3180  0.2110
13996TIP3    H263404   3.811   4.209  16.899  0.5494 -0.5267  2.3687
13997TIP3   OH263405   6.169   6.724   2.563 -0.5193 -0.5217  0.4120
13997TIP3    H163406   6.144   6.816   2.562  0.8709 -0.1281  0.4163
13997TIP3    H263407   6.251   6.721   2.613  0.8663 -1.3639 -1.7753
13998TIP3   OH263408   2.613   2.730  13.613 -0.0905 -0.0957 -0.3090
13998TIP3    H163409   2.522   2.750  13.635  0.1867  1.5278 -0.4677
13998TIP3    H263410   2.655   2.714  13.698 -0.1065  1.1795 -0.0348
13999TIP3   OH263411   1.168   5.024  11.129 -0.3694 -0.3167  0.2933
13999TIP3    H163412   1.219   4.959  11.178 -0.4498 -0.8535 -0.3256
13999TIP3    H263413   1.232   5.070  11.076 -0.3780 -0.2096  0.3747
14000TIP3   OH263414   4.873   2.744  14.228  0.0927  0.1846 -0.2983
14000TIP3    H163415   4.898   2.824  14.274  4.2964 -0.5231 -1.0065
14000TIP3    H263416   4.893   2.762  14.136 -0.1156 -1.2736 -0.6556
14001TIP3   OH263417   1.421   1.336  12.206 -0.2797 -0.4998 -0.6370
14001TIP3    H163418   1.491   1.287  12.248 -0.2725 -0.6928 -0.8690
14001TIP3    H263419   1.448   1.342  12.114  0.0239  0.4841 -0.4957
14002TIP3   OH263420   2.864   3.361  15.509  0.2502 -0.4216 -0.2683
14002TIP3    H163421   2.848   3.443  15.555 -0.1654 -1.5588  1.7611
14002TIP3    H263422   2.782   3.312  15.518  0.7477 -1.3713 -0.7260
14003TIP3   OH263423   1.077   5.566  13.943 -0.2611  0.2778 -0.2036
14003TIP3    H163424   1.090   5.639  14.003  2.1454  1.7218 -2.2751
14003TIP3    H263425   1.098   5.602  13.856 -1.4759 -2.2359 -1.6651
14004TIP3   OH263426   3.220   1.986  13.589 -0.3888 -0.2727  0.1997
14004TIP3    H163427   3.209   1.993  13.494  1.6769 -0.1766 -0.0878
14004TIP3    H263428   3.285   1.917  13.600  0.3690  0.5924  1.4582
14005TIP3   OH263429   4.459   6.155  16.888  0.2199 -0.1862  0.2899
14005TIP3    H163430   4.371   6.127  16.864  0.3350 -0.1130 -0.2169
14005TIP3    H263431   4.478   6.229  16.831  1.9013 -2.2521 -2.0333
14006TIP3   OH263432   6.443   3.873   2.110  0.5942 -0.6382 -0.4155
14006TIP3    H163433   6.380   3.804   2.088 -1.2190  0.9726 -0.5234
14006TIP3    H263434   6.486   3.893   2.027 -0.5683 -0.0542 -0.9046
14007TIP3   OH263435   2.969   0.293   5.655 -0.1547 -0.5519  0.6479
14007TIP3    H163436   2.968   0.228   5.585 -1.0942  0.6183 -0.4796
14007TIP3    H263437   3.036   0.356   5.627 -2.3183  1.3425 -0.6518
14008TIP3   OH263438   4.768   1.140   3.557  0.0644  0.2396 -0.2722
14008TIP3    H163439   4.690   1.168   3.604  0.6490  2.0527 -0.2984
14008TIP3    H263440   4.751   1.163   3.465  1.2800  2.3721 -0.0383
14009TIP3   OH263441   5.879   4.430   2.965 -0.5163  0.0653  0.4763
14009TIP3    H163442   5.926   4.365   2.913 -2.2717 -0.9739  0.0861
14009TIP3    H263443   5.925   4.432   3.049  0.0528 -1.1362  0.2191
14010TIP3   OH263444   4.386   0.275  10.978 -0.0664  0.2871  0.1541
14010TIP3    H163445   4.439   0.290  11.057  0.2121 -0.3805  0.0985
14010TIP3    H263446   4.398   0.355  10.926  1.4576 -0.1303 -0.1824
14011TIP3   OH263447   3.965   3.560  16.515  0.6217  0.1267 -0.2056
14011TIP3    H163448   4.016   3.574  16.435  0.5391  0.8331 -0.1473
14011TIP3    H263449   3.890   3.620  16.506 -0.5765 -1.3746 -0.6096
14012TIP3   OH263450   0.430   3.093  12.744 -0.4865  0.0589 -0.4872
14012TIP3    H163451   0.418   3.059  12.656 -0.3678 -0.9374 -0.1405
14012TIP3    H263452   0.358   3.055  12.795  0.1962 -0.4616  0.1236
14013TIP3   OH263453   3.038   3.440  14.136 -0.1945  0.2576  0.0208
14013TIP3    H163454   3.118   3.486  14.109  0.9176 -1.7535 -0.2391
14013TIP3    H263455   2.995   3.501  14.195  1.6511  1.3053  0.3684
14014TIP3   OH263456   4.535   1.282   4.060 -0.6555 -1.0392 -0.1686
14014TIP3    H163457   4.509   1.253   4.147 -2.1507  0.1635 -0.1667
14014TIP3    H263458   4.631   1.277   4.060 -0.5541 -0.1424  1.8876
14015TIP3   OH263459   1.669   3.001  16.393  0.3244  0.2216  0.2481
14015TIP3    H163460   1.721   3.061  16.446  1.0211  0.2291 -0.4183
14015TIP3    H263461   1.578   3.029  16.406  0.4165 -0.1255  1.8533
14016TIP3   OH263462   6.016   4.763   1.502  0.0885  0.0652 -0.2056
14016TIP3    H163463   5.990   4.708   1.575 -0.2360 -0.0662 -0.4161
14016TIP3    H263464   5.965   4.843   1.512 -0.3582 -0.1695 -0.5869
14017TIP3   OH263465   1.299   3.070  11.812  0.1550 -0.1199  0.3740
14017TIP3    H163466   1.207   3.051  11.796  0.6279 -1.7028 -0.6725
14017TIP3    H263467   1.314   3.154  11.768 -0.8270  0.2791  0.7696
14018TIP3   OH263468   3.342   1.766   1.889 -0.0558 -0.5075  0.1439
14018TIP3    H163469   3.426   1.740   1.851 -0.0633  0.1738 -0.3502
14018TIP3    H263470   3.365   1.799   1.976  0.2977  0.4622 -0.3094
14019TIP3   OH263471   3.336   2.009   1.529  0.2275 -0.4040  0.3607
14019TIP3    H163472   3.256   2.061   1.535  0.1735 -0.3321 -0.8179
14019TIP3    H263473   3.397   2.051   1.590 -0.0063  0.7110 -0.1569
14020TIP3   OH263474   3.716   1.854   3.147 -0.0472  0.6780  0.3580
14020TIP3    H163475   3.712   1.868   3.241  0.5357  0.9954  0.3419
14020TIP3    H263476   3.642   1.903   3.112 -1.4434 -1.0270  0.8085
14021TIP3   OH263477   1.287   0.308   1.597 -0.1497  0.0127  0.0623
14021TIP3    H163478   1.311   0.339   1.684 -1.9434 -3.5865  2.0773
14021TIP3    H263479   1.346   0.234   1.581  0.0920  0.5575 -1.7888
14022TIP3   OH263480   2.365   6.650   5.058  0.5363  0.0081  0.2612
14022TIP3    H163481   2.367   6.561   5.093  1.1072  0.1636  0.6442
14022TIP3    H263482   2.294   6.693   5.105  2.1579  0.6230  2.3165
14023TIP3   OH263483   2.960   0.550  12.708 -0.6968 -0.1846  0.0822
14023TIP3    H163484   2.951   0.489  12.781  0.4460  1.0970  1.3463
14023TIP3    H263485   3.013   0.502  12.644 -0.2798 -0.7130  0.8068
14024TIP3   OH263486   6.343   5.325   4.710 -0.1031  0.1677  0.2117
14024TIP3    H163487   6.397   5.251   4.682 -0.1544  0.4388 -0.6124
14024TIP3    H263488   6.267   5.323   4.652 -1.5732 -0.8816  2.0709
14025TIP3   OH263489   5.833   0.282   6.785  0.1647  0.8824  0.1056
14025TIP3    H163490   5.746   0.248   6.765 -0.2559  0.5397  2.2944
14025TIP3    H263491   5.893   0.210   6.764 -0.1368  0.8266 -0.6074
14026TIP3   OH263492   1.763   0.024   6.505  0.0992 -0.0523  0.2811
14026TIP3    H163493   1.813  -0.058   6.509  1.0070  0.5124  0.8989
14026TIP3    H263494   1.715   0.027   6.588  1.5871  0.9499  1.1543
14027TIP3   OH263495   0.511   3.842  13.601 -0.0192 -0.2405  0.0968
14027TIP3    H163496   0.569   3.918  13.595  2.1149 -1.7736  0.3296
14027TIP3    H263497   0.495   3.832  13.695  0.5957 -0.7055  0.1563
14028TIP3   OH263498   3.491   5.056  14.563  0.8473  0.0062  0.7537
14028TIP3    H163499   3.583   5.039  14.543  0.9149 -0.3753  1.3359
14028TIP3    H263500   3.443   4.989  14.513  0.7527  1.2356 -0.8585
14029TIP3   OH263501   4.174   5.795   3.630  0.4547  0.2829 -0.1902
14029TIP3    H163502   4.224   5.827   3.555  0.0841  0.4388 -0.3716
14029TIP3    H263503   4.083   5.797   3.601  0.4192 -0.9483 -0.2168
14030TIP3   OH263504   0.003   4.899   1.154 -0.3829 -0.2759  0.7874
14030TIP3    H163505  -0.050   4.917   1.232  0.0609 -0.3295  1.1072
14030TIP3    H263506   0.093   4.910   1.183 -0.2291  2.9327 -0.5110
14031TIP3   OH263507   5.668   5.660  12.535  0.0731 -0.5200  0.3429
14031TIP3    H163508   5.703   5.707  12.459 -0.4378 -0.3851  0.1869
14031TIP3    H263509   5.618   5.588  12.497 -2.8478  1.3446  0.3993
14032TIP3   OH263510   5.007   1.248  14.578  0.0275  0.1407  0.7085
14032TIP3    H163511   5.082   1.295  14.542  0.1515 -0.1711  0.5653
14032TIP3    H263512   4.931   1.289  14.536 -0.0333  1.8612  2.3674
14033TIP3   OH263513   1.574   4.395   5.239 -0.0223 -0.1740 -0.0095
14033TIP3    H163514   1.628   4.318   5.255  0.7184  0.1581 -0.8236
14033TIP3    H263515   1.632   4.457   5.193 -0.6141  0.8463  0.5680
14034TIP3   OH263516   2.676   3.455   3.925 -0.0442 -0.1054 -0.1581
14034TIP3    H163517   2.672   3.412   4.010  1.7760 -2.6946 -1.2426
14034TIP3    H263518   2.646   3.389   3.863  0.3965  1.0760 -1.6986
14035TIP3   OH263519   1.175   0.022  14.941  0.0879  0.4413 -0.2404
14035TIP3    H163520   1.226  -0.053  14.912  0.8503  0.7914  0.1788
14035TIP3    H263521   1.099  -0.016  14.985  1.2821 -0.1190  1.4397
14036TIP3   OH263522   0.592   4.236  13.894 -0.1950 -0.6007  0.3570
14036TIP3    H163523   0.517   4.262  13.949 -0.1928  1.5535 -0.5606
14036TIP3    H263524   0.562   4.250  13.804  1.2697  0.2776 -0.0337
14037TIP3   OH263525   2.319   4.303  11.152 -0.1034 -0.6963  0.5418
14037TIP3    H163526   2.350   4.307  11.062  3.0277  2.3132  1.5239
14037TIP3    H263527   2.373   4.236  11.193  0.4156 -0.1423  0.7713
14038TIP3   OH263528   1.677   1.904   2.707  0.7617  0.0133 -0.4805
14038TIP3    H163529   1.676   1.978   2.646  1.0882 -0.8815 -1.6007
14038TIP3    H263530   1.765   1.868   2.701  0.5093 -0.6798 -0.1969
14039TIP3   OH263531   1.135   4.776  14.708 -0.1905  0.1936 -0.0050
14039TIP3    H163532   1.174   4.755  14.793  0.8880 -0.5262 -0.6518
14039TIP3    H263533   1.156   4.868  14.694 -1.5995  0.7252  1.1179
14040TIP3   OH263534   1.257   6.743  11.847 -0.0900  0.0114  0.2646
14040TIP3    H163535   1.282   6.782  11.763  0.7342  1.6980  1.2335
14040TIP3    H263536   1.219   6.659  11.824  0.3403  0.3201 -1.7806
14041TIP3   OH263537   2.872   4.006   3.143  0.2211  0.0684  0.5925
14041TIP3    H163538   2.938   4.056   3.096  0.7188 -2.0411 -1.1744
14041TIP3    H263539   2.791   4.055   3.129  0.6896  0.4735 -0.9931
14042TIP3   OH263540   5.246   5.619  11.989  0.1339 -0.0046 -0.0566
14042TIP3    H163541   5.322   5.615  11.931 -0.3085  1.3268 -0.7770
14042TIP3    H263542   5.227   5.527  12.010  1.5242 -0.3936 -0.3926
14043TIP3   OH263543   5.389   6.080   5.340  0.4320 -0.0825 -0.5251
14043TIP3    H163544   5.303   6.046   5.364  0.0690  0.2905 -1.2766
14043TIP3    H263545   5.400   6.157   5.396 -0.4895  0.8903 -1.6271
14044TIP3   OH263546   5.645   2.684   4.588 -0.5555  0.2529 -0.1030
14044TIP3    H163547   5.594   2.628   4.530 -1.9265 -0.1639  1.4127
14044TIP3    H263548   5.628   2.773   4.557  0.1121 -0.0385 -1.3555
14045TIP3   OH263549   0.031   4.948  14.899  0.2129 -0.0279 -0.5342
14045TIP3    H163550  -0.010   4.869  14.864 -0.2743 -0.4770  1.0003
14045TIP3    H263551  -0.007   5.019  14.847 -0.4952 -0.6617 -0.9117
14046TIP3   OH263552   4.483   3.664   3.250 -0.3670  0.9589  0.0240
14046TIP3    H163553   4.551   3.721   3.216  0.7802  0.5707  1.5762
14046TIP3    H263554   4.521   3.623   3.328 -1.9902 -0.0986  0.3317
14047TIP3   OH263555   1.763   0.375   0.212  0.6343  0.3587  0.0346
14047TIP3    H163556   1.693   0.440   0.222 -1.2957 -1.8149  1.3555
14047TIP3    H263557   1.769   0.362   0.117  0.6445  1.9496 -0.2235
14048TIP3   OH263558   4.581   1.740  14.441 -0.5319 -0.1199 -0.2547
14048TIP3    H163559   4.552   1.758  14.531  1.2582  2.8788 -0.1430
14048TIP3    H263560   4.677   1.742  14.446 -0.3456 -1.8292 -1.9560
14049TIP3   OH263561   4.874   1.996  17.055 -0.0958 -0.5682 -0.3075
14049TIP3    H163562   4.959   1.979  17.013  0.2426  0.3270 -0.0112
14049TIP3    H263563   4.873   2.090  17.069 -1.0855 -0.5933 -0.1703
14050TIP3   OH263564   0.433   2.148   4.411 -0.1298 -0.2658  0.2278
14050TIP3    H163565   0.446   2.079   4.346 -2.2571 -1.3527  0.8597
14050TIP3    H263566   0.342   2.138   4.440  0.5947  0.3911  3.1126
14051TIP3   OH263567   4.720   3.571   2.438 -0.0738  0.2475 -0.1466
14051TIP3    H163568   4.743   3.643   2.497  0.1529  0.6134 -0.6745
14051TIP3    H263569   4.735   3.607   2.350 -1.0405 -0.0772 -0.4492
14052TIP3   OH263570   2.859   6.225  17.266 -0.0529 -0.4448 -0.0219
14052TIP3    H163571   2.814   6.304  17.233 -1.0489 -0.8575  0.2948
14052TIP3    H263572   2.801   6.153  17.241  0.5583 -1.0244  0.2099
14053TIP3   OH263573   6.046   5.507  10.961  0.2448  0.4106  0.4039
14053TIP3    H163574   6.100   5.551  10.896 -0.2542 -2.0318 -1.8436
14053TIP3    H263575   5.958   5.507  10.923  0.4629 -3.6009 -0.4938
14054TIP3   OH263576   2.857   1.988  12.986  0.0333 -0.1345  0.4251
14054TIP3    H163577   2.812   2.030  12.912 -2.5501 -2.9046  0.2421
14054TIP3    H263578   2.902   1.913  12.947  0.2670 -0.5193  1.4104
14055TIP3   OH263579   0.819   4.079  12.527 -0.0091  0.0063 -0.3034
14055TIP3    H163580   0.796   4.171  12.543 -0.9283 -0.0674 -1.0877
14055TIP3    H263581   0.851   4.078  12.437 -0.1465 -0.4708 -0.3486
14056TIP3   OH263582   4.892   3.660  12.338 -0.3986  0.0950  0.0735
14056TIP3    H163583   4.925   3.745  12.309 -0.9134  0.4318  0.4519
14056TIP3    H263584   4.919   3.654  12.430 -0.6446 -0.0022  0.1410
14057TIP3   OH263585   3.482   3.233  11.090  0.4814 -0.5118 -0.3646
14057TIP3    H163586   3.493   3.139  11.102  1.4064 -0.3819 -0.1046
14057TIP3    H263587   3.425   3.242  11.014  0.4547 -1.2754 -0.4379
14058TIP3   OH263588   0.098   4.294  14.640  0.0972  0.2703 -0.2739
14058TIP3    H163589   0.163   4.231  14.611 -0.9052 -0.6635 -0.5846
14058TIP3    H263590   0.072   4.264  14.727 -1.2099 -0.4595 -0.8783
14059TIP3   OH263591   5.527   2.267  11.005  0.0611  0.5528 -0.1619
14059TIP3    H163592   5.436   2.279  10.980  0.2311  0.1767 -0.9956
14059TIP3    H263593   5.575   2.337  10.960  0.1816  0.7715  0.2998
14060TIP3   OH263594   0.081   5.774   3.001 -0.4023  0.4184  0.4517
14060TIP3    H163595   0.058   5.851   3.052  0.6057  0.3929  0.9682
14060TIP3    H263596   0.109   5.709   3.065 -0.9761 -0.2921  0.0030
14061TIP3   OH263597   6.661   2.852  12.038 -0.3120  0.1638  0.0651
14061TIP3    H163598   6.697   2.893  11.959  1.0248  0.3099  0.7291
14061TIP3    H263599   6.693   2.762  12.035 -0.7707 -0.0068  0.1417
14062TIP3   OH263600   3.155   4.216   4.769 -0.1919 -0.5606 -0.0340
14062TIP3    H163601   3.164   4.269   4.690 -1.4951 -0.0802  0.1148
14062TIP3    H263602   3.205   4.263   4.836  0.6022 -0.7724 -0.4637
14063TIP3   OH263603   5.077   1.686   5.130  0.3785  0.5609 -0.0150
14063TIP3    H163604   5.161   1.729   5.116  1.4911 -1.1561  0.9861
14063TIP3    H263605   5.054   1.649   5.045  1.0831  0.3100 -0.1001
14064TIP3   OH263606   5.494   4.500  10.530 -0.1833  0.2545 -0.5794
14064TIP3    H163607   5.420   4.542  10.573  0.0631  0.8470 -0.7296
14064TIP3    H263608   5.470   4.408  10.525 -0.2373  0.1834  0.7716
14065TIP3   OH263609   4.209   2.298   3.649  0.1379  0.2569  0.1046
14065TIP3    H163610   4.217   2.204   3.635  1.3194  0.3688  0.0058
14065TIP3    H263611   4.246   2.313   3.736 -1.0092  0.5002  0.5804
14066TIP3   OH263612   0.342   2.210  15.441 -0.0949 -0.1173 -0.1304
14066TIP3    H163613   0.374   2.296  15.413 -0.0941  0.0681  0.4252
14066TIP3    H263614   0.248   2.223  15.454  0.2875  0.5341  2.5255
14067TIP3   OH263615   1.032   2.193   5.535  1.2110  0.3666  0.0390
14067TIP3    H163616   1.053   2.162   5.623 -2.1615 -1.3199  0.4332
14067TIP3    H263617   0.992   2.279   5.549 -1.7455 -0.9730  0.6310
14068TIP3   OH263618   5.212   2.869  11.449 -0.5208 -0.7444  0.2437
14068TIP3    H163619   5.190   2.807  11.519 -0.4816  1.7240  2.6154
14068TIP3    H263620   5.227   2.952  11.495 -0.3510  0.9945 -2.7301
14069TIP3   OH263621   3.902   1.066   6.812 -0.0942 -0.0985  0.0845
14069TIP3    H163622   3.988   1.084   6.774  0.1943 -1.0322  0.2671
14069TIP3    H263623   3.840   1.101   6.747  0.3755 -2.1307 -1.5763
14070TIP3   OH263624   0.369   1.228  15.141  0.1611  0.0344  0.3483
14070TIP3    H163625   0.332   1.315  15.153 -0.7205 -0.5271  1.9084
14070TIP3    H263626   0.464   1.242  15.140  0.0225  1.0114  0.5260
14071TIP3   OH263627   6.389   0.668   2.688 -0.3440  0.1415 -0.8202
14071TIP3    H163628   6.460   0.605   2.701  1.1436  1.0437 -3.5148
14071TIP3    H263629   6.317   0.617   2.653 -0.5343 -0.5925  0.6156
14072TIP3   OH263630   4.252   1.463   5.835  0.3778  0.3028  0.2132
14072TIP3    H163631   4.256   1.460   5.930  0.7916  0.3993  0.1979
14072TIP3    H263632   4.282   1.551   5.812  0.7431  0.1126 -0.0327
14073TIP3   OH263633   1.657   6.755   4.105 -0.6191  0.0545  0.0406
14073TIP3    H163634   1.640   6.692   4.035  1.1296 -0.4366  0.0178
14073TIP3    H263635   1.653   6.840   4.060 -3.0702  0.0525  0.0913
14074TIP3   OH263636   0.791   0.955   2.108 -0.2706 -0.2767  0.2470
14074TIP3    H163637   0.751   1.020   2.050 -1.1471 -1.8709 -1.0241
14074TIP3    H263638   0.836   0.895   2.049 -2.0418 -2.5323  1.0263
14075TIP3   OH263639   5.192   0.649   1.883  0.3592 -0.1206 -0.4001
14075TIP3    H163640   5.148   0.573   1.922 -0.2797  0.1176 -0.6357
14075TIP3    H263641   5.164   0.723   1.938  0.5031  0.0294 -0.5278
14076TIP3   OH263642   3.142   2.772   2.850 -0.6010 -0.3210 -0.3567
14076TIP3    H163643   3.067   2.757   2.908  0.0147 -0.2731  0.4526
14076TIP3    H263644   3.144   2.866   2.837 -0.7926 -0.3400 -0.5460
14077TIP3   OH263645   2.365   1.656   1.509  0.3766 -0.0235 -0.5048
14077TIP3    H163646   2.317   1.599   1.449  0.5279 -0.4094 -0.2637
14077TIP3    H263647   2.447   1.675   1.463  0.0828  0.4689 -0.8285
14078TIP3   OH263648   5.858   4.387  11.850  0.6278  0.0248  0.3314
14078TIP3    H163649   5.921   4.358  11.784 -0.2274 -3.3784  0.8262
14078TIP3    H263650   5.892   4.354  11.933 -0.0893  1.1839  1.1255
14079TIP3   OH263651   0.856   4.272   3.557  0.6222  0.4786 -0.2972
14079TIP3    H163652   0.894   4.326   3.626  1.6194 -2.2818  1.4754
14079TIP3    H263653   0.922   4.270   3.488  1.0096  0.7116  0.0660
14080TIP3   OH263654   6.319   4.960  11.982  0.4279 -0.4532  0.1848
14080TIP3    H163655   6.408   4.994  11.992 -0.1975  2.5004 -2.4089
14080TIP3    H263656   6.310   4.944  11.888 -2.0673  0.3859  0.1947
14081TIP3   OH263657   1.902   1.270   3.370 -0.0166 -0.0590 -0.6237
14081TIP3    H163658   1.936   1.208   3.434  1.7980  0.9479 -0.5529
14081TIP3    H263659   1.933   1.238   3.286 -2.4999 -1.4479 -1.1219
14082TIP3   OH263660   4.811   5.801   2.893  0.3950  0.1739  0.5180
14082TIP3    H163661   4.886   5.859   2.880  2.3168 -1.9036  1.5957
14082TIP3    H263662   4.845   5.713   2.876 -2.1742 -0.7563 -0.2680
14083TIP3   OH263663   0.640   2.613  16.321  0.2606  0.4426  0.3770
14083TIP3    H163664   0.667   2.534  16.275  0.4869  0.3837  0.6043
14083TIP3    H263665   0.702   2.621  16.394 -0.2067  0.4207  0.7881
14084TIP3   OH263666   0.688   0.139  15.077  0.1709 -0.2668  0.2930
14084TIP3    H163667   0.671   0.060  15.129  0.2991 -0.1313  0.5409
14084TIP3    H263668   0.722   0.105  14.994  0.0945 -0.4779  0.3452
14085TIP3   OH263669   5.128   5.533   6.211  0.5593 -0.0236  0.2695
14085TIP3    H163670   5.085   5.476   6.275  1.6164 -1.0112  0.1397
14085TIP3    H263671   5.159   5.608   6.263  0.3871 -0.2531  0.7116
14086TIP3   OH263672   1.762   4.523   5.073 -0.4236  0.0644 -0.9978
14086TIP3    H163673   1.791   4.493   4.987  0.0156  1.2177 -1.2754
14086TIP3    H263674   1.840   4.560   5.114  0.1974 -3.3423  1.2851
14087TIP3   OH263675   2.360   6.178  14.379  0.2277  0.4906  0.3643
14087TIP3    H163676   2.291   6.199  14.316  0.7216 -0.1466 -0.4144
14087TIP3    H263677   2.440   6.216  14.342  0.8185 -1.2133 -0.2296
14088TIP3   OH263678   6.727   5.795  16.110  0.3981 -0.8511  0.0387
14088TIP3    H163679   6.662   5.754  16.167 -0.2097  0.0952  0.0382
14088TIP3    H263680   6.802   5.810  16.167 -0.7931  1.6420  1.1090
14089TIP3   OH263681   0.006   3.233  16.301  0.3014 -0.1446  0.5038
14089TIP3    H163682   0.039   3.300  16.241 -2.7315  2.2556  1.3031
14089TIP3    H263683   0.061   3.242  16.379  2.0355 -0.9476 -0.5542
14090TIP3   OH263684   1.536   3.889  13.732 -0.2379  0.1464 -0.2861
14090TIP3    H163685   1.536   3.883  13.828  0.5577  0.9516 -0.2242
14090TIP3    H263686   1.443   3.894  13.709 -0.5699 -2.1884  0.2629
14091TIP3   OH263687   5.454   0.699  13.207 -0.2764  0.4496 -0.4575
14091TIP3    H163688   5.409   0.693  13.123  2.0468  2.9229 -2.0426
14091TIP3    H263689   5.542   0.664  13.190 -0.2448 -0.5797  1.4688
14092TIP3   OH263690   3.131   5.722  11.502 -0.3959  0.8295  0.3333
14092TIP3    H163691   3.136   5.711  11.407  1.2696 -1.6766  0.5880
14092TIP3    H263692   3.218   5.694  11.533 -1.9546 -1.8732  2.7733
14093TIP3   OH263693   0.388   1.945   0.519 -0.0781  0.3383 -0.5348
14093TIP3    H163694   0.320   1.950   0.452 -0.6158 -0.6750 -0.0858
14093TIP3    H263695   0.358   2.004   0.588 -1.8537 -1.9319  0.7930
14094TIP3   OH263696   6.634   6.466   0.050  0.0574 -0.0636  0.3085
14094TIP3    H163697   6.606   6.412   0.124 -0.8915  0.2723  0.2008
14094TIP3    H263698   6.565   6.531   0.040 -0.8746 -1.2915 -2.1228
14095TIP3   OH263699   1.769   0.060   5.141 -0.8170 -0.1264  0.0613
14095TIP3    H163700   1.804  -0.030   5.144 -0.0287  0.0826 -1.8506
14095TIP3    H263701   1.836   0.110   5.095 -1.1743  1.5165  1.2543
14096TIP3   OH263702   6.207   2.402   4.186 -0.6129 -0.0978  0.4267
14096TIP3    H163703   6.177   2.382   4.275  2.7655 -1.1866  1.4798
14096TIP3    H263704   6.191   2.322   4.136 -0.1597 -0.4166  0.7829
14097TIP3   OH263705   6.709   6.012  14.322  0.4335  0.5230 -0.2963
14097TIP3    H163706   6.798   6.041  14.341 -0.3389  2.2418  1.1092
14097TIP3    H263707   6.655   6.090  14.339 -1.3620 -0.5702 -0.7398
14098TIP3   OH263708   3.403   4.363   3.564  0.4677 -0.2009  0.3017
14098TIP3    H163709   3.485   4.379   3.611  1.9166  0.5872 -2.2849
14098TIP3    H263710   3.398   4.268   3.557  0.7426 -0.2900  1.1581
14099TIP3   OH263711   3.028   4.070  13.053  0.3451  0.0164 -0.5335
14099TIP3    H163712   3.005   4.140  13.114 -0.4758  0.1502 -0.9774
14099TIP3    H263713   2.955   4.008  13.058  1.1425 -0.9033 -0.0187
14100TIP3   OH263714   5.511   6.424  13.235 -0.1357  0.2467 -0.0285
14100TIP3    H163715   5.429   6.405  13.282 -0.3823 -1.9136 -1.1836
14100TIP3    H263716   5.536   6.340  13.197  1.8867  1.1838 -0.8920
14101TIP3   OH263717   5.550   2.138  13.341 -0.5047 -0.1588  0.1961
14101TIP3    H163718   5.516   2.228  13.346  0.7108  0.5194 -2.1519
14101TIP3    H263719   5.618   2.134  13.408 -0.1176  0.9262 -0.1049
14102TIP3   OH263720   5.781   3.669   3.092  0.3506  0.0517  0.1880
14102TIP3    H163721   5.866   3.696   3.126 -0.2726 -0.7235  2.5797
14102TIP3    H263722   5.796   3.582   3.055  0.4541 -0.4876  1.4470
14103TIP3   OH263723   5.369   2.863  11.220  0.3665 -0.3769  0.5166
14103TIP3    H163724   5.311   2.843  11.147 -0.0705 -1.5334  1.1469
14103TIP3    H263725   5.311   2.867  11.296  0.9234 -0.0464  0.9270
14104TIP3   OH263726   0.160   4.423   6.010 -0.1955  0.0122 -0.1341
14104TIP3    H163727   0.065   4.432   6.021 -0.3131  0.6318 -1.4350
14104TIP3    H263728   0.195   4.431   6.099 -1.2093  1.9608  0.1511
14105TIP3   OH263729   0.166   0.822  13.582 -0.2997  0.4994 -0.1150
14105TIP3    H163730   0.161   0.869  13.499 -0.7452  0.2487 -0.2333
14105TIP3    H263731   0.131   0.883  13.646  0.0446  0.6934 -0.1065
14106TIP3   OH263732   2.487   4.760   4.287 -0.4665  0.4592  0.1865
14106TIP3    H163733   2.488   4.781   4.193  1.8745 -0.3253 -0.0293
14106TIP3    H263734   2.509   4.667   4.291 -0.9166  0.3926  1.5146
14107TIP3   OH263735   2.032   3.947  16.919  0.4928 -0.1479 -0.0348
14107TIP3    H163736   2.055   3.930  17.010  0.3196  0.9921  0.2456
14107TIP3    H263737   2.088   4.021  16.893 -0.4388  0.4564 -0.3925
14108TIP3   OH263738   3.132   2.506  14.393 -0.4950  0.0773  0.0850
14108TIP3    H163739   3.158   2.415  14.406  1.0853  0.3402 -0.9297
14108TIP3    H263740   3.037   2.503  14.379 -0.6377 -1.2598  1.2372
14109TIP3   OH263741   5.494   3.233   5.115 -0.2385  0.1435  0.2429
14109TIP3    H163742   5.476   3.142   5.139  0.3196  0.1998  0.9010
14109TIP3    H263743   5.510   3.230   5.021  0.2302 -0.5166  0.3399
14110TIP3   OH263744   3.200   6.516  14.852 -0.3075 -0.0069  0.1279
14110TIP3    H163745   3.204   6.536  14.759 -1.2750 -0.4540 -0.0228
14110TIP3    H263746   3.290   6.522  14.882 -0.1020  1.0233 -0.6443
14111TIP3   OH263747   0.019   4.021  12.251 -0.0536 -0.4326 -0.6179
14111TIP3    H163748   0.021   3.929  12.276  2.4187  0.1479  1.7523
14111TIP3    H263749   0.088   4.030  12.186  1.1445  0.0728  0.6855
14112TIP3   OH263750   4.713   3.500   4.965 -0.6260 -0.3092 -0.0135
14112TIP3    H163751   4.677   3.535   4.884  0.9374  1.0485 -0.1854
14112TIP3    H263752   4.776   3.433   4.936 -0.7434 -0.4875  0.1365
14113TIP3   OH263753   3.115   3.487   4.230  0.7442  0.2661 -0.2169
14113TIP3    H163754   3.198   3.453   4.195  0.1157 -0.0236 -1.4907
14113TIP3    H263755   3.065   3.513   4.153 -0.3509  0.4585  0.5325
14114TIP3   OH263756   5.507   4.128  12.417 -0.0266 -0.2653  0.0791
14114TIP3    H163757   5.561   4.091  12.486 -1.0051 -3.8657 -0.8511
14114TIP3    H263758   5.417   4.114  12.448 -0.4809 -1.9320 -1.7858
14115TIP3   OH263759   3.137   6.244   4.170 -0.0132  0.5732 -0.2689
14115TIP3    H163760   3.161   6.251   4.077  2.1993  0.0470  0.2104
14115TIP3    H263761   3.097   6.329   4.190 -0.1826  0.8366 -1.6216
14116TIP3   OH263762   5.292   6.229  10.732 -0.2899  0.2651  0.2128
14116TIP3    H163763   5.315   6.150  10.682 -1.4568 -0.4370  0.7441
14116TIP3    H263764   5.351   6.296  10.698  0.3136 -0.6794 -0.6913
14117TIP3   OH263765   5.399   1.518  16.465  0.1763 -0.2938  0.1398
14117TIP3    H163766   5.368   1.504  16.554  0.9548  0.1654  0.4964
14117TIP3    H263767   5.425   1.431  16.434  1.5773 -0.2183  1.0151
14118TIP3   OH263768   6.006   4.966  16.729  0.6411  0.4984 -0.3877
14118TIP3    H163769   6.019   4.980  16.635  0.8140  2.4379 -0.1166
14118TIP3    H263770   6.088   4.993  16.769  0.1333  0.8781  0.4156
14119TIP3   OH263771   2.692   0.469  12.995 -0.0734 -0.2731  0.2778
14119TIP3    H163772   2.696   0.422  12.913  1.0104 -0.5821  0.4918
14119TIP3    H263773   2.754   0.424  13.053  0.8322  1.2271  0.5615
14120TIP3   OH263774   5.409   3.087  16.174 -0.4417 -0.0636 -0.3438
14120TIP3    H163775   5.448   3.129  16.251  1.3656 -0.2043 -1.1216
14120TIP3    H263776   5.456   3.126  16.100 -0.0615 -2.0413 -1.1985
14121TIP3   OH263777   2.691   0.100   6.444 -0.4652 -0.2455 -0.1194
14121TIP3    H163778   2.601   0.095   6.413 -1.2218  1.0824  1.7023
14121TIP3    H263779   2.696   0.037   6.516 -0.9204  1.7869  1.8280
14122TIP3   OH263780   3.178   1.016   0.527  0.1459 -0.0395 -0.2225
14122TIP3    H163781   3.225   0.976   0.454 -0.5043  1.2241 -1.4039
14122TIP3    H263782   3.242   1.072   0.570  0.5208 -0.7507  0.1461
14123TIP3   OH263783   4.027   2.885  15.324  0.0185  0.7019  0.6095
14123TIP3    H163784   4.058   2.795  15.336  1.5703  0.6673 -2.6385
14123TIP3    H263785   4.055   2.931  15.404  2.4911 -0.9092  0.7866
14124TIP3   OH263786   4.867   4.964  16.977 -0.0041 -0.0460 -1.1347
14124TIP3    H163787   4.925   5.004  17.042  0.8355 -2.5977 -0.1843
14124TIP3    H263788   4.797   5.027  16.966  2.0725  2.4457 -1.0774
14125TIP3   OH263789   5.170   5.252   4.518 -0.1488  0.5016  0.0269
14125TIP3    H163790   5.212   5.287   4.439  0.6011  0.0929  0.2378
14125TIP3    H263791   5.120   5.176   4.486 -0.8046  1.0336 -0.2363
14126TIP3   OH263792   6.494   4.519  14.191 -0.9979 -0.7655  0.5819
14126TIP3    H163793   6.474   4.536  14.283 -2.5003 -1.2194  0.3672
14126TIP3    H263794   6.436   4.577  14.142 -1.4412 -1.7374 -0.0886
14127TIP3   OH263795   3.025   6.607   4.913 -0.4009  0.1988  0.0744
14127TIP3    H163796   3.002   6.558   4.834 -2.4774 -0.9910  1.3581
14127TIP3    H263797   3.003   6.549   4.985 -1.5089  2.4257  1.6323
14128TIP3   OH263798   3.307   1.863   4.849 -0.4965 -0.3522  0.1803
14128TIP3    H163799   3.345   1.776   4.839  2.7574  0.7501  1.5685
14128TIP3    H263800   3.325   1.906   4.766 -0.8313 -0.5499  0.0030
14129TIP3   OH263801   3.848   6.658  16.301 -0.6700  0.2327  0.3201
14129TIP3    H163802   3.942   6.657  16.286 -0.9048 -0.4587 -1.2577
14129TIP3    H263803   3.810   6.682  16.216 -1.9080  0.9158  1.0318
14130TIP3   OH263804   2.517   1.009  15.326  0.1279  0.4770 -0.2976
14130TIP3    H163805   2.536   0.918  15.305  0.7478  0.7532 -0.9383
14130TIP3    H263806   2.445   1.033  15.267  1.7906  1.2170 -2.1334
14131TIP3   OH263807   0.683   0.459  16.929 -0.0829 -0.5339  0.5692
14131TIP3    H163808   0.682   0.546  16.967 -2.3264 -0.9265  1.6121
14131TIP3    H263809   0.696   0.473  16.835 -0.8809  0.9642  0.6597
14132TIP3   OH263810   2.171   0.814  17.094 -0.3538 -0.4984  0.5244
14132TIP3    H163811   2.142   0.890  17.044  3.4740  0.7900 -0.0614
14132TIP3    H263812   2.142   0.739  17.042 -0.8510  0.6692 -0.9422
14133TIP3   OH263813   2.882   6.523  16.931  0.3011 -0.1694 -0.3895
14133TIP3    H163814   2.824   6.554  16.861  1.3595  1.3041 -0.6608
14133TIP3    H263815   2.827   6.465  16.984 -0.7086 -0.7576 -2.0331
14134TIP3   OH263816   6.755   3.189  11.143  0.4082  0.0793 -0.3678
14134TIP3    H163817   6.689   3.247  11.105  0.7764 -0.8101 -2.4868
14134TIP3    H263818   6.828   3.193  11.082  1.5678 -0.4329  0.9464
14135TIP3   OH263819   4.274   2.723  15.058  0.0569 -0.2903 -0.5228
14135TIP3    H163820   4.200   2.720  15.118 -0.7505 -0.4708 -1.5156
14135TIP3    H263821   4.349   2.743  15.114 -0.7804  0.2013  0.4522
14136TIP3   OH263822   1.257   0.860  11.800 -0.3354  0.0062  0.5254
14136TIP3    H163823   1.209   0.915  11.739 -0.7820 -0.8659  0.0682
14136TIP3    H263824   1.348   0.889  11.793 -0.5092  0.4341  0.0325
14137TIP3   OH263825   6.235   6.346  15.837 -0.5301  0.1785  0.0260
14137TIP3    H163826   6.149   6.315  15.809  0.0614 -2.2676  0.6349
14137TIP3    H263827   6.224   6.369  15.930 -0.5350 -0.1161  0.0983
14138TIP3   OH263828   5.362   5.599  17.125  0.0089 -0.1423 -0.3166
14138TIP3    H163829   5.417   5.522  17.112 -0.5562 -0.5608 -0.2893
14138TIP3    H263830   5.351   5.605  17.220 -0.3283 -0.3012 -0.3464
14139TIP3   OH263831   4.235   1.770   0.685 -0.0725  0.2769  0.1157
14139TIP3    H163832   4.320   1.784   0.643  1.3425 -1.1547  2.3212
14139TIP3    H263833   4.247   1.801   0.774 -2.1199  0.6708  0.2912
14140TIP3   OH263834   5.248   3.776   4.836 -0.1421 -0.2968 -0.0179
14140TIP3    H163835   5.317   3.813   4.781  0.3694  0.4385  1.0978
14140TIP3    H263836   5.167   3.816   4.804  0.0413 -0.4976 -0.7531
14141TIP3   OH263837   3.429   4.790   1.497 -0.4503 -0.0132  0.6374
14141TIP3    H163838   3.492   4.719   1.484 -0.1064  0.2772  0.7051
14141TIP3    H263839   3.346   4.745   1.513 -0.9049 -0.4292 -2.2920
14142TIP3   OH263840   1.792   1.805  15.093 -0.2900  0.0813 -0.1742
14142TIP3    H163841   1.714   1.784  15.145 -0.4155  0.5575 -0.1694
14142TIP3    H263842   1.826   1.719  15.066 -0.4326 -0.1584  0.3838
14143TIP3   OH263843   3.205   1.268   3.977 -0.5221  0.0144  0.1576
14143TIP3    H163844   3.260   1.246   3.901  0.1867 -1.0315  0.9443
14143TIP3    H263845   3.248   1.344   4.016  1.5498 -1.8588  1.8268
14144TIP3   OH263846   5.778   2.937  12.432 -0.0463 -0.3653 -0.1923
14144TIP3    H163847   5.729   2.855  12.421  1.9263 -1.5874 -0.2659
14144TIP3    H263848   5.804   2.937  12.524  1.3296 -0.6369 -0.5717
14145TIP3   OH263849   5.016   6.008   3.655  0.9108 -0.1361  0.0525
14145TIP3    H163850   4.984   6.060   3.581 -1.0462 -1.0342  0.1960
14145TIP3    H263851   5.002   5.918   3.628 -0.0124 -0.4799  1.5526
14146TIP3   OH263852   6.037   1.038  14.074 -0.4161  0.2019  0.6351
14146TIP3    H163853   6.029   0.999  14.161  0.3674 -1.9803 -0.2250
14146TIP3    H263854   5.952   1.023  14.033 -0.2182 -0.3063  0.4137
14147TIP3   OH263855   0.782   3.960   2.601 -0.0675 -0.2492 -0.2295
14147TIP3    H163856   0.859   4.011   2.579 -0.6208  1.6806  1.9649
14147TIP3    H263857   0.816   3.874   2.625  1.5903  0.9057  1.8575
14148TIP3   OH263858   3.978   5.723   4.103 -0.0170 -0.1297  0.3305
14148TIP3    H163859   4.050   5.733   4.166 -1.2873  0.8472  1.6967
14148TIP3    H263860   4.021   5.720   4.018  1.9303 -3.1716  1.2487
14149TIP3   OH263861   2.751   5.729  12.299 -0.2740  0.3005  0.4120
14149TIP3    H163862   2.773   5.822  12.307 -3.2227  0.9949  1.8774
14149TIP3    H263863   2.816   5.684  12.353  0.9343  1.5289  0.0386
14150TIP3   OH263864   5.194   5.546   0.867 -0.1418  0.1746 -0.5105
14150TIP3    H163865   5.114   5.514   0.824 -0.5138  1.5097 -0.8606
14150TIP3    H263866   5.240   5.466   0.894 -1.7177 -0.6273 -0.0605
14151TIP3   OH263867   4.450   6.617   6.361 -0.0774  0.2907 -0.4663
14151TIP3    H163868   4.419   6.696   6.405 -0.5016  1.0605 -2.0616
14151TIP3    H263869   4.379   6.594   6.301  0.5182 -0.6487 -0.8265
14152TIP3   OH263870   0.690   5.667  16.207 -0.3604  0.1865 -0.3846
14152TIP3    H163871   0.740   5.645  16.128 -1.2511  0.1457 -0.9438
14152TIP3    H263872   0.756   5.703  16.267  0.7041 -1.6099 -0.3804
14153TIP3   OH263873   2.293   0.000   4.814  0.1994 -0.1348  0.4714
14153TIP3    H163874   2.200  -0.017   4.803  0.2648 -1.6915  1.8832
14153TIP3    H263875   2.318  -0.052   4.890  2.7071 -1.5926 -1.2021
14154TIP3   OH263876   4.903   3.758  16.991 -0.2236 -0.5932  0.0402
14154TIP3    H163877   4.974   3.821  16.976 -1.3309  0.5158 -0.7974
14154TIP3    H263878   4.823   3.808  16.973 -1.2442 -1.7107  1.3047
14155TIP3   OH263879   1.959   6.442   0.435 -0.0185 -0.4373  0.0111
14155TIP3    H163880   2.039   6.406   0.397  0.7875 -0.5692  1.7374
14155TIP3    H263881   1.983   6.463   0.525 -0.9689  2.6951 -0.3418
14156TIP3   OH263882   6.691   3.219  17.011  0.0678 -0.0764 -0.0834
14156TIP3    H163883   6.602   3.185  17.004 -1.0679  2.8269 -1.6132
14156TIP3    H263884   6.679   3.310  17.041  2.5156  0.3916 -0.3098
14157TIP3   OH263885   3.931   1.814  17.153 -0.2388  0.1418  0.1661
14157TIP3    H163886   3.922   1.721  17.174  0.3567  0.2763  1.0779
14157TIP3    H263887   3.846   1.839  17.116 -0.6190 -0.6157  0.5126
14158TIP3   OH263888   4.921   1.875   4.772  0.2079  0.2537  0.1096
14158TIP3    H163889   4.972   1.955   4.775  0.3268  0.1675  0.4687
14158TIP3    H263890   4.846   1.892   4.829  0.7799 -0.2573  1.0341
14159TIP3   OH263891   2.436   0.581  11.340  0.4356  0.4253 -0.3088
14159TIP3    H163892   2.513   0.624  11.377  1.6456 -0.4369 -1.7179
14159TIP3    H263893   2.407   0.640  11.270 -1.2064  1.5269  1.1919
14160TIP3   OH263894   2.468   2.764  12.018  0.0586  0.4215 -0.3936
14160TIP3    H163895   2.480   2.770  12.113 -1.6489 -1.9302  0.0518
14160TIP3    H263896   2.413   2.840  11.996 -1.0926 -0.0259  0.8384
14161TIP3   OH263897   0.649   1.921  14.294 -0.3070  0.2647  0.3350
14161TIP3    H163898   0.577   1.968  14.251  1.4377  3.0254  0.2311
14161TIP3    H263899   0.707   1.895  14.222 -0.5583 -0.8738  0.5235
14162TIP3   OH263900   2.377   4.209   4.644 -0.7111 -0.4567  0.4952
14162TIP3    H163901   2.375   4.243   4.555  2.7852  2.6484  1.3073
14162TIP3    H263902   2.439   4.136   4.641  0.1330  0.2428  0.4654
14163TIP3   OH263903   5.304   1.265   1.052  0.4744  0.0452 -0.7673
14163TIP3    H163904   5.229   1.294   1.103  1.0337  1.3231 -0.6145
14163TIP3    H263905   5.289   1.172   1.037  0.1216 -0.3159  1.4470
14164TIP3   OH263906   1.497   3.485  11.780  0.8789  0.3364  0.1616
14164TIP3    H163907   1.437   3.555  11.755  0.2477 -0.3710 -0.3678
14164TIP3    H263908   1.556   3.476  11.706  0.1697 -0.5172 -0.3194
14165TIP3   OH263909   3.703   0.106   0.594 -0.1154 -0.8501 -0.0813
14165TIP3    H163910   3.697   0.121   0.688  1.8737  0.9474 -0.1651
14165TIP3    H263911   3.629   0.049   0.574 -0.7075 -1.1146  2.5149
14166TIP3   OH263912   5.986   0.013  13.149 -0.1565 -0.3118  0.4409
14166TIP3    H163913   5.968  -0.076  13.118  2.6458 -0.7731 -0.1446
14166TIP3    H263914   5.995   0.065  13.070  0.8446 -0.1064  0.6800
14167TIP3   OH263915   3.362   5.564   0.580  0.1785  0.1854 -0.1205
14167TIP3    H163916   3.386   5.645   0.534 -1.0124 -0.7676 -2.5903
14167TIP3    H263917   3.419   5.497   0.543 -0.9752 -0.6554 -0.4534
14168TIP3   OH263918   1.027   1.153  14.269 -0.1620 -0.3823  0.1946
14168TIP3    H163919   0.974   1.208  14.328 -0.4729 -0.6385  0.1555
14168TIP3    H263920   1.013   1.064  14.301 -0.8448 -0.5904 -0.6572
14169TIP3   OH263921   1.071   1.572  16.532  0.1097 -0.6870 -0.1491
14169TIP3    H163922   1.075   1.478  16.554  0.8009 -0.1225  2.5570
14169TIP3    H263923   1.024   1.611  16.606  2.9122  1.5317  0.6252
14170TIP3   OH263924   5.834   3.827   5.314  0.4210 -0.2211  0.1310
14170TIP3    H163925   5.860   3.863   5.229  0.5622 -2.1396 -0.6896
14170TIP3    H263926   5.907   3.771   5.340  0.8253  1.1040  2.0502
14171TIP3   OH263927   0.828   3.033  13.665  0.0737  0.1583  0.2846
14171TIP3    H163928   0.904   3.091  13.653 -0.3631  0.5092 -0.9132
14171TIP3    H263929   0.795   3.019  13.576 -0.3247 -1.2702  0.6450
14172TIP3   OH263930   1.587   0.914   3.239  0.0535 -0.1762  0.3576
14172TIP3    H163931   1.617   0.968   3.166 -0.9723  2.1814  1.5475
14172TIP3    H263932   1.511   0.867   3.204  0.4266 -0.1759 -0.4839
14173TIP3   OH263933   3.128   2.225   4.639 -0.1511  0.3827  0.6352
14173TIP3    H163934   3.051   2.173   4.619 -0.9335  1.2361  1.3324
14173TIP3    H263935   3.164   2.185   4.718 -0.3152  0.4367  0.7381
14174TIP3   OH263936   1.501   3.235  15.563 -0.6868 -0.7396 -0.5839
14174TIP3    H163937   1.532   3.145  15.575  0.4396 -0.9048 -3.8329
14174TIP3    H263938   1.518   3.254  15.471 -1.3566  2.6610 -0.1252
14175TIP3   OH263939   1.947   1.774   5.306 -0.6569 -0.0045 -0.0842
14175TIP3    H163940   1.878   1.838   5.288 -1.1185 -0.2872  0.6499
14175TIP3    H263941   1.964   1.782   5.399  0.3160  0.0621 -0.2609
14176TIP3   OH263942   3.446   5.813  12.967 -0.0267 -0.9343  0.4548
14176TIP3    H163943   3.436   5.877  13.037 -2.5715 -0.2101 -0.4355
14176TIP3    H263944   3.467   5.731  13.012  1.0067  0.0264  1.8097
14177TIP3   OH263945   4.460   2.957   3.486 -0.4379 -0.2093 -0.4379
14177TIP3    H163946   4.466   3.023   3.417 -0.1785 -0.3987 -0.5989
14177TIP3    H263947   4.420   2.881   3.443  0.9939 -0.8226 -0.7581
14178TIP3   OH263948   0.384   2.456  12.775 -0.0776 -0.1781 -0.3312
14178TIP3    H163949   0.406   2.548  12.760 -2.1772  0.6959  1.5094
14178TIP3    H263950   0.446   2.427  12.842 -0.2099  0.2423 -0.0287
14179TIP3   OH263951   4.052   0.878   6.935  0.4749 -0.0443 -0.2788
14179TIP3    H163952   4.097   0.862   6.851 -0.7487 -0.4228 -0.8892
14179TIP3    H263953   3.998   0.956   6.918 -0.0933 -0.3693  0.0281
14180TIP3   OH263954   1.788   6.635   5.607 -0.3130 -0.3908 -0.0823
14180TIP3    H163955   1.752   6.664   5.691 -3.8418 -2.9391 -0.4959
14180TIP3    H263956   1.747   6.692   5.542  0.7424  0.1762 -0.2810
14181TIP3   OH263957   0.517   1.604  16.770 -0.2488 -0.3447 -0.1951
14181TIP3    H163958   0.564   1.521  16.764 -0.3798 -0.3791 -0.9062
14181TIP3    H263959   0.580   1.665  16.809  0.3982 -0.3943 -1.1256
14182TIP3   OH263960   0.098   6.404  14.791 -0.0645 -0.1650 -0.0990
14182TIP3    H163961   0.144   6.472  14.841 -1.5362  0.6277  0.2466
14182TIP3    H263962   0.089   6.441  14.703 -0.6362  0.0036  0.0217
14183TIP3   OH263963   4.093   5.951  17.326 -0.6904  0.2383  0.3933
14183TIP3    H163964   4.122   6.019  17.387  1.4241  0.7266 -1.0642
14183TIP3    H263965   4.042   5.998  17.260  0.2795  0.3426 -0.2956
14184TIP3   OH263966   6.603   5.140  11.041  0.0501  0.7070 -0.1725
14184TIP3    H163967   6.690   5.145  11.080 -0.4551  3.0834  0.7893
14184TIP3    H263968   6.545   5.180  11.105 -1.6815 -0.2109 -1.0836
14185TIP3   OH263969   0.651   3.543   4.178 -0.9233 -0.2353  0.4597
14185TIP3    H163970   0.715   3.531   4.108 -1.1913  0.6873  0.0470
14185TIP3    H263971   0.587   3.473   4.164 -1.0091 -0.0205 -0.2577
14186TIP3   OH263972   6.111   0.029   4.770  0.4383 -0.1697 -0.0979
14186TIP3    H163973   6.204   0.039   4.750  0.4761 -1.4344 -0.6171
14186TIP3    H263974   6.069   0.020   4.685  0.0433 -1.1776  0.1956
14187TIP3   OH263975   6.140   4.264   3.560  0.2295  0.0138 -0.5021
14187TIP3    H163976   6.046   4.247   3.565  0.4289 -0.7020  2.3075
14187TIP3    H263977   6.177   4.183   3.525  0.2308 -2.1494  3.8572
14188TIP3   OH263978   2.665   2.286  15.723 -0.2829 -0.6353  0.1036
14188TIP3    H163979   2.725   2.341  15.771 -0.7499  0.7483 -0.8339
14188TIP3    H263980   2.721   2.233  15.666  0.0930  0.8334 -0.9644
14189TIP3   OH263981   1.536   1.415   4.548 -0.0124  0.8392 -0.3367
14189TIP3    H163982   1.519   1.325   4.576 -0.6139  1.6005  1.8966
14189TIP3    H263983   1.484   1.469   4.607 -0.3744  2.6521 -2.2180
14190TIP3   OH263984   4.979   0.454   5.823  0.2859  0.3003  0.9540
14190TIP3    H163985   4.911   0.510   5.860  0.5690  1.1239  0.2476
14190TIP3    H263986   5.057   0.509   5.821  0.3691  0.1603 -0.5004
14191TIP3   OH263987   5.662   1.759   0.567  0.2002 -0.1153 -0.2043
14191TIP3    H163988   5.752   1.786   0.551  0.1353 -0.0936 -0.5495
14191TIP3    H263989   5.620   1.837   0.605  0.0844  0.1874 -0.9387
14192TIP3   OH263990   1.172   1.577   5.545 -0.4548 -0.1959  0.5706
14192TIP3    H163991   1.249   1.580   5.602 -0.1512 -0.7512  0.2069
14192TIP3    H263992   1.208   1.555   5.459 -0.6109  2.9458 -0.3943
14193TIP3   OH263993   5.842   4.441  12.781  0.0666  0.0070 -0.3366
14193TIP3    H163994   5.753   4.459  12.750 -0.0449 -0.7451 -0.4691
14193TIP3    H263995   5.846   4.484  12.866 -0.0345  1.0319 -0.8246
14194TIP3   OH263996   0.007   2.351   0.680  0.1190  0.6874  0.3300
14194TIP3    H163997  -0.077   2.306   0.693  1.5774 -1.9798  1.0947
14194TIP3    H263998   0.003   2.426   0.740 -1.9547  1.0659 -0.1821
14195TIP3   OH263999   5.527   6.637   3.460  0.2177 -0.8730 -0.2863
14195TIP3    H164000   5.486   6.694   3.525 -1.0227 -1.7145 -0.3087
14195TIP3    H264001   5.552   6.695   3.389 -2.5420 -0.5287 -1.0610
14196TIP3   OH264002   4.651   2.970  17.169 -0.4639  0.1633  0.3497
14196TIP3    H164003   4.681   2.880  17.175  1.1203  0.7100  1.3094
14196TIP3    H264004   4.683   3.000  17.084 -2.2119 -0.5538 -0.6080
14197TIP3   OH264005   2.013   2.518   0.166  0.1389  0.1841 -0.6490
14197TIP3    H164006   1.950   2.548   0.231  0.9517  0.0620  0.2116
14197TIP3    H264007   1.988   2.563   0.085 -1.6273 -0.5860 -0.5831
14198TIP3   OH264008   2.826   5.157  10.657  1.0437  0.1377 -0.5857
14198TIP3    H164009   2.912   5.197  10.670  0.7487  0.6138 -0.0347
14198TIP3    H264010   2.768   5.230  10.637  0.7456 -0.1662 -0.8465
14199TIP3   OH264011   0.995   1.695   0.882 -0.3261  0.0930  0.0539
14199TIP3    H164012   1.022   1.753   0.953 -0.6228  0.0378  0.2178
14199TIP3    H264013   0.956   1.619   0.927  3.1391 -1.9256  0.0156
14200TIP3   OH264014   4.448   2.421   4.241  0.3770  0.7883 -0.9668
14200TIP3    H164015   4.518   2.371   4.282  0.2604  1.5113  0.1551
14200TIP3    H264016   4.454   2.400   4.148 -0.1602 -1.8976 -0.4579
14201TIP3   OH264017   4.648   6.598   0.053 -0.2932  0.6751  0.0271
14201TIP3    H164018   4.736   6.560   0.061 -1.0895 -1.6294 -1.2107
14201TIP3    H264019   4.603   6.571   0.133  0.0512  1.7739  0.6161
14202TIP3   OH264020   0.937   6.687  15.096  0.3303  0.4469 -0.9782
14202TIP3    H164021   1.006   6.743  15.130  0.3698 -0.4000  0.4061
14202TIP3    H264022   0.910   6.633  15.170 -0.7045 -0.3602 -1.8939
14203TIP3   OH264023   0.690   2.933  10.408  0.1785  0.0854  0.5980
14203TIP3    H164024   0.714   2.841  10.393  0.7220  0.2184  0.6320
14203TIP3    H264025   0.599   2.929  10.438 -0.3247 -0.3238 -0.8759
14204TIP3   OH264026   3.254   3.866  14.625  0.6202  0.5630  0.2562
14204TIP3    H164027   3.198   3.938  14.655  0.7718  0.4853  0.7319
14204TIP3    H264028   3.338   3.881  14.668  1.6404  1.8178 -2.0071
14205TIP3   OH264029   4.047   5.016   0.060 -0.3010 -0.9120  0.3012
14205TIP3    H164030   4.102   5.028   0.137 -1.2690 -1.0791  1.0335
14205TIP3    H264031   4.090   4.945   0.011 -0.3184 -1.6411  1.2989
14206TIP3   OH264032   3.600   4.133   4.138 -0.5166 -0.2397  0.4363
14206TIP3    H164033   3.650   4.208   4.172 -0.4213 -0.2988  0.4269
14206TIP3    H264034   3.666   4.067   4.119 -0.2542  0.7172 -2.3894
14207TIP3   OH264035   2.311   1.524   2.251 -0.0196  0.3238 -0.2665
14207TIP3    H164036   2.318   1.441   2.203 -0.5663  0.5956 -0.8327
14207TIP3    H264037   2.363   1.585   2.199 -2.7069  1.2737 -2.0483
14208TIP3   OH264038   1.150   1.464  11.737 -0.2558 -0.5860  0.1555
14208TIP3    H164039   1.135   1.413  11.816 -1.9665  1.4355  1.2261
14208TIP3    H264040   1.093   1.424  11.671 -1.4585 -0.2013  0.9366
14209TIP3   OH264041   3.794   2.326   0.515 -0.0536 -0.2974  0.1589
14209TIP3    H164042   3.731   2.254   0.513 -0.3799  0.0007 -0.3817
14209TIP3    H264043   3.868   2.294   0.464  0.0746 -0.4935  0.4612
14210TIP3   OH264044   3.104   1.493  16.659 -0.0867 -0.2146  0.2171
14210TIP3    H164045   3.074   1.578  16.627  1.7974 -0.8610 -3.8252
14210TIP3    H264046   3.024   1.445  16.679 -1.2768  1.4666 -0.3434
14211TIP3   OH264047   2.113   3.643  16.192 -0.0944  0.2764  0.0739
14211TIP3    H164048   2.201   3.634  16.228  0.3669 -1.5728 -1.3418
14211TIP3    H264049   2.058   3.667  16.267  1.5718  1.4008  0.9994
14212TIP3   OH264050   2.024   1.817   0.676  0.3053  0.2685 -0.2374
14212TIP3    H164051   2.094   1.754   0.691  0.2106  0.5917  1.8922
14212TIP3    H264052   1.944   1.768   0.697 -0.0971  0.0596 -2.1243
14213TIP3   OH264053   3.452   4.328   2.945  0.1280 -0.0583 -0.5189
14213TIP3    H164054   3.484   4.243   2.917  0.5042 -1.1195  2.6936
14213TIP3    H264055   3.358   4.327   2.924 -0.0528 -1.6718  0.2389
14214TIP3   OH264056   0.092   2.985   3.018  0.2963  0.4318 -0.2798
14214TIP3    H164057   0.133   2.989   2.931 -0.2313  0.6750 -0.5237
14214TIP3    H264058   0.127   3.061   3.064  0.0970  0.6632 -0.5025
14215TIP3   OH264059   1.997   0.189  11.210 -0.0572  0.7473  0.2358
14215TIP3    H164060   1.937   0.257  11.180  0.3512  0.5619 -1.0426
14215TIP3    H264061   2.031   0.149  11.130 -0.8266 -1.4641  0.9301
14216TIP3   OH264062   1.692   1.178  12.630 -0.5952 -0.0664  0.2919
14216TIP3    H164063   1.626   1.186  12.698 -0.6843  1.4605  0.0564
14216TIP3    H264064   1.644   1.189  12.548 -0.0311  1.4751  0.1353
14217TIP3   OH264065   4.666   6.011   3.703 -0.2028 -0.1334 -0.3051
14217TIP3    H164066   4.683   5.918   3.690 -1.5609 -0.2866 -1.1775
14217TIP3    H264067   4.727   6.036   3.773 -0.6431 -1.9539  0.8185
14218TIP3   OH264068   2.522   0.323  15.321  0.6369 -0.2139  0.2983
14218TIP3    H164069   2.452   0.267  15.355  1.5204 -0.1957  2.2446
14218TIP3    H264070   2.555   0.370  15.397  1.8007  0.8832 -0.8333
14219TIP3   OH264071   5.092   5.248   5.178  0.1063 -0.0388 -0.1623
14219TIP3    H164072   5.061   5.316   5.238 -0.5152 -0.7082  0.2890
14219TIP3    H264073   5.028   5.177   5.187 -0.3769  0.0989 -2.1090
14220TIP3   OH264074   4.694   4.808  13.090  0.1221 -0.0180 -0.6308
14220TIP3    H164075   4.689   4.854  13.173 -0.8824  1.1051 -1.2857
14220TIP3    H264076   4.724   4.874  13.027  3.0653 -1.3675 -0.8161
14221TIP3   OH264077   6.475   5.811   0.302  0.2932  0.1080 -0.2932
14221TIP3    H164078   6.502   5.884   0.247  0.7149 -0.6200 -1.0687
14221TIP3    H264079   6.537   5.813   0.376  1.1983 -0.2973 -1.0178
14222TIP3   OH264080   0.510   3.117   1.071  0.3243 -0.0227  0.7299
14222TIP3    H164081   0.567   3.192   1.052 -0.6782  0.5199 -0.2919
14222TIP3    H264082   0.533   3.092   1.160  1.6321  0.6438  0.6155
14223TIP3   OH264083   0.392   5.041   1.388  0.0243  0.2725 -0.8694
14223TIP3    H164084   0.304   5.021   1.420 -0.1261  0.8070 -0.9352
14223TIP3    H264085   0.383   5.125   1.342  0.4150 -0.0495 -1.5549
14224TIP3   OH264086   4.540   1.576  12.265  0.0074 -0.2422  0.1987
14224TIP3    H164087   4.631   1.558  12.285 -0.2401 -1.4945  0.2713
14224TIP3    H264088   4.540   1.603  12.173  0.0684 -4.0237 -1.0639
14225TIP3   OH264089   1.614   4.132  12.278 -0.0034 -0.3754  0.1024
14225TIP3    H164090   1.533   4.085  12.256  0.9434 -1.0864 -2.1567
14225TIP3    H264091   1.601   4.220  12.244 -0.5993  0.1598  1.6318
14226TIP3   OH264092   1.638   1.325   4.247 -0.1140  0.2273 -0.5649
14226TIP3    H164093   1.650   1.346   4.339  0.5781  1.1040 -0.8387
14226TIP3    H264094   1.702   1.256   4.229 -0.4342 -0.1352 -0.3350
14227TIP3   OH264095   2.568   2.152   6.001 -0.3830 -0.0536 -0.3386
14227TIP3    H164096   2.633   2.175   6.066 -1.0712 -1.5715  0.9630
14227TIP3    H264097   2.606   2.178   5.917  2.0679 -1.2388  0.3316
14228TIP3   OH264098   6.457   4.931   2.104  0.2236  0.3219 -0.0335
14228TIP3    H164099   6.446   4.887   2.019  0.1708 -0.9120  0.5913
14228TIP3    H264100   6.464   5.024   2.082  0.6649 -0.0204 -1.4269
14229TIP3   OH264101   4.362   2.436   0.360 -0.0448  0.1974 -0.0806
14229TIP3    H164102   4.431   2.371   0.372 -0.5877 -0.5925 -1.0679
14229TIP3    H264103   4.355   2.481   0.444 -0.6451 -1.9919  1.1102
14230TIP3   OH264104   0.894   1.355  11.573  0.4876  0.3675 -0.1037
14230TIP3    H164105   0.819   1.297  11.577  0.7881 -0.0103  3.4117
14230TIP3    H264106   0.943   1.327  11.496 -2.0397 -0.4824 -1.5006
14231TIP3   OH264107   1.763   6.604  13.454  0.4883  0.3274 -0.5141
14231TIP3    H164108   1.791   6.521  13.493  2.0659 -0.3975 -2.9679
14231TIP3    H264109   1.765   6.667  13.527  1.4013 -1.3163  0.9488
14232TIP3   OH264110   6.344   4.738   0.892  0.1961 -0.3458 -0.1404
14232TIP3    H164111   6.345   4.739   0.796  0.1988 -1.6386 -0.1675
14232TIP3    H264112   6.418   4.793   0.917  2.2382 -2.6107 -0.9301
14233TIP3   OH264113   3.798   1.113   3.318  0.8355 -0.2420  0.3221
14233TIP3    H164114   3.885   1.097   3.282  0.7061  1.3954 -0.8509
14233TIP3    H264115   3.740   1.055   3.267  1.0649 -0.2973  0.1217
14234TIP3   OH264116   2.656   2.002  12.536 -0.1499 -0.2981  0.2654
14234TIP3    H164117   2.706   2.024  12.458 -2.8273  0.7174 -1.2729
14234TIP3    H264118   2.618   1.916  12.517 -1.9200  0.5511 -0.1880
14235TIP3   OH264119   2.601   2.366  14.068 -0.3610  0.7406  0.0158
14235TIP3    H164120   2.542   2.407  14.131 -1.3802  0.5974 -0.8116
14235TIP3    H264121   2.656   2.308  14.121 -0.0263  1.9005  0.9765
14236TIP3   OH264122   4.921   5.247   1.330  0.0443  0.4011  0.2995
14236TIP3    H164123   4.843   5.264   1.278  1.3196  0.8262 -1.6068
14236TIP3    H264124   4.938   5.153   1.319 -0.3744  0.2440  0.9813
14237TIP3   OH264125   2.702   4.956   0.127  0.0158  0.5007  0.1048
14237TIP3    H164126   2.642   4.899   0.177  0.3225 -0.4173 -0.5437
14237TIP3    H264127   2.789   4.927   0.154  0.2353 -1.0301 -1.9733
14238TIP3   OH264128   3.094   0.598   5.552 -0.3945 -0.2724 -0.0093
14238TIP3    H164129   3.060   0.621   5.639  0.8104 -0.8181  0.6187
14238TIP3    H264130   3.016   0.597   5.497 -0.9509  2.0216  0.6174
14239TIP3   OH264131   2.322   6.766  14.999  0.4697  0.7889 -0.7726
14239TIP3    H164132   2.245   6.811  15.033  0.9912  2.9821 -2.2795
14239TIP3    H264133   2.383   6.763  15.073 -0.1425  1.2660 -0.2395
14240TIP3   OH264134   0.971   6.661   1.648  0.2788 -0.6863 -0.7447
14240TIP3    H164135   1.001   6.698   1.731  1.0240 -0.2275 -1.2059
14240TIP3    H264136   1.049   6.661   1.593 -0.1882 -1.0810 -1.4160
14241TIP3   OH264137   3.984   4.136  17.305  0.1703  0.1423 -0.7919
14241TIP3    H164138   3.901   4.102  17.271 -0.4802  1.8185 -0.9696
14241TIP3    H264139   3.999   4.216  17.254  2.7439 -0.9362 -1.8953
14242TIP3   OH264140   2.294   5.110  13.082 -0.5526 -0.2088 -0.2184
14242TIP3    H164141   2.314   5.049  13.154 -0.0323 -0.0403 -0.2186
14242TIP3    H264142   2.345   5.077  13.008 -1.5347 -0.7276 -0.6938
14243TIP3   OH264143   2.229   2.558  11.392  0.1508  0.1467 -0.1181
14243TIP3    H164144   2.176   2.612  11.333 -0.4636  0.6131  0.8381
14243TIP3    H264145   2.288   2.510  11.334 -0.4008  0.6333 -1.1061
14244TIP3   OH264146   4.855   5.765   3.624 -0.1497 -0.7470  0.2386
14244TIP3    H164147   4.836   5.671   3.618 -2.4138 -0.3639  0.7092
14244TIP3    H264148   4.850   5.797   3.534 -1.1938 -0.7680  0.2851
14245TIP3   OH264149   0.032   3.045  14.994  0.1943 -0.2269 -0.0352
14245TIP3    H164150  -0.053   3.026  14.954 -0.5260  0.1075  1.2719
14245TIP3    H264151   0.095   3.031  14.924 -0.9054 -0.8425 -0.9389
14246TIP3   OH264152   1.186   0.350  16.091 -0.1297 -0.5644  0.0810
14246TIP3    H164153   1.255   0.321  16.151 -0.5903  0.9056  1.3883
14246TIP3    H264154   1.221   0.431  16.053 -0.4344 -0.7360 -0.5702
14247TIP3   OH264155   1.945   3.462  11.347 -0.0801  0.3774 -0.3258
14247TIP3    H164156   2.002   3.522  11.395  0.2589 -1.2882  1.4857
14247TIP3    H264157   1.996   3.381  11.339 -2.3974 -1.5370  2.2822
14248TIP3   OH264158   3.628   0.419   5.915  0.3419 -0.0269  0.2627
14248TIP3    H164159   3.614   0.443   6.007 -0.3982 -0.1812  0.1963
14248TIP3    H264160   3.543   0.434   5.873  0.1173 -1.7947  0.0162
14249TIP3   OH264161   3.609   5.615   3.557  0.1577  0.4578 -0.1008
14249TIP3    H164162   3.574   5.614   3.646  0.8341 -0.7986  0.1703
14249TIP3    H264163   3.603   5.707   3.530  0.4696  0.9640  1.4550
14250TIP3   OH264164   0.762   2.429   2.237  0.3701 -0.5134 -0.2185
14250TIP3    H164165   0.843   2.435   2.186  1.2549  1.0575  1.2852
14250TIP3    H264166   0.776   2.487   2.312 -1.9298 -0.6597  0.4018
14251TIP3   OH264167   4.663   5.901   2.427 -0.0498  0.4930  0.3545
14251TIP3    H164168   4.576   5.940   2.425 -0.4119 -0.2953 -1.7858
14251TIP3    H264169   4.686   5.898   2.519 -1.8051  1.7619  0.8815
14252TIP3   OH264170   6.201   4.472   3.738  0.4850  0.0098  0.5539
14252TIP3    H164171   6.124   4.475   3.795 -0.4136  0.5208 -0.6328
14252TIP3    H264172   6.178   4.407   3.671  0.0604  1.8155 -1.1584
14253TIP3   OH264173   4.755   5.135  11.200  0.3832 -0.4283  0.2163
14253TIP3    H164174   4.683   5.100  11.148  0.9052 -0.8498 -0.2305
14253TIP3    H264175   4.833   5.123  11.146  0.8875 -0.5523  0.9515
14254TIP3   OH264176   6.481   4.813   2.622  0.2899 -0.1303 -0.0067
14254TIP3    H164177   6.390   4.794   2.646  0.4657  1.4693  2.1695
14254TIP3    H264178   6.483   4.908   2.611  1.4913 -0.2574 -1.1125
14255TIP3   OH264179   3.783   0.308  11.043 -0.2941  0.8355  0.0790
14255TIP3    H164180   3.848   0.305  11.113  0.8274  2.2106 -0.8255
14255TIP3    H264181   3.782   0.219  11.007  1.1243  0.7683  0.1262
14256TIP3   OH264182   5.981   3.741  16.649 -0.3904  0.2192  0.0053
14256TIP3    H164183   5.902   3.741  16.595 -0.9731  1.9229  0.7831
14256TIP3    H264184   6.044   3.791  16.598 -1.5295  3.5091  1.5636
14257TIP3   OH264185   4.353   2.652   2.020 -0.5973 -0.4465  0.2138
14257TIP3    H164186   4.321   2.628   1.934  2.9741 -0.5661 -1.2768
14257TIP3    H264187   4.382   2.569   2.058  1.3536  0.0120 -0.1633
14258TIP3   OH264188   6.286   0.672   3.297 -0.5113  0.0568 -0.1563
14258TIP3    H164189   6.210   0.728   3.284 -0.5979 -0.1085 -0.3708
14258TIP3    H264190   6.353   0.710   3.240 -1.1212 -1.1127 -1.7273
14259TIP3   OH264191   6.355   6.597   6.243  0.2964  0.5190 -0.0196
14259TIP3    H164192   6.444   6.627   6.226  0.3525  0.8480  0.8095
14259TIP3    H264193   6.335   6.629   6.331 -0.0172 -1.0037  0.4959
14260TIP3   OH264194   0.514   6.034   2.594  0.5327  0.0272  0.2570
14260TIP3    H164195   0.472   6.020   2.509  0.1181  0.9164  0.3097
14260TIP3    H264196   0.509   6.128   2.609  1.4459 -0.0069  0.8407
14261TIP3   OH264197   4.473   5.552   1.972 -0.5886 -0.0801  0.4521
14261TIP3    H164198   4.519   5.495   1.910 -1.3819  0.0613 -0.2777
14261TIP3    H264199   4.543   5.599   2.017  0.1394 -2.0970  1.5685
14262TIP3   OH264200   4.495   4.515   3.833  0.2718  0.0915  0.2479
14262TIP3    H164201   4.508   4.429   3.794  0.3339 -0.2121  0.9278
14262TIP3    H264202   4.405   4.538   3.811  0.5069  0.2247 -0.6342
14263TIP3   OH264203   1.405   1.296  11.573 -0.6600  1.3973  0.1559
14263TIP3    H164204   1.385   1.324  11.483  2.4107 -1.0919 -1.5095
14263TIP3    H264205   1.500   1.295  11.576 -0.5281 -3.1617  1.7669
14264TIP3   OH264206   3.714   1.066  16.857  0.1913  0.0432 -0.1001
14264TIP3    H164207   3.704   1.007  16.932 -0.5306  0.4383  0.1304
14264TIP3    H264208   3.644   1.130  16.868 -0.2701 -0.2043 -1.4047
14265TIP3   OH264209   0.008   5.667  15.780 -0.3976 -0.0163  0.0906
14265TIP3    H164210   0.003   5.756  15.746 -1.4687 -0.2369 -0.3531
14265TIP3    H264211   0.080   5.670  15.844 -0.8001  1.3047  0.5113
14266TIP3   OH264212   0.014   1.422   0.129  0.3357 -0.2043 -0.1050
14266TIP3    H164213   0.010   1.341   0.079 -0.8504 -1.3110  1.6851
14266TIP3    H264214  -0.011   1.490   0.066 -0.6080 -1.4619 -1.1457
14267TIP3   OH264215   4.094   1.660   2.207  0.5301  0.3515 -0.0971
14267TIP3    H164216   4.144   1.611   2.272 -0.8779  0.9474  1.4879
14267TIP3    H264217   4.086   1.748   2.244 -1.3697  0.3682 -0.4729
14268TIP3   OH264218   4.148   5.287   4.947 -0.2179 -0.6971 -0.1262
14268TIP3    H164219   4.202   5.222   4.991 -1.0243 -2.3474 -1.4941
14268TIP3    H264220   4.194   5.307   4.866 -0.9352 -1.0276 -0.6237
14269TIP3   OH264221   2.991   4.291  16.418  0.1569  0.7314  0.1504
14269TIP3    H164222   2.906   4.333  16.404 -0.1428  0.3195  0.7234
14269TIP3    H264223   2.991   4.267  16.511  1.6765  2.4585  0.6585
14270TIP3   OH264224   2.461   0.263  16.451 -0.4419  0.4908  0.1696
14270TIP3    H164225   2.536   0.308  16.413  0.0996  0.0867  0.7468
14270TIP3    H264226   2.385   0.315  16.423 -0.1595 -0.1973 -2.0444
14271TIP3   OH264227   0.537   6.727   5.258 -0.4247  0.1862 -0.0829
14271TIP3    H164228   0.573   6.815   5.256  0.5863 -0.1864  0.5256
14271TIP3    H264229   0.443   6.739   5.268 -0.3331  1.1946 -0.3990
14272TIP3   OH264230   4.870   6.023   0.531  0.4015 -0.2739  0.3080
14272TIP3    H164231   4.794   5.988   0.576  0.4424 -2.0214 -0.8740
14272TIP3    H264232   4.938   5.956   0.542  1.1851  0.4117 -0.2051
14273TIP3   OH264233   2.510   5.473   6.076 -0.2066  0.0122  0.2213
14273TIP3    H164234   2.513   5.483   6.171  1.9916  0.8338  0.1169
14273TIP3    H264235   2.460   5.393   6.062 -0.8718  0.0771  2.0485
14274TIP3   OH264236   2.803   0.533  13.366 -0.0526  0.1346 -0.4637
14274TIP3    H164237   2.795   0.493  13.453  0.3617  0.6115 -0.2052
14274TIP3    H264238   2.822   0.460  13.307 -1.1105 -0.3040 -0.2821
14275TIP3   OH264239   2.895   5.676   6.129  0.0315 -0.2206 -0.2042
14275TIP3    H164240   2.835   5.732   6.078  0.9458 -0.7102 -1.8649
14275TIP3    H264241   2.837   5.614   6.173 -0.8132  0.4967 -0.2591
14276TIP3   OH264242   1.272   4.986  15.426 -0.7439  0.5235  0.4077
14276TIP3    H164243   1.301   5.077  15.429  0.1200  0.2368  1.3434
14276TIP3    H264244   1.323   4.947  15.355  0.1878  0.3670  1.1343
14277TIP3   OH264245   6.151   3.436  15.281  0.3074 -0.1069 -0.1169
14277TIP3    H164246   6.183   3.481  15.359 -0.7874  2.2798 -0.9625
14277TIP3    H264247   6.215   3.366  15.266  1.7262  0.7253  1.6471
14278TIP3   OH264248   2.663   1.317  15.827  0.0052  0.2309 -0.2285
14278TIP3    H164249   2.599   1.377  15.863 -0.6387 -0.7399  0.2581
14278TIP3    H264250   2.683   1.353  15.740 -0.0651  1.3529  0.2034
14279TIP3   OH264251   4.024   1.991  16.887  0.0854  0.2826  0.3976
14279TIP3    H164252   3.957   1.923  16.876  2.5230 -2.2718  0.3142
14279TIP3    H264253   4.054   1.981  16.977  0.1445  1.6162  0.5425
14280TIP3   OH264254   1.713   3.868  13.485 -0.1462  0.0583  0.1231
14280TIP3    H164255   1.646   3.872  13.553 -0.1673  1.1253  0.0574
14280TIP3    H264256   1.691   3.790  13.435  0.3906 -1.2824  1.8545
14281TIP3   OH264257   5.332   2.034   4.926  0.3186  0.1579 -0.0318
14281TIP3    H164258   5.271   2.087   4.875  0.5164  1.5407  1.1186
14281TIP3    H264259   5.418   2.056   4.890  0.3045 -0.3219 -0.3652
14282TIP3   OH264260   4.516   5.819  13.359 -0.1064 -0.7174  0.0236
14282TIP3    H164261   4.482   5.906  13.379  1.3456 -0.2325  0.4919
14282TIP3    H264262   4.600   5.815  13.405 -0.0457 -2.2812 -0.1835
14283TIP3   OH264263   4.764   1.494  13.049 -0.5020 -0.3946 -0.1880
14283TIP3    H164264   4.690   1.518  12.992 -0.5136  1.5615  0.5775
14283TIP3    H264265   4.833   1.556  13.025  0.1375 -0.7763  0.6362
14284TIP3   OH264266   0.241   3.288   6.213  0.0392 -0.6116  0.0171
14284TIP3    H164267   0.215   3.355   6.150 -1.6275 -0.9957  0.2350
14284TIP3    H264268   0.251   3.335   6.296  2.7686 -0.0139 -0.5770
14285TIP3   OH264269   2.016   4.280   0.837 -0.2084  0.4349  0.0011
14285TIP3    H164270   1.978   4.360   0.800 -1.4934 -0.4317 -0.5965
14285TIP3    H264271   2.027   4.222   0.762 -1.4753 -0.8051  0.7426
14286TIP3   OH264272   5.558   1.943   5.476 -0.0517  0.2072 -0.1231
14286TIP3    H164273   5.463   1.943   5.486 -0.0069  4.5439  3.7198
14286TIP3    H264274   5.591   1.905   5.557  1.5567 -0.5168 -1.0572
14287TIP3   OH264275   0.815   1.388   4.214  0.3562 -0.2502 -0.0024
14287TIP3    H164276   0.833   1.330   4.140 -0.4877  1.0526 -1.2672
14287TIP3    H264277   0.722   1.376   4.232 -0.3135  2.0197 -1.5243
14288TIP3   OH264278   4.246   3.998   0.546  0.7202  0.0864  0.3458
14288TIP3    H164279   4.341   3.993   0.537  0.5062 -1.3914 -2.3172
14288TIP3    H264280   4.216   3.907   0.536 -0.9658  0.5184  1.1222
14289TIP3   OH264281   0.775   6.463   1.822  0.0824 -0.2488  0.0101
14289TIP3    H164282   0.708   6.398   1.801  0.0273 -1.0783  2.4128
14289TIP3    H264283   0.758   6.536   1.763 -2.4263 -0.7712 -0.0112
14290TIP3   OH264284   4.080   4.866  13.743  0.0407 -0.4135 -0.1168
14290TIP3    H164285   4.051   4.952  13.775 -0.7572 -0.5220 -0.5181
14290TIP3    H264286   4.149   4.886  13.681  0.4310 -0.1096  0.4055
14291TIP3   OH264287   4.101   5.091   1.428  0.4375 -0.6206  0.0236
14291TIP3    H164288   4.192   5.121   1.437  0.8765 -2.1598  1.0508
14291TIP3    H264289   4.090   5.077   1.334  1.6086 -1.3927 -0.0142
14292TIP3   OH264290   0.640   2.156   1.814  0.1967  0.0786  0.2024
14292TIP3    H164291   0.565   2.197   1.857 -0.4211  0.8281 -1.5104
14292TIP3    H264292   0.660   2.213   1.740  3.2735  0.5828  1.2938
14293TIP3   OH264293   2.133   1.070  16.207  0.3502  0.0880 -0.1500
14293TIP3    H164294   2.161   1.044  16.119  0.3538  1.8914 -0.7293
14293TIP3    H264295   2.044   1.036  16.215 -0.1416  0.9917 -1.3946
14294TIP3   OH264296   6.683   0.999  12.908 -0.5898 -0.4010  0.5175
14294TIP3    H164297   6.727   1.080  12.934 -2.2450  0.5438  0.5274
14294TIP3    H264298   6.737   0.929  12.945 -0.4305  0.7709  2.6845
14295TIP3   OH264299   3.367   1.859   3.158  0.4378 -0.2066 -0.0734
14295TIP3    H164300   3.311   1.793   3.199  0.9184 -0.0445  0.8757
14295TIP3    H264301   3.381   1.925   3.226  0.3270  0.6575 -0.8708
14296TIP3   OH264302   0.766   0.577  16.702  0.4129  0.8251  0.5914
14296TIP3    H164303   0.855   0.552  16.726  0.0008 -0.2743  1.0382
14296TIP3    H264304   0.777   0.639  16.630  1.5343  0.4009  0.3772
14297TIP3   OH264305   1.907   0.542  16.056  0.4121 -0.1839  0.0728
14297TIP3    H164306   1.851   0.479  16.101  0.0795 -0.9258 -1.3225
14297TIP3    H264307   1.911   0.511  15.965  2.2683  0.4062 -0.1007
14298TIP3   OH264308   0.264   0.304  13.526  0.7477  0.0978  0.5343
14298TIP3    H164309   0.347   0.353  13.528  1.1101 -0.4443 -0.4797
14298TIP3    H264310   0.256   0.275  13.436  0.9222 -2.3477  1.2395
14299TIP3   OH264311   0.854   5.426  15.464  0.0668 -0.3024 -0.3950
14299TIP3    H164312   0.803   5.345  15.463 -1.3351  0.5315  0.8433
14299TIP3    H264313   0.912   5.418  15.388 -0.3947 -2.2249 -0.6057
14300TIP3   OH264314   4.327   1.186   5.081 -0.4756  0.2225 -0.3162
14300TIP3    H164315   4.381   1.152   5.010  1.0796 -0.4697  1.1122
14300TIP3    H264316   4.356   1.277   5.093 -1.1956  0.5486 -0.9580
14301TIP3   OH264317   1.050   2.810   5.261 -0.2190  0.8356  0.0593
14301TIP3    H164318   1.092   2.725   5.256 -1.3135  0.2902 -0.0700
14301TIP3    H264319   1.099   2.857   5.330  0.0080 -0.1019  0.5499
14302TIP3   OH264320   4.209   4.072   3.375 -0.4751  0.2644  0.4116
14302TIP3    H164321   4.165   3.987   3.378  1.7162 -0.9947 -0.3963
14302TIP3    H264322   4.183   4.109   3.291  0.3701 -0.7045 -0.2988
14303TIP3   OH264323   6.620   6.702   4.289  0.1078 -0.0488  0.3303
14303TIP3    H164324   6.537   6.721   4.333  0.2097 -2.9866  2.0398
14303TIP3    H264325   6.682   6.763   4.329 -0.4823 -0.4658  1.9539
14304TIP3   OH264326   0.178   6.061  16.658  0.6126 -1.0884  0.5626
14304TIP3    H164327   0.123   6.040  16.733 -1.8149 -1.7323 -1.2905
14304TIP3    H264328   0.177   6.156  16.653 -0.5629 -1.0953  0.4288
14305TIP3   OH264329   1.796   2.312   4.905  0.3908 -0.8253 -0.0559
14305TIP3    H164330   1.798   2.317   5.000  1.0314 -1.7544 -0.0057
14305TIP3    H264331   1.869   2.254   4.882  0.1700 -0.7174 -1.1023
14306TIP3   OH264332   6.221   4.526  16.336 -0.2540  1.0050  0.0139
14306TIP3    H164333   6.204   4.620  16.332 -0.3979  1.0002  0.4784
14306TIP3    H264334   6.287   4.516  16.404 -0.2267  0.7708 -0.0457
14307TIP3   OH264335   3.054   0.895  16.588 -0.0344  0.0193 -0.6509
14307TIP3    H164336   3.145   0.916  16.567  0.0734 -0.8490 -1.1123
14307TIP3    H264337   3.028   0.961  16.652  1.3267 -0.4748  0.4799
14308TIP3   OH264338   5.382   5.530   4.864  0.1555  0.4766  0.6443
14308TIP3    H164339   5.343   5.557   4.947 -0.3674 -0.6690  0.7761
14308TIP3    H264340   5.349   5.442   4.849  0.6879  0.4613 -0.5111
14309TIP3   OH264341   2.563   2.321  12.790 -0.7877 -0.6018 -0.6645
14309TIP3    H164342   2.492   2.266  12.822  0.1148 -1.7602 -0.5496
14309TIP3    H264343   2.541   2.410  12.818 -1.9533 -1.0103 -0.2625
14310TIP3   OH264344   4.329   0.361  14.628  0.2343 -0.2841  0.2458
14310TIP3    H164345   4.418   0.350  14.595  0.3686  1.4722 -0.0640
14310TIP3    H264346   4.334   0.437  14.686 -0.9830 -0.4224  0.5574
14311TIP3   OH264347   0.290   4.432   2.216  0.3994  0.0733 -0.5168
14311TIP3    H164348   0.257   4.379   2.143  1.2357 -1.4158  0.1575
14311TIP3    H264349   0.211   4.459   2.263 -0.0355 -1.1082 -0.5223
14312TIP3   OH264350   5.865   0.769   1.824 -0.8220 -0.5301  0.0654
14312TIP3    H164351   5.902   0.696   1.873  1.3436 -0.0176 -0.6833
14312TIP3    H264352   5.807   0.813   1.886  1.6282 -0.0273  2.1472
14313TIP3   OH264353   0.849   2.852   2.395 -0.2335 -0.3511  0.1144
14313TIP3    H164354   0.818   2.764   2.413 -2.2023 -0.0345 -1.3596
14313TIP3    H264355   0.856   2.856   2.299  2.2981  0.3376  0.2567
14314TIP3   OH264356   5.675   4.253  13.497 -0.2107  0.1939 -0.6293
14314TIP3    H164357   5.616   4.315  13.455  0.4472  0.7215 -0.8065
14314TIP3    H264358   5.748   4.245  13.435 -0.7663 -1.5812 -1.1150
14315TIP3   OH264359   2.187   3.997   1.015  0.5946 -0.2127 -0.1019
14315TIP3    H164360   2.255   3.997   1.082  0.4104 -1.7132  0.1248
14315TIP3    H264361   2.109   4.031   1.060  0.3195 -1.7431  0.6572
14316TIP3   OH264362   2.817   1.972   5.823 -0.0572  0.1632 -0.2528
14316TIP3    H164363   2.808   1.954   5.917  0.4143  1.9421  0.1755
14316TIP3    H264364   2.911   1.987   5.811 -0.0187 -0.6969 -1.1606
14317TIP3   OH264365   4.548   4.459   2.681 -0.3968  0.0685  0.3726
14317TIP3    H164366   4.455   4.442   2.694 -1.7171  4.9993 -0.4274
14317TIP3    H264367   4.565   4.433   2.590 -0.7689 -1.2692  0.6601
14318TIP3   OH264368   1.752   1.500   1.537  0.4223  0.2932 -0.6443
14318TIP3    H164369   1.732   1.547   1.456 -0.7248 -1.0345 -1.1685
14318TIP3    H264370   1.666   1.482   1.575  0.8785 -0.5916 -0.0088
14319TIP3   OH264371   1.147   3.591   2.620 -0.0620 -0.1955 -0.4724
14319TIP3    H164372   1.159   3.562   2.711  1.0411 -1.9644 -1.1171
14319TIP3    H264373   1.178   3.517   2.568 -1.4068  0.4668 -2.3115
14320TIP3   OH264374   2.842   0.149  17.341  0.4888  0.5964  0.0515
14320TIP3    H164375   2.781   0.215  17.374 -1.3145 -0.8652 -0.1892
14320TIP3    H264376   2.823   0.071  17.394 -1.3562 -1.3559 -3.1744
14321TIP3   OH264377   3.051   5.358   1.818 -0.1128 -0.2634 -0.1113
14321TIP3    H164378   3.127   5.416   1.824 -0.8642  0.5564  2.2383
14321TIP3    H264379   2.984   5.401   1.871 -1.0677 -2.7083  0.7679
14322TIP3   OH264380   6.002   3.611  14.012  0.1888  0.0309 -0.2228
14322TIP3    H164381   6.071   3.670  13.984 -0.1112  0.3309 -0.3323
14322TIP3    H264382   5.921   3.653  13.985  0.0254 -1.2978 -2.0006
14323TIP3   OH264383   5.064   0.555   4.189  0.1065 -0.3275 -0.1136
14323TIP3    H164384   5.080   0.461   4.196  0.1356 -0.3694 -0.7279
14323TIP3    H264385   5.074   0.575   4.096  1.0293  0.4481  0.1258
14324TIP3   OH264386   6.526   5.282  16.346 -0.2908 -0.4447  0.2094
14324TIP3    H164387   6.440   5.240  16.339 -1.2213  1.1658  1.1237
14324TIP3    H264388   6.542   5.287  16.441  1.7974 -2.5119  0.0456
14325TIP3   OH264389   2.524   2.565  16.466 -0.2038  0.5361  0.4497
14325TIP3    H164390   2.445   2.549  16.415  0.7134 -0.1688 -0.8316
14325TIP3    H264391   2.586   2.604  16.404  1.2834 -1.2376  0.7064
14326TIP3   OH264392   5.930   1.959   2.429  0.3674 -0.0930 -0.0519
14326TIP3    H164393   5.850   2.010   2.420 -0.2522 -1.3126 -1.8966
14326TIP3    H264394   5.911   1.897   2.500 -0.6429 -0.8802 -0.9733
14327TIP3   OH264395   6.146   2.492   0.410  0.3832 -0.6300 -0.3677
14327TIP3    H164396   6.120   2.584   0.402  2.0815 -0.1917 -1.2688
14327TIP3    H264397   6.148   2.460   0.320  4.7119 -0.0534 -0.6992
14328TIP3   OH264398   2.612   2.460   4.282 -0.1581  0.2443 -0.6727
14328TIP3    H164399   2.678   2.526   4.265  1.8714 -1.4840  0.1035
14328TIP3    H264400   2.620   2.398   4.210  0.5489 -1.0574  0.4730
14329TIP3   OH264401   3.091   6.539   0.130  0.1833 -0.4224 -0.5672
14329TIP3    H164402   3.089   6.490   0.047 -0.1886 -0.2909 -0.6381
14329TIP3    H264403   3.106   6.472   0.197  0.9900 -0.4703 -0.7815
14330TIP3   OH264404   5.272   5.477   5.382  0.0713 -0.8014 -0.1425
14330TIP3    H164405   5.277   5.567   5.415 -0.9745 -0.1914 -1.5372
14330TIP3    H264406   5.227   5.429   5.451 -0.7321  0.0909 -0.0208
14331TIP3   OH264407   3.690   3.366  13.189  0.2634 -0.5565  0.0832
14331TIP3    H164408   3.710   3.455  13.162  1.6255 -1.4318 -2.0025
14331TIP3    H264409   3.632   3.332  13.120  0.1680 -1.4438  0.5756
14332TIP3   OH264410   5.840   1.199  14.368 -0.0627 -0.2207  0.2682
14332TIP3    H164411   5.824   1.192  14.462 -1.3712  0.9030  0.1748
14332TIP3    H264412   5.835   1.293  14.350 -1.0076 -0.4932 -1.0842
14333TIP3   OH264413   1.306   0.570   3.214 -0.2230 -0.3203 -0.9392
14333TIP3    H164414   1.392   0.538   3.242  0.1231  1.5684  0.4153
14333TIP3    H264415   1.257   0.579   3.296 -0.9801  0.5578 -1.4771
14334TIP3   OH264416   0.459   3.602  13.508 -0.5278 -0.2226  0.3024
14334TIP3    H164417   0.519   3.596  13.433  0.4417 -0.3777  1.0675
14334TIP3    H264418   0.481   3.685  13.550  0.0833 -0.8847  1.3406
14335TIP3   OH264419   4.910   2.980   1.938  0.4515  0.0378  0.3294
14335TIP3    H164420   4.891   2.954   1.848 -2.1905  0.2723  0.7375
14335TIP3    H264421   4.981   2.922   1.966 -1.1758 -2.6302 -0.7179
14336TIP3   OH264422   3.032   2.015   1.267 -0.0800  0.1053 -0.5312
14336TIP3    H164423   3.091   1.940   1.270 -0.8285 -0.5097 -0.7144
14336TIP3    H264424   2.962   1.993   1.329  1.0515  1.8768  1.4620
14337TIP3   OH264425   1.553   0.747  16.403  0.0316  0.2628 -0.4519
14337TIP3    H164426   1.550   0.731  16.497 -0.7026  0.0322 -0.5049
14337TIP3    H264427   1.620   0.686  16.371 -0.7459 -0.7268 -0.2649
14338TIP3   OH264428   3.622   2.301  14.067 -0.2338  0.5676 -0.3655
14338TIP3    H164429   3.711   2.269  14.082 -0.0747  0.3002 -1.7470
14338TIP3    H264430   3.634   2.393  14.043 -0.2737  0.4192 -0.9838
14339TIP3   OH264431   4.785   5.495   3.587  0.1654 -0.1622 -0.3984
14339TIP3    H164432   4.809   5.406   3.612  0.5374 -0.2101 -0.9225
14339TIP3    H264433   4.692   5.502   3.612  0.2317 -0.5699 -0.0199
14340TIP3   OH264434   6.653   6.014  11.406 -0.3185 -0.3604  0.1865
14340TIP3    H164435   6.679   6.100  11.372 -1.0699 -0.6631 -1.2022
14340TIP3    H264436   6.699   6.007  11.489  1.9039  0.2437 -0.9262
14341TIP3   OH264437   6.328   3.330  10.407  0.1129  0.0352 -0.2790
14341TIP3    H164438   6.381   3.335  10.328  0.3886  1.0909 -0.0400
14341TIP3    H264439   6.237   3.328  10.376  0.2472 -0.8624 -0.6533
14342TIP3   OH264440   4.082   4.318  15.019  0.4379  0.0203  0.3812
14342TIP3    H164441   4.024   4.377  15.068  0.7212  0.4870  0.1571
14342TIP3    H264442   4.164   4.317  15.070  0.5128 -0.0022  0.2607
14343TIP3   OH264443   2.196   2.025   1.003  0.5695 -0.5689  0.5298
14343TIP3    H164444   2.131   2.072   1.056  0.4555  2.1295 -1.7025
14343TIP3    H264445   2.262   2.091   0.982  1.6567 -2.0264 -0.9539
14344TIP3   OH264446   4.193   3.308  12.341  0.4615  0.0154  0.0369
14344TIP3    H164447   4.213   3.278  12.252  1.7359  2.1437 -0.4433
14344TIP3    H264448   4.117   3.254  12.367  0.4045 -1.0528 -2.0911
14345TIP3   OH264449   5.261   0.697   4.422  0.0570  0.1336  0.3307
14345TIP3    H164450   5.177   0.740   4.410  0.8778  1.5839 -0.5509
14345TIP3    H264451   5.289   0.672   4.333  1.6661  1.9549  0.2564
14346TIP3   OH264452   6.505   4.496  11.092 -0.0632  0.1193  0.2811
14346TIP3    H164453   6.565   4.553  11.140  0.2845 -0.1014  0.1123
14346TIP3    H264454   6.422   4.503  11.139  0.4167 -0.5262  1.2475
14347TIP3   OH264455   6.161   5.400  16.090 -1.2776  0.2031  0.8124
14347TIP3    H164456   6.205   5.439  16.165  3.3958  1.4634 -2.1289
14347TIP3    H264457   6.232   5.382  16.028 -4.6629 -1.3594 -3.0382
14348TIP3   OH264458   3.952   3.446  11.151  0.3767 -0.3382  0.9294
14348TIP3    H164459   3.938   3.360  11.191  1.4576 -1.1292 -0.3139
14348TIP3    H264460   3.993   3.427  11.067  0.8061  1.4123  0.7018
14349TIP3   OH264461   0.991   3.383   2.249 -0.0286  0.4100 -0.3058
14349TIP3    H164462   0.980   3.389   2.343  0.7870  0.0517 -0.1820
14349TIP3    H264463   1.070   3.330   2.236  0.2874  1.0456 -1.1666
14350TIP3   OH264464   4.151   4.689  12.518  0.1352  0.1727 -0.3818
14350TIP3    H164465   4.173   4.670  12.427  1.2986  0.1797 -0.1166
14350TIP3    H264466   4.107   4.610  12.549 -0.6563  0.3344 -1.0598
14351TIP3   OH264467   5.200   0.257  14.056  0.1695 -0.5279  0.5816
14351TIP3    H164468   5.231   0.333  14.007 -0.1631 -1.0509 -0.4785
14351TIP3    H264469   5.214   0.280  14.148 -0.0162  0.8493  0.2875
14352TIP3   OH264470   1.706   2.560  16.126  0.1983 -0.0315 -0.1179
14352TIP3    H164471   1.734   2.648  16.151 -1.1174 -0.2808  2.6516
14352TIP3    H264472   1.771   2.502  16.165 -0.4609 -0.3528  0.5295
14353TIP3   OH264473   0.223   4.824  14.308 -0.3265  0.4173  0.6317
14353TIP3    H164474   0.158   4.893  14.304  0.1593  0.9075  1.0182
14353TIP3    H264475   0.192   4.765  14.377 -1.4122 -0.4730 -0.5627
14354TIP3   OH264476   2.202   5.910   2.521  0.6523 -0.5282 -0.6096
14354TIP3    H164477   2.159   5.841   2.570  0.4892 -0.4268 -0.6090
14354TIP3    H264478   2.148   5.988   2.536  0.5054 -0.5339 -1.0784
14355TIP3   OH264479   4.273   1.824   3.382  1.0428 -0.0114 -0.3710
14355TIP3    H164480   4.217   1.872   3.442 -0.8035 -0.1529 -1.8988
14355TIP3    H264481   4.250   1.732   3.395  1.1877 -0.1040 -0.7355
14356TIP3   OH264482   6.025   1.545   1.190 -0.7238 -0.2134  1.1700
14356TIP3    H164483   6.119   1.541   1.209  0.2766  0.7091 -2.6484
14356TIP3    H264484   6.006   1.463   1.145 -0.9290  0.8145 -0.7333
14357TIP3   OH264485   3.907   0.274  11.931  0.3590  0.3722 -0.2350
14357TIP3    H164486   3.843   0.208  11.903 -0.5212  1.7379 -1.5596
14357TIP3    H264487   3.967   0.281  11.857  0.0143  1.5609 -0.4190
14358TIP3   OH264488   4.104   6.307  16.323 -0.0735 -0.2438  0.2012
14358TIP3    H164489   4.193   6.308  16.358 -0.8829  0.1994  2.4555
14358TIP3    H264490   4.075   6.398  16.330 -1.3133 -0.6902  1.3240
14359TIP3   OH264491   2.742   2.417  11.684 -0.2229  0.5321  0.0306
14359TIP3    H164492   2.690   2.402  11.605 -1.0577  2.4837  0.1784
14359TIP3    H264493   2.831   2.432  11.651  0.0629 -1.5001 -0.2984
14360TIP3   OH264494   6.134   5.710  13.255  0.3512 -0.2393  0.2919
14360TIP3    H164495   6.181   5.725  13.173  0.3521  1.6676  0.5881
14360TIP3    H264496   6.183   5.760  13.320 -1.0505  0.3117  0.9608
14361TIP3   OH264497   3.848   1.268  17.064 -0.7925 -0.6869  0.2003
14361TIP3    H164498   3.782   1.213  17.023 -0.6472 -0.6446 -0.0937
14361TIP3    H264499   3.833   1.258  17.158  0.1445 -2.3366  0.1938
14362TIP3   OH264500   5.025   5.813  12.306 -0.0550 -0.7050 -0.3301
14362TIP3    H164501   5.045   5.721  12.293 -0.4580 -1.1771  1.9706
14362TIP3    H264502   4.932   5.822  12.285 -0.9787 -1.6805  2.7366
14363TIP3   OH264503   2.705   6.236   4.786 -0.0669 -0.6084 -0.3091
14363TIP3    H164504   2.648   6.219   4.861  0.9658  1.3305  0.9799
14363TIP3    H264505   2.750   6.153   4.771 -0.6729 -1.1787  0.8805
14364TIP3   OH264506   1.592   3.423   1.326 -0.0804  0.1333 -0.0136
14364TIP3    H164507   1.605   3.408   1.419  0.8266  0.8378 -0.0225
14364TIP3    H264508   1.639   3.504   1.307 -0.7537  0.3196 -0.9646
14365TIP3   OH264509   5.604   0.396   5.545  0.4306  0.3402  0.1466
14365TIP3    H164510   5.699   0.399   5.531  0.3652  0.3028 -0.3180
14365TIP3    H264511   5.572   0.339   5.475  0.0883  0.1847  0.4296
14366TIP3   OH264512   0.874   4.329   0.457 -0.4215  0.0966 -0.3558
14366TIP3    H164513   0.833   4.369   0.381 -0.2904  0.8938 -0.0123
14366TIP3    H264514   0.857   4.390   0.529 -2.4457 -1.6344  0.7619
14367TIP3   OH264515   2.672   5.550   0.164  0.7924 -0.2739 -0.4363
14367TIP3    H164516   2.600   5.557   0.101  0.4653  1.7363  0.0710
14367TIP3    H264517   2.630   5.525   0.246  0.8626 -0.4058 -0.4402
14368TIP3   OH264518   6.560   2.572   1.935  0.1194 -0.5204 -0.4887
14368TIP3    H164519   6.616   2.571   2.012 -0.7364 -0.3122  0.1488
14368TIP3    H264520   6.516   2.657   1.938 -2.0954 -1.6415  0.4038
14369TIP3   OH264521   2.537   5.389   3.730 -0.1363 -0.2451 -0.5631
14369TIP3    H164522   2.576   5.444   3.798  2.4323 -0.6941 -1.5542
14369TIP3    H264523   2.607   5.329   3.705 -1.8082 -1.7637 -1.8449
14370TIP3   OH264524   0.565   0.237  13.580 -0.2349 -0.1665  0.1083
14370TIP3    H164525   0.529   0.318  13.543  0.1720 -0.7232 -1.5965
14370TIP3    H264526   0.658   0.254  13.589 -0.5299  0.5846  2.6847
14371TIP3   OH264527   0.942   2.159   0.389  0.1889 -0.0427 -0.2370
14371TIP3    H164528   0.925   2.253   0.387  1.6699  0.2680  0.4118
14371TIP3    H264529   0.991   2.142   0.308 -0.2641 -0.3001 -0.4595
14372TIP3   OH264530   3.392   5.475  11.243 -0.3289 -0.0966  0.3360
14372TIP3    H164531   3.479   5.462  11.279  0.2152 -0.2850 -1.0040
14372TIP3    H264532   3.404   5.535  11.170 -0.7653 -2.4862 -1.8602
14373TIP3   OH264533   3.841   6.582   2.841 -0.0242 -0.1110  0.4378
14373TIP3    H164534   3.819   6.628   2.760  0.3266  1.5763  1.2456
14373TIP3    H264535   3.853   6.491   2.815 -1.1464  0.1553 -1.1841
14374TIP3   OH264536   3.705   0.407  17.101  0.3574  0.5297 -0.6934
14374TIP3    H164537   3.685   0.455  17.181 -0.2795 -1.4272  0.4095
14374TIP3    H264538   3.643   0.334  17.101  1.9812 -0.9334 -1.6304
14375TIP3   OH264539   5.934   5.857  13.496 -0.2703 -0.2235 -0.0094
14375TIP3    H164540   5.984   5.922  13.445 -0.6958 -0.5758 -0.9043
14375TIP3    H264541   5.992   5.834  13.569 -0.3841  1.6535  0.7170
14376TIP3   OH264542   5.583   0.646   5.315  0.4494 -0.0845  0.3920
14376TIP3    H164543   5.629   0.564   5.333 -0.5769 -0.7372  0.0958
14376TIP3    H264544   5.507   0.644   5.373  0.2534  0.5216  0.1625
14377TIP3   OH264545   6.121   1.312  11.299  0.1463  0.0560 -0.9447
14377TIP3    H164546   6.167   1.393  11.275 -0.4745  0.1362 -1.9518
14377TIP3    H264547   6.070   1.291  11.221 -2.2904  0.5057  0.4486
14378TIP3   OH264548   4.878   4.706  17.189 -0.5415  0.5243  0.3516
14378TIP3    H164549   4.825   4.694  17.267 -2.2891  1.6772 -0.5703
14378TIP3    H264550   4.949   4.765  17.216 -1.6280  1.6200  0.8800
14379TIP3   OH264551   6.167   5.216  12.121 -0.2582 -0.0531  0.5619
14379TIP3    H164552   6.126   5.301  12.139  0.1459  0.5620 -1.2203
14379TIP3    H264553   6.195   5.222  12.030 -0.0005 -2.0306  0.4761
14380TIP3   OH264554   0.399   5.139   0.144  0.0323  0.3827 -0.4647
14380TIP3    H164555   0.437   5.163   0.060  1.8240 -0.3911  0.0743
14380TIP3    H264556   0.339   5.068   0.125  0.7504 -0.0769 -1.0501
14381TIP3   OH264557   0.177   3.396  14.972 -0.2496 -0.0704  0.2277
14381TIP3    H164558   0.245   3.353  15.024 -1.4263 -0.2536  1.6879
14381TIP3    H264559   0.168   3.483  15.011  0.1425  0.4925 -0.8966
14382TIP3   OH264560   5.725   2.551  13.757 -0.1190  0.2007 -0.3764
14382TIP3    H164561   5.816   2.567  13.735 -0.3749  1.8194 -0.4093
14382TIP3    H264562   5.728   2.489  13.830  0.9143 -1.0831 -1.4585
14383TIP3   OH264563   1.894   2.625  15.304  0.5761 -0.0660  0.0800
14383TIP3    H164564   1.860   2.543  15.270  0.2260 -0.0231  0.3179
14383TIP3    H264565   1.905   2.680  15.227  1.0647 -0.4268 -0.1087
14384TIP3   OH264566   2.735   0.308  14.958  0.0510  0.0651 -0.0913
14384TIP3    H164567   2.815   0.294  14.907 -0.4846 -1.2084 -0.6245
14384TIP3    H264568   2.673   0.244  14.923 -1.2671  1.1431  0.2004
14385TIP3   OH264569   0.819   0.909   3.194  0.0658  0.2335 -0.5641
14385TIP3    H164570   0.870   0.947   3.266  0.6017  2.1973 -1.8867
14385TIP3    H264571   0.814   0.816   3.215  1.2182  0.5433  1.3888
14386TIP3   OH264572   5.045   4.017   3.343  0.6498  0.3227 -0.2812
14386TIP3    H164573   5.025   4.107   3.366  1.6133  0.4729  0.0153
14386TIP3    H264574   5.085   3.980   3.422  0.4913 -0.2938 -0.4786
14387TIP3   OH264575   5.295   5.907  11.708  0.0318  0.3701  0.1231
14387TIP3    H164576   5.249   5.896  11.624  1.8805  1.1669 -1.0594
14387TIP3    H264577   5.385   5.879  11.689  0.8029  1.8133  1.4910
14388TIP3   OH264578   0.610   1.991  11.770 -0.0331 -0.0624  0.0508
14388TIP3    H164579   0.606   1.956  11.859  0.1076 -1.0765 -0.3270
14388TIP3    H264580   0.677   2.060  11.775  1.1554 -1.1978  0.3892
14389TIP3   OH264581   5.577   5.259  14.796  0.5197  0.4954  0.0298
14389TIP3    H164582   5.526   5.247  14.876  0.0663  0.3472 -0.2784
14389TIP3    H264583   5.617   5.346  14.806  1.1496  0.1249  0.7889
14390TIP3   OH264584   3.216   4.835  17.242 -0.4107  0.2478 -0.1300
14390TIP3    H164585   3.223   4.812  17.334  1.0665  1.5039  0.1176
14390TIP3    H264586   3.294   4.797  17.202  0.9719  2.8398 -0.0943
14391TIP3   OH264587   4.489   0.588   5.882  0.1627  0.1706  0.7279
14391TIP3    H164588   4.518   0.588   5.791 -0.2880  2.3910  0.5244
14391TIP3    H264589   4.537   0.515   5.922  0.8787 -0.4354 -1.1079
14392TIP3   OH264590   2.252   1.586  16.036 -0.5294 -0.0335 -0.0597
14392TIP3    H164591   2.231   1.674  16.067 -2.0373 -1.2234  2.6877
14392TIP3    H264592   2.291   1.542  16.112  0.6000 -1.6309 -1.4856
14393TIP3   OH264593   5.255   3.569   0.545  0.0262 -0.0747  0.3745
14393TIP3    H164594   5.264   3.475   0.529  0.1151  0.1674 -1.1459
14393TIP3    H264595   5.205   3.576   0.626  0.6968 -1.4297  0.9315
14394TIP3   OH264596   3.191   2.367  12.262 -0.1441  0.3357 -0.3831
14394TIP3    H164597   3.167   2.377  12.354 -0.5989 -1.4120 -0.2805
14394TIP3    H264598   3.270   2.312  12.264  0.1303  0.6923 -1.0288
14395TIP3   OH264599   5.229   0.082   2.047 -0.1826 -0.5673  0.8177
14395TIP3    H164600   5.259  -0.002   2.082 -0.7109 -0.8837  0.5236
14395TIP3    H264601   5.294   0.104   1.979 -0.7980 -1.4329 -0.0730
14396TIP3   OH264602   6.596   3.027   4.185 -0.5513  0.1625  0.1778
14396TIP3    H164603   6.592   3.062   4.275  0.0612  0.2105  0.1900
14396TIP3    H264604   6.566   3.100   4.130  0.5968  0.6863  0.2162
14397TIP3   OH264605   5.792   6.657  13.450 -0.0524  0.3283  0.6759
14397TIP3    H164606   5.801   6.736  13.396  2.4672  1.5959  2.7544
14397TIP3    H264607   5.851   6.593  13.409 -0.5423  0.1870  0.1718
14398TIP3   OH264608   2.087   5.398   1.133 -0.3283 -0.1178 -0.1678
14398TIP3    H164609   2.176   5.402   1.168 -0.1180  0.4811 -0.7398
14398TIP3    H264610   2.034   5.367   1.206 -0.1447  2.4617  1.1938
14399TIP3   OH264611   0.315   1.297  16.738 -0.3970 -0.0322  0.4559
14399TIP3    H164612   0.258   1.373  16.754 -0.5503 -0.1733  0.5811
14399TIP3    H264613   0.328   1.258  16.824  0.1273  0.1663  0.4707
14400TIP3   OH264614   0.428   2.655  13.629  0.7799 -0.0849 -0.1361
14400TIP3    H164615   0.471   2.692  13.551  0.0892 -0.2469 -0.6003
14400TIP3    H264616   0.366   2.722  13.657  1.6598  0.3510  0.8268
14401TIP3   OH264617   4.714   2.080   3.702 -0.2295  0.4950 -0.3256
14401TIP3    H164618   4.805   2.073   3.732 -0.6714 -0.4149  0.9185
14401TIP3    H264619   4.687   1.990   3.685 -0.7580  0.8010 -1.1731
14402TIP3   OH264620   6.003   4.603  16.675 -0.3743 -0.2172  0.3057
14402TIP3    H164621   6.054   4.635  16.750 -0.8133 -0.2253  0.6084
14402TIP3    H264622   6.033   4.658  16.602  0.6335 -0.7413  0.3093
14403TIP3   OH264623   2.343   5.597   0.032 -0.0321  0.2533 -0.6346
14403TIP3    H164624   2.318   5.643  -0.048 -1.4222  0.2791 -0.2178
14403TIP3    H264625   2.263   5.551   0.059  0.7854 -0.8424  0.0125
14404TIP3   OH264626   1.449   6.160   2.402 -0.7403 -0.3936 -0.2724
14404TIP3    H164627   1.514   6.114   2.349 -2.4115 -0.8234 -2.0805
14404TIP3    H264628   1.493   6.239   2.432  1.8365 -2.4627  1.8851
14405TIP3   OH264629   3.077   3.230   4.344 -0.0510  0.0782  0.4916
14405TIP3    H164630   3.153   3.264   4.296  0.5677 -0.2225  1.2420
14405TIP3    H264631   3.040   3.308   4.387 -0.5038  0.3182 -0.3091
14406TIP3   OH264632   5.915   1.605  11.091 -0.2507  0.0804  0.1097
14406TIP3    H164633   5.833   1.556  11.081  0.0663 -0.5701  0.5963
14406TIP3    H264634   5.900   1.661  11.167 -0.6921  0.9168 -0.5796
14407TIP3   OH264635   0.108   0.422   2.399 -0.5163  0.7519  0.0868
14407TIP3    H164636   0.099   0.426   2.494  0.5187 -1.6816  0.3663
14407TIP3    H264637   0.199   0.448   2.383 -0.7331  1.3030 -0.2684
14408TIP3   OH264638   2.630   0.513   1.604  0.0079 -0.2260  0.4753
14408TIP3    H164639   2.697   0.453   1.637  1.4062  1.1937  0.2978
14408TIP3    H264640   2.655   0.599   1.637 -1.1417  0.5083 -0.4818
14409TIP3   OH264641   5.161   4.231  15.757 -0.1041 -0.0721 -0.1733
14409TIP3    H164642   5.086   4.243  15.815 -0.4347 -0.5035 -0.5018
14409TIP3    H264643   5.226   4.294  15.788  0.1212 -1.0052  1.3229
14410TIP3   OH264644   4.381   5.103  14.404  0.0967 -0.5634  0.4288
14410TIP3    H164645   4.326   5.097  14.327  0.5764 -4.7265  0.1681
14410TIP3    H264646   4.421   5.190  14.399  0.7400 -0.8840 -4.4653
14411TIP3   OH264647   6.743   2.028   1.126  0.2430 -0.5025 -0.1470
14411TIP3    H164648   6.756   2.011   1.033  2.1579 -0.4269  0.0631
14411TIP3    H264649   6.824   2.068   1.155 -0.7011  0.4351  1.3614
14412TIP3   OH264650   6.476   4.709  10.902 -0.1932  0.5829 -0.8953
14412TIP3    H164651   6.398   4.729  10.852  0.3112  1.0620 -1.4983
14412TIP3    H264652   6.476   4.772  10.974 -0.4792  0.4309 -0.7622
14413TIP3   OH264653   5.211   6.110  14.245 -0.4861 -0.4045  0.3388
14413TIP3    H164654   5.303   6.094  14.224 -0.5577  0.8302 -1.0862
14413TIP3    H264655   5.166   6.107  14.161 -1.8643 -1.4417  1.0608
14414TIP3   OH264656   4.061   6.115   4.535  0.3646 -0.1845  0.0731
14414TIP3    H164657   4.015   6.032   4.550  1.6473 -0.9158  0.0722
14414TIP3    H264658   4.043   6.136   4.443 -2.1614  0.9620  0.7365
14415TIP3   OH264659   3.474   3.332  15.377  0.1265 -0.0901 -0.0962
14415TIP3    H164660   3.500   3.383  15.301 -2.2037  1.4318  0.0086
14415TIP3    H264661   3.512   3.246  15.363  1.3614  0.7127 -2.0015
14416TIP3   OH264662   4.928   5.950  14.451  0.2653  0.3698 -0.3734
14416TIP3    H164663   4.926   5.857  14.476  1.1081  0.1149 -1.1884
14416TIP3    H264664   4.955   5.949  14.359  0.2334  1.4310 -0.4041
14417TIP3   OH264665   3.481   5.828   2.182  0.5628  0.1061 -0.2263
14417TIP3    H164666   3.523   5.805   2.099  3.2253  1.1023  0.7294
14417TIP3    H264667   3.503   5.756   2.241 -0.7671 -0.2895 -0.1913
14418TIP3   OH264668   3.569   0.058  14.412 -0.2258  0.6297 -0.2309
14418TIP3    H164669   3.569  -0.031  14.375  1.6976 -0.0919  1.3388
14418TIP3    H264670   3.486   0.064  14.459 -0.4881 -0.2525 -0.5577
14419TIP3   OH264671   2.401   0.880   2.926 -0.1142  0.0911 -0.4909
14419TIP3    H164672   2.436   0.963   2.894  2.5627 -1.1801 -1.1732
14419TIP3    H264673   2.462   0.853   2.995  0.5790 -2.4278 -1.9425
14420TIP3   OH264674   0.460   0.370   2.687 -0.4465  0.2314  0.3272
14420TIP3    H164675   0.470   0.280   2.654 -0.2721  0.6642 -0.8326
14420TIP3    H264676   0.543   0.412   2.667 -0.8039  0.8711  0.1774
14421TIP3   OH264677   3.069   2.749   0.270 -0.0240  0.3616 -0.2475
14421TIP3    H164678   3.086   2.708   0.354  0.4645  2.2815  0.6391
14421TIP3    H264679   3.096   2.840   0.281  1.0426  0.4492 -2.7967
14422TIP3   OH264680   0.475   5.466  14.381 -0.1924 -0.1523  0.0489
14422TIP3    H164681   0.470   5.535  14.316 -0.4163 -1.1003 -0.9733
14422TIP3    H264682   0.394   5.475  14.432 -1.3133 -0.9880 -1.4891
14423TIP3   OH264683   2.601   6.358   1.341  0.0915 -0.4545 -0.4973
14423TIP3    H164684   2.513   6.342   1.306 -0.6265 -0.4826  1.2432
14423TIP3    H264685   2.618   6.284   1.399  1.7924 -1.0786 -1.7138
14424TIP3   OH264686   1.925   1.031   0.498 -0.0016 -0.1268 -0.1185
14424TIP3    H164687   1.876   0.980   0.434 -0.5512 -1.6424  1.4193
14424TIP3    H264688   1.985   0.967   0.538 -1.3194  0.1551  2.4907
14425TIP3   OH264689   1.838   6.100   4.189  0.1123  0.3128 -0.3099
14425TIP3    H164690   1.812   6.074   4.278 -1.0560  0.8859 -0.4738
14425TIP3    H264691   1.886   6.182   4.202  0.5177  0.0562 -0.1541
14426TIP3   OH264692   3.838   3.375   3.564 -0.4333 -0.0407 -0.0647
14426TIP3    H164693   3.835   3.427   3.644 -0.1458  1.1017 -0.7772
14426TIP3    H264694   3.783   3.299   3.582 -0.9789  0.5871  0.9480
14427TIP3   OH264695   1.491   3.158  10.925 -0.6987  0.6002 -0.1759
14427TIP3    H164696   1.422   3.132  10.864 -0.8388  0.7180 -0.0679
14427TIP3    H264697   1.549   3.214  10.873  1.2080 -2.1638 -1.2660
14428TIP3   OH264698   1.036   1.509   4.259 -0.6215  0.5506  0.1659
14428TIP3    H164699   0.959   1.464   4.223  1.0810 -0.7617 -2.1150
14428TIP3    H264700   1.053   1.580   4.197  0.3657  0.4322  0.2907
14429TIP3   OH264701   3.482   5.912  14.734  0.7450 -1.1886 -0.1783
14429TIP3    H164702   3.398   5.878  14.701  0.6255 -2.3892  1.2743
14429TIP3    H264703   3.462   5.942  14.822  1.1754  1.5072 -0.9154
14430TIP3   OH264704   4.869   1.072  12.525  0.6017 -0.5690  0.2082
14430TIP3    H164705   4.839   1.162  12.533 -1.3925 -0.7752 -2.9931
14430TIP3    H264706   4.796   1.019  12.559 -0.0701 -0.9632 -1.7030
14431TIP3   OH264707   4.898   5.440  11.530 -0.1297  0.2079  0.8902
14431TIP3    H164708   4.825   5.387  11.562 -0.2471 -0.0322  0.2583
14431TIP3    H264709   4.914   5.407  11.441 -0.6355  1.6406  0.2160
14432TIP3   OH264710   2.347   4.751   5.407  0.1901  0.1206  0.0187
14432TIP3    H164711   2.406   4.784   5.476 -0.5324  0.9831  0.2379
14432TIP3    H264712   2.338   4.825   5.346 -1.8606  0.5540  0.7810
14433TIP3   OH264713   6.627   3.592   1.531  0.7512  0.1641 -0.3867
14433TIP3    H164714   6.631   3.513   1.477  1.5622 -0.4281  0.5144
14433TIP3    H264715   6.539   3.591   1.568  0.3870  0.2718 -1.2363
14434TIP3   OH264716   0.482   2.751  10.549 -0.1822 -0.0960 -0.5170
14434TIP3    H164717   0.425   2.710  10.484 -4.4434  2.4234  1.2666
14434TIP3    H264718   0.468   2.700  10.629  0.2699  0.4512 -0.0848
14435TIP3   OH264719   2.033   4.304  16.852 -0.0900 -0.2325  0.1847
14435TIP3    H164720   1.954   4.331  16.804  1.5764  1.4103 -1.8542
14435TIP3    H264721   2.034   4.360  16.929 -0.8888 -0.2551  0.2224
14436TIP3   OH264722   3.114   6.115   2.905 -0.3293 -0.1442  0.7905
14436TIP3    H164723   3.046   6.164   2.952  0.5735  0.9427  1.0098
14436TIP3    H264724   3.094   6.024   2.924 -0.0696  0.2195  3.2646
14437TIP3   OH264725   1.710   4.840   0.919  0.1949 -0.0723 -0.2697
14437TIP3    H164726   1.782   4.795   0.962  0.8418 -0.6339 -1.8738
14437TIP3    H264727   1.753   4.902   0.860 -0.6391 -0.3751 -1.2052
14438TIP3   OH264728   5.175   1.316  12.149 -0.1716  0.3760  0.2539
14438TIP3    H164729   5.156   1.323  12.055 -0.8042  1.1902  0.4221
14438TIP3    H264730   5.089   1.324  12.191  0.2476  1.4214  0.9476
14439TIP3   OH264731   4.922   1.463  16.211  0.2098  0.0694 -0.2232
14439TIP3    H164732   4.981   1.482  16.285  0.4156 -2.1611  0.2373
14439TIP3    H264733   4.981   1.436  16.141 -0.1010  0.5842 -0.6850
14440TIP3   OH264734   4.975   5.179   3.074 -0.5300 -0.3490  0.5840
14440TIP3    H164735   5.020   5.214   3.151 -2.4611  0.6996  1.2811
14440TIP3    H264736   5.032   5.108   3.044  1.2903  0.5548  1.7342
14441TIP3   OH264737   3.042   6.133  13.323 -0.1596 -0.1588 -0.5317
14441TIP3    H164738   3.046   6.155  13.416 -0.2519  0.0404 -0.5744
14441TIP3    H264739   3.021   6.040  13.322  1.0942 -0.4613 -0.3350
14442TIP3   OH264740   3.070   2.933   5.625  0.3012 -0.1548  0.3158
14442TIP3    H164741   3.127   2.957   5.551 -1.9105 -0.2123 -1.5483
14442TIP3    H264742   3.109   2.976   5.701  2.1598  0.7336 -1.0641
14443TIP3   OH264743   3.002   6.298   1.442 -0.0060 -0.3948 -0.1662
14443TIP3    H164744   2.956   6.315   1.360  1.7972  0.6503 -1.0355
14443TIP3    H264745   3.078   6.245   1.416  1.9921  2.0550  0.3516
14444TIP3   OH264746   2.780   4.453  16.364 -0.2143  0.3528  0.5420
14444TIP3    H164747   2.727   4.479  16.440 -2.5951  1.2133 -1.2672
14444TIP3    H264748   2.774   4.528  16.305 -0.9419 -1.3626 -1.6859
14445TIP3   OH264749   6.366   1.706  16.637 -0.2444 -0.3642  0.2068
14445TIP3    H164750   6.320   1.738  16.716  2.2292  0.6972  1.3182
14445TIP3    H264751   6.379   1.785  16.584  0.0719 -0.6858 -0.1953
14446TIP3   OH264752   1.671   3.496  15.272  0.3947  0.3770  0.3229
14446TIP3    H164753   1.630   3.511  15.357 -0.1855  1.7420 -0.1621
14446TIP3    H264754   1.661   3.580  15.226 -0.5775 -0.7528 -1.6352
14447TIP3   OH264755   3.225   3.093   5.419  0.1192  0.1625  0.3651
14447TIP3    H164756   3.235   3.095   5.324  0.6640  2.1841  0.4075
14447TIP3    H264757   3.314   3.079   5.452  0.1394  0.7248  0.5668
14448TIP3   OH264758   2.269   5.683  16.536 -0.5233  0.0120 -0.1792
14448TIP3    H164759   2.219   5.748  16.586 -0.2814 -0.9703  1.4261
14448TIP3    H264760   2.262   5.603  16.588  0.0715 -0.9772 -1.5611
14449TIP3   OH264761   6.060   6.039  14.401  0.4689 -0.4394  0.1406
14449TIP3    H164762   6.023   5.979  14.337  0.7653  0.3935 -0.8351
14449TIP3    H264763   5.984   6.081  14.442  0.2756 -1.0798  0.4518
14450TIP3   OH264764   5.803   5.115  16.324  0.5541  0.1825  0.0465
14450TIP3    H164765   5.848   5.131  16.241 -0.6108  1.8614 -0.3018
14450TIP3    H264766   5.834   5.184  16.381  3.0456 -2.1819  1.8277
14451TIP3   OH264767   5.737   1.347  16.486  0.1630 -0.1894 -0.2697
14451TIP3    H164768   5.767   1.434  16.460  0.4862 -0.1808  0.1210
14451TIP3    H264769   5.807   1.313  16.541  0.5286 -1.1286 -1.2794
14452TIP3   OH264770   6.436   3.411  14.192  0.0244 -0.1172  0.1111
14452TIP3    H164771   6.342   3.423  14.184 -0.0293  1.0483  1.8999
14452TIP3    H264772   6.451   3.318  14.171 -1.6169 -0.4977  0.5307
14453TIP3   OH264773   2.285   6.004   3.771 -0.3521 -0.0667 -0.1705
14453TIP3    H164774   2.380   5.999   3.776 -0.4048 -3.6745  0.2376
14453TIP3    H264775   2.264   5.976   3.682 -1.0261 -0.1778  0.0177
14454TIP3   OH264776   3.334   5.370   2.742  0.0334  0.9801 -0.2951
14454TIP3    H164777   3.325   5.411   2.828  1.3872  0.1583  0.2772
14454TIP3    H264778   3.346   5.277   2.761  0.4564  0.8031 -1.3556
14455TIP3   OH264779   3.286   0.020  16.707  0.0907  0.0395  0.7182
14455TIP3    H164780   3.280   0.110  16.676 -1.5360 -0.4926 -0.6716
14455TIP3    H264781   3.195  -0.007  16.720  0.1773 -2.5745 -2.6814
14456TIP3   OH264782   3.713   6.502   2.109 -0.4328 -0.3135  0.2598
14456TIP3    H164783   3.772   6.479   2.038  0.7700 -0.8149  1.3889
14456TIP3    H264784   3.630   6.460   2.085 -0.5089  0.7405 -1.5465
14457TIP3   OH264785   4.159   4.406   1.685 -0.1691  0.1104 -0.1796
14457TIP3    H164786   4.101   4.330   1.677 -0.2575  0.1247  0.2976
14457TIP3    H264787   4.099   4.480   1.699 -0.0477  0.1636  0.0538
14458TIP3   OH264788   1.078   3.141  14.980 -0.3382 -0.3145 -0.1137
14458TIP3    H164789   1.137   3.085  14.928 -2.2008 -1.2221 -1.3594
14458TIP3    H264790   1.129   3.221  14.994  1.1635 -1.0063 -1.2196
14459TIP3   OH264791   4.674   4.580  17.057  0.1446  0.3156 -0.5704
14459TIP3    H164792   4.751   4.611  17.105  0.2316 -1.7322  0.7613
14459TIP3    H264793   4.654   4.650  16.995  1.6296  1.9368  0.6806
14460TIP3   OH264794   5.528   3.715   3.958  0.2916  0.2915 -0.5471
14460TIP3    H164795   5.550   3.759   4.039 -1.3886  0.3730 -0.0865
14460TIP3    H264796   5.515   3.623   3.983 -1.7281  0.5805 -0.3793
14461TIP3   OH264797   2.309   5.567   5.071 -0.1854 -0.5547  0.1270
14461TIP3    H164798   2.258   5.587   5.150  3.0804  1.2632  2.0007
14461TIP3    H264799   2.361   5.491   5.096  1.3623  0.4437  0.0482
14462TIP3   OH264800   3.636   6.138   2.613  0.1402 -0.0632  0.3327
14462TIP3    H164801   3.580   6.081   2.560  0.6549 -0.5003  0.2573
14462TIP3    H264802   3.669   6.203   2.550 -0.9602  0.7288  0.5414
14463TIP3   OH264803   5.405   0.506   4.571  0.1575 -0.5001  0.1352
14463TIP3    H164804   5.348   0.567   4.523  1.2270  0.8776  0.5553
14463TIP3    H264805   5.403   0.538   4.661  3.4460  1.1259 -0.2310
14464TIP3   OH264806   4.222   5.732  13.291 -0.5619 -0.8876  0.0780
14464TIP3    H164807   4.313   5.705  13.295 -0.6525 -1.1737  0.2792
14464TIP3    H264808   4.225   5.827  13.291 -0.1479 -0.8290 -2.4672
14465TIP3   OH264809   3.550   3.394   1.923 -0.1956  0.6706  0.2465
14465TIP3    H164810   3.639   3.359   1.918 -0.9861 -1.5694  0.7694
14465TIP3    H264811   3.551   3.471   1.866  2.5022  1.7417  1.5755
14466TIP3   OH264812   4.972   2.354   0.478 -0.4133 -0.4788 -0.7025
14466TIP3    H164813   4.992   2.426   0.539 -0.5357 -1.2629  0.2972
14466TIP3    H264814   5.050   2.298   0.481 -0.5121 -0.6406 -1.0990
14467TIP3   OH264815   6.012   3.222  12.709  1.1184  0.4787  0.2148
14467TIP3    H164816   6.096   3.184  12.685  0.8509  0.1920 -0.3063
14467TIP3    H264817   5.976   3.253  12.626 -1.0662 -2.9750 -0.3699
14468TIP3   OH264818   5.092   4.535   3.402  0.8235  0.4497 -0.2241
14468TIP3    H164819   5.148   4.564   3.474  1.4845 -0.2793 -0.4233
14468TIP3    H264820   5.005   4.527   3.440  1.2305 -0.2379  0.5910
14469TIP3   OH264821   1.264   0.858   2.365 -0.0103  0.1663  0.2159
14469TIP3    H164822   1.350   0.863   2.406  0.8281 -1.8428 -1.1205
14469TIP3    H264823   1.232   0.949   2.363  2.0729  0.9522  0.7497
14470TIP3   OH264824   3.683   2.347  16.366  0.0467  0.7675  0.2797
14470TIP3    H164825   3.745   2.405  16.411  0.7539  0.1524  0.1158
14470TIP3    H264826   3.597   2.378  16.394  0.4512  0.1799  2.4097
14471TIP3   OH264827   4.445   4.273   0.707 -0.0790 -0.0383 -0.2428
14471TIP3    H164828   4.450   4.190   0.660  0.9228  0.5460 -1.2000
14471TIP3    H264829   4.403   4.333   0.646 -0.5651  0.2412  0.3510
14472TIP3   OH264830   0.834   0.775  12.347 -0.4745 -0.0401 -0.3692
14472TIP3    H164831   0.761   0.749  12.291 -0.5392  0.1832 -0.3887
14472TIP3    H264832   0.820   0.868  12.363 -2.1243 -0.6609  2.4511
14473TIP3   OH264833   2.984   1.374   4.738  0.0510  0.3656 -0.5796
14473TIP3    H164834   2.919   1.332   4.683  2.2063 -2.3024 -1.3210
14473TIP3    H264835   3.002   1.311   4.808  2.6037  0.4149 -1.0683
14474TIP3   OH264836   0.879   4.163   4.680  0.2356  0.0781 -0.1383
14474TIP3    H164837   0.905   4.153   4.589  0.1006  0.2510 -0.1947
14474TIP3    H264838   0.790   4.127   4.684 -0.3579  1.4849 -0.3943
14475TIP3   OH264839   4.667   3.640  16.578 -1.0764  0.1454 -0.2096
14475TIP3    H164840   4.606   3.631  16.651 -1.9151  0.2353 -0.8941
14475TIP3    H264841   4.615   3.675  16.506 -0.4916 -0.8609 -1.1562
14476TIP3   OH264842   6.223   2.504  14.425 -0.3621  0.2262 -0.0668
14476TIP3    H164843   6.274   2.585  14.417 -1.2781  0.8666  0.3996
14476TIP3    H264844   6.275   2.449  14.484  0.4785  0.2851 -0.7213
14477TIP3   OH264845   4.245   3.536  12.461  0.3153 -0.4634 -0.6010
14477TIP3    H164846   4.223   3.451  12.422 -1.1036 -1.0964  1.4037
14477TIP3    H264847   4.167   3.589  12.448 -0.7143 -1.0795  2.1968
14478TIP3   OH264848   0.404   5.234   4.640  0.0971  0.0724  0.1811
14478TIP3    H164849   0.499   5.242   4.645  0.2378 -1.7971  1.7056
14478TIP3    H264850   0.371   5.320   4.669  1.2791  0.9865 -1.0626
14479TIP3   OH264851   2.128   0.689   3.159  0.3455 -0.2014 -0.0565
14479TIP3    H164852   2.112   0.637   3.081  0.6616  0.2733 -0.4414
14479TIP3    H264853   2.042   0.724   3.183  0.4910  0.9708 -1.1385
14480TIP3   OH264854   5.256   4.381   0.462  0.1447  0.2433  0.0387
14480TIP3    H164855   5.213   4.306   0.422 -0.1521  0.6578 -0.4376
14480TIP3    H264856   5.229   4.378   0.554  0.2189 -0.2910  0.0418
14481TIP3   OH264857   1.899   3.164  14.198  0.8089 -0.2654 -0.2641
14481TIP3    H164858   1.912   3.094  14.263 -0.5052 -0.1795  0.1240
14481TIP3    H264859   1.944   3.132  14.119  0.5511 -1.3762  0.0202
14482TIP3   OH264860   3.772   1.019   6.084  0.2416 -0.3799 -0.2150
14482TIP3    H164861   3.829   0.966   6.139 -0.2951  0.2893  1.0338
14482TIP3    H264862   3.809   1.011   5.996  2.9481  0.8703  0.6710
14483TIP3   OH264863   2.669   6.467   0.976 -0.0677 -0.2035  0.2638
14483TIP3    H164864   2.668   6.454   1.071  0.3570  0.9661  0.4408
14483TIP3    H264865   2.719   6.547   0.963 -0.2689 -0.2551 -0.9424
14484TIP3   OH264866   2.328   5.696   2.758 -0.0929 -0.2037  0.3964
14484TIP3    H164867   2.352   5.606   2.779 -1.1131 -0.9682 -1.4723
14484TIP3    H264868   2.403   5.732   2.711  0.1383 -0.2151  0.7548
14485TIP3   OH264869   2.947   5.746  15.440 -0.5555 -0.4296  0.2557
14485TIP3    H164870   2.939   5.841  15.432  1.2518 -0.2853 -0.2608
14485TIP3    H264871   3.040   5.730  15.455 -1.0495 -2.0173  2.2523
14486TIP3   OH264872   3.358   2.349  15.777 -0.1755  0.5272 -0.2690
14486TIP3    H164873   3.412   2.296  15.835 -0.5805  0.1221 -0.2549
14486TIP3    H264874   3.308   2.285  15.726 -1.1676  0.8908  0.2135
14487TIP3   OH264875   1.717   5.842  12.075 -0.0398  0.2091  0.2192
14487TIP3    H164876   1.733   5.748  12.081 -2.5726 -0.3802 -0.9170
14487TIP3    H264877   1.645   5.858  12.137 -0.0492  1.2685 -0.0497
14488TIP3   OH264878   1.251   1.786   4.635 -0.7547  0.1166 -0.0188
14488TIP3    H164879   1.230   1.876   4.660 -3.4365 -0.6283  0.7638
14488TIP3    H264880   1.220   1.778   4.545 -0.4119  0.0002 -0.1288
14489TIP3   OH264881   0.849   1.610  10.551  0.9987  0.6706  0.5099
14489TIP3    H164882   0.925   1.634  10.498 -0.6205  1.3926 -1.5978
14489TIP3    H264883   0.802   1.692  10.565 -0.7179 -0.1051 -0.4276
14490TIP3   OH264884   6.372   3.657  12.383 -0.1225  0.2075  0.1057
14490TIP3    H164885   6.394   3.676  12.475 -1.6262 -1.1902  0.8039
14490TIP3    H264886   6.447   3.607  12.350 -0.4949 -1.2053  1.2806
14491TIP3   OH264887   1.563   0.632   1.253  0.0995 -0.6668 -0.0247
14491TIP3    H164888   1.564   0.578   1.332  3.6372 -2.1050 -0.8504
14491TIP3    H264889   1.524   0.575   1.186 -0.6131 -0.3652  0.1259
14492TIP3   OH264890   0.899   3.276  17.213 -0.2336 -0.6130  0.2257
14492TIP3    H164891   0.951   3.195  17.212  0.6537 -0.0722  0.8455
14492TIP3    H264892   0.809   3.247  17.226  0.1130 -1.4915  0.7464
14493TIP3   OH264893   2.840   3.399   5.448 -0.3838  0.5620  0.1140
14493TIP3    H164894   2.851   3.311   5.484 -1.1967  0.6450  0.5940
14493TIP3    H264895   2.864   3.458   5.519  1.0137  0.7433 -0.4884
14494TIP3   OH264896   6.689   0.525   0.408 -0.2780  0.0164 -0.2157
14494TIP3    H164897   6.598   0.552   0.422  0.0548  0.6147  0.9445
14494TIP3    H264898   6.740   0.591   0.455  0.7729 -0.2088 -1.0076
14495TIP3   OH264899   6.558   3.929   6.239  0.4582  0.1053  0.1403
14495TIP3    H164900   6.577   3.883   6.321 -1.0912  0.6805  0.8601
14495TIP3    H264901   6.462   3.938   6.238  0.6161  2.4840 -0.4050
14496TIP3   OH264902   4.949   1.462   1.332 -0.4626 -0.2645 -0.4197
14496TIP3    H164903   4.925   1.437   1.421  0.2563  0.9966  0.1655
14496TIP3    H264904   5.042   1.486   1.338  0.2166 -2.2205 -1.9827
14497TIP3   OH264905   2.751   4.408  13.322 -0.4384  0.4092  0.4797
14497TIP3    H164906   2.715   4.494  13.298 -1.6948  0.0263  0.9154
14497TIP3    H264907   2.784   4.420  13.411 -1.1490  0.3010  0.7646
14498TIP3   OH264908   1.291   0.731  12.032 -0.1683 -0.5686 -0.1286
14498TIP3    H164909   1.221   0.671  12.056 -0.6124  0.6244  1.6832
14498TIP3    H264910   1.263   0.768  11.948 -1.7647 -0.0533  0.6015
14499TIP3   OH264911   4.907   5.426  11.875  0.5982 -0.4332  0.1187
14499TIP3    H164912   4.897   5.387  11.962 -0.1364  2.1596  1.2850
14499TIP3    H264913   4.838   5.385  11.823  1.3779 -2.4126  0.5617
14500TIP3   OH264914   4.797   2.073   2.251 -0.0263  0.1455  0.0775
14500TIP3    H164915   4.840   2.137   2.309  0.6014 -1.6255  1.6569
14500TIP3    H264916   4.862   2.053   2.184 -0.3456  1.3512 -0.6392
14501TIP3   OH264917   4.367   4.712   5.777  0.1828  0.6652 -0.0310
14501TIP3    H164918   4.455   4.748   5.768  0.5539 -0.5421 -1.8477
14501TIP3    H264919   4.324   4.732   5.693  0.8226 -3.9554 -1.7348
14502TIP3   OH264920   6.205   4.254  12.283 -0.2470 -0.0430 -0.6991
14502TIP3    H164921   6.228   4.255  12.376 -2.2433  0.1372 -0.1667
14502TIP3    H264922   6.246   4.332  12.247 -2.0973  1.7111  0.7722
14503TIP3   OH264923   1.489   2.397   1.447  0.7896 -0.0451 -1.0120
14503TIP3    H164924   1.487   2.366   1.357  1.0150 -1.7650 -0.4537
14503TIP3    H264925   1.494   2.318   1.500  1.2410  0.9524  0.5010
14504TIP3   OH264926   1.833   3.403  15.875 -0.4116 -1.2533  0.0886
14504TIP3    H164927   1.839   3.429  15.783 -0.0572  0.6957  0.6209
14504TIP3    H264928   1.915   3.434  15.913  0.3460 -3.7842  0.7061
14505TIP3   OH264929   2.209   0.916   1.374 -0.4007 -0.1517 -0.4886
14505TIP3    H164930   2.257   0.977   1.317  0.5587 -0.3693  0.0814
14505TIP3    H264931   2.185   0.844   1.316  3.9369 -2.3315  0.0278
14506TIP3   OH264932   1.189   6.719   4.231  1.2392 -0.0337  0.4631
14506TIP3    H164933   1.150   6.758   4.309 -0.5228 -0.8778  0.0609
14506TIP3    H264934   1.282   6.740   4.238  1.5368 -1.8331  3.8532
14507TIP3   OH264935   2.281   0.304  14.412  0.2587  0.1150  0.7782
14507TIP3    H164936   2.259   0.397  14.418  2.0792  0.6213  0.0402
14507TIP3    H264937   2.208   0.260  14.456 -1.4624  1.7602 -0.2729
14508TIP3   OH264938   3.621   4.758  14.219  0.4494  0.0016 -0.0832
14508TIP3    H164939   3.593   4.669  14.241 -0.0500  0.2820  0.4293
14508TIP3    H264940   3.551   4.814  14.251  2.1443  0.8443  2.5258
14509TIP3   OH264941   6.533   4.966  17.224 -0.2095 -0.2730  0.0134
14509TIP3    H164942   6.457   4.981  17.168 -0.9907  0.9569  1.3367
14509TIP3    H264943   6.589   5.042  17.209 -1.3792  1.1589  2.3172
14510TIP3   OH264944   3.903   1.098  13.180 -0.2024 -0.1627 -0.0872
14510TIP3    H164945   3.890   1.077  13.272 -1.9038  1.8869  0.2053
14510TIP3    H264946   3.818   1.085  13.139 -0.2380  1.6877 -0.7358
14511TIP3   OH264947   4.252   5.603   4.461  0.3495  0.1383  0.1739
14511TIP3    H164948   4.211   5.517   4.455 -0.4620  0.2709  2.7474
14511TIP3    H264949   4.346   5.584   4.469  0.1404 -0.5449  1.1201
14512TIP3   OH264950   4.938   3.254   6.087  0.0440  0.9143 -0.6252
14512TIP3    H164951   4.853   3.223   6.056  0.5915 -1.1487 -0.1819
14512TIP3    H264952   4.946   3.217   6.175  0.7227  2.4409 -0.0040
14513TIP3   OH264953   3.867   3.989  16.247 -0.2999 -0.2127  0.5442
14513TIP3    H164954   3.797   4.053  16.258  1.7454  2.6427 -1.5497
14513TIP3    H264955   3.859   3.961  16.156  1.2025  0.1584  0.2706
14514TIP3   OH264956   0.800   0.086   3.255  0.6807  0.5399 -0.1619
14514TIP3    H164957   0.763   0.068   3.169  2.2752 -0.8704 -0.6053
14514TIP3    H264958   0.848   0.169   3.244 -2.1014  2.3482  0.4021
14515TIP3   OH264959   2.464   3.222   4.391 -0.1401  0.0001  0.0340
14515TIP3    H164960   2.559   3.223   4.379  0.0911  0.7959  1.6170
14515TIP3    H264961   2.451   3.177   4.474 -1.0633  0.6924  0.2807
14516TIP3   OH264962   3.361   0.959   4.643 -0.1300 -0.0651 -0.4664
14516TIP3    H164963   3.385   0.952   4.735 -0.5053 -0.5804 -0.4071
14516TIP3    H264964   3.415   0.891   4.600 -0.5913 -0.4127 -0.5008
14517TIP3   OH264965   0.157   0.406   0.437  0.5319  0.1554 -0.1665
14517TIP3    H164966   0.170   0.315   0.411  0.2294  0.5469 -1.8122
14517TIP3    H264967   0.063   0.419   0.429  0.7226  0.9786 -1.3515
14518TIP3   OH264968   6.694   4.551   5.025  0.0943 -0.9809 -0.0318
14518TIP3    H164969   6.641   4.500   5.086  0.4003 -0.8689  0.3306
14518TIP3    H264970   6.700   4.496   4.947 -1.1517 -0.6955 -0.3571
14519TIP3   OH264971   1.486   1.776   3.025  0.4650 -0.2788 -0.8380
14519TIP3    H164972   1.541   1.830   3.081  1.3082 -0.0194 -1.8727
14519TIP3    H264973   1.425   1.838   2.984 -0.3343 -0.5051 -0.0230
14520TIP3   OH264974   6.394   2.000   6.148  0.4622 -0.2540  0.4930
14520TIP3    H164975   6.487   1.979   6.140  0.3415 -0.1119 -2.1802
14520TIP3    H264976   6.377   2.062   6.077 -2.0605 -1.7748 -0.3711
14521TIP3   OH264977   1.894   0.044  13.317  0.6892  0.7914  0.0302
14521TIP3    H164978   1.945   0.080  13.390  0.5914 -1.2949  1.2138
14521TIP3    H264979   1.864  -0.041  13.349 -1.9360  1.1141 -1.3669
14522TIP3   OH264980   4.400   5.272   0.479  0.6297  0.1329  0.1416
14522TIP3    H164981   4.428   5.309   0.563  3.9015  1.5693 -1.3898
14522TIP3    H264982   4.458   5.198   0.465 -0.2459 -0.4295 -0.6452
14523TIP3   OH264983   4.188   0.563   4.900 -0.0294  0.5070 -0.1419
14523TIP3    H164984   4.126   0.506   4.854 -1.2481  0.7482  1.1309
14523TIP3    H264985   4.246   0.503   4.947  1.8482  0.2164 -2.6311
14524TIP3   OH264986   3.880   0.337   1.214 -0.0104 -0.1259  0.4187
14524TIP3    H164987   3.868   0.242   1.224  0.8083 -0.3452 -0.4623
14524TIP3    H264988   3.958   0.357   1.266  0.6397 -0.1995 -0.4958
14525TIP3   OH264989   2.711   1.388  13.600  0.0715 -0.2586 -0.2661
14525TIP3    H164990   2.803   1.362  13.599  0.2670  0.2904 -2.5608
14525TIP3    H264991   2.702   1.442  13.678  1.4961 -0.9646  0.4237
14526TIP3   OH264992   3.211   2.699   1.025  0.3332  0.2266  0.0924
14526TIP3    H164993   3.160   2.776   1.050 -1.9319 -0.6437 -1.4642
14526TIP3    H264994   3.171   2.627   1.074  0.9008 -0.3145 -0.2278
14527TIP3   OH264995   2.588   5.600   3.116  0.5681  0.0449  0.2725
14527TIP3    H164996   2.619   5.511   3.136 -3.1237 -1.0812  1.7864
14527TIP3    H264997   2.525   5.589   3.046  0.4225  1.5653  0.1296
14528TIP3   OH264998   2.790   4.490   5.316 -0.5826 -0.2172  0.2427
14528TIP3    H164999   2.727   4.432   5.275 -1.6814  1.4970 -0.6078
14528TIP3    H265000   2.770   4.577   5.281  0.8299  0.7404  1.6361
14529TIP3   OH265001   3.189   2.882   4.774 -0.0584 -0.0495 -0.3250
14529TIP3    H165002   3.148   2.872   4.688  0.9315  2.3353 -1.1853
14529TIP3    H265003   3.269   2.831   4.768  0.2541  0.4969 -1.0324
14530TIP3   OH265004   5.041   6.329   3.020  0.0475  0.7765 -0.4968
14530TIP3    H165005   5.015   6.240   3.047  2.0901  0.3069  0.1277
14530TIP3    H265006   5.132   6.320   2.993  0.3316  2.7191 -0.3286
14531TIP3   OH265007   1.572   4.802  16.469  0.0616 -0.5146  0.0973
14531TIP3    H165008   1.619   4.736  16.520  0.9333  0.0658  0.0747
14531TIP3    H265009   1.605   4.885  16.502 -0.3072 -0.1074 -0.5401
14532TIP3   OH265010   2.567   6.120   1.872  0.3248 -0.4672 -0.3241
14532TIP3    H165011   2.638   6.164   1.826  0.1121 -0.8342 -1.0174
14532TIP3    H265012   2.611   6.066   1.938  0.7216 -0.9952 -1.0047
14533TIP3   OH265013   0.879   2.194  11.210 -0.2856  0.2617 -0.0342
14533TIP3    H165014   0.827   2.192  11.291  0.2695 -2.1609  0.3295
14533TIP3    H265015   0.952   2.251  11.231  0.4383 -1.1726  1.6189
14534TIP3   OH265016   4.890   1.945  16.560 -0.5761  0.1466 -0.0148
14534TIP3    H165017   4.881   1.891  16.639 -3.7829 -0.7528 -0.8439
14534TIP3    H265018   4.943   1.891  16.500  2.3563  1.0592  1.5433
14535TIP3   OH265019   3.071   6.035  15.229  0.0708 -0.2435 -0.6489
14535TIP3    H165020   2.987   6.073  15.252 -0.8875 -2.0540 -0.9437
14535TIP3    H265021   3.133   6.108  15.234 -1.1993  0.7847  1.2215
14536TIP3   OH265022   2.791   0.949   1.250  0.3637 -0.3405 -0.3509
14536TIP3    H165023   2.711   0.971   1.203  0.6243 -0.0370 -0.6668
14536TIP3    H265024   2.860   0.995   1.201  0.7245 -0.5848 -0.0765
14537TIP3   OH265025   0.271   0.238  13.253 -0.0201  0.4050  0.3575
14537TIP3    H165026   0.302   0.314  13.203 -0.8660  1.7258  1.7680
14537TIP3    H265027   0.351   0.188  13.270  0.9730  2.2137  1.4040
14538TIP3   OH265028   0.622   4.402   0.039 -0.1881 -0.4471 -0.2370
14538TIP3    H165029   0.537   4.368   0.066 -0.3107  1.3746  1.9967
14538TIP3    H265030   0.649   4.458   0.111  3.0342 -1.1052 -0.7852
14539TIP3   OH265031   1.528   4.953  12.164 -0.0749  0.1004  0.0688
14539TIP3    H165032   1.523   5.048  12.154 -0.2111  0.1414  0.4910
14539TIP3    H265033   1.437   4.925  12.175 -0.1329 -0.1999 -1.0294
14540TIP3   OH265034   1.244   1.159   5.502 -0.0872  0.0160 -0.1915
14540TIP3    H165035   1.163   1.179   5.457 -0.1434  0.5205  0.1322
14540TIP3    H265036   1.258   1.232   5.562  0.4602 -0.1992 -0.0441
14541TIP3   OH265037   5.444   5.005   5.359 -0.3925  0.0556 -0.4614
14541TIP3    H165038   5.449   5.095   5.326  0.0880  0.7385  1.3752
14541TIP3    H265039   5.406   4.955   5.286 -0.4762  1.6881 -1.5909
14542TIP3   OH265040   6.108   1.610  11.316  0.3371 -0.3336 -0.1114
14542TIP3    H165041   6.167   1.658  11.373 -2.0827  1.2769  1.1656
14542TIP3    H265042   6.119   1.652  11.230  1.0747 -0.1278  0.0712
14543TIP3   OH265043   5.199   2.659  15.444  0.0734  0.6313 -0.1483
14543TIP3    H165044   5.171   2.636  15.355  1.0420  2.4149 -0.9772
14543TIP3    H265045   5.288   2.624  15.451 -0.0329  0.4203  0.1581
14544TIP3   OH265046   5.258   0.821   4.133 -0.3113 -0.3732  0.5939
14544TIP3    H165047   5.193   0.828   4.063  0.1377  0.2571  0.2245
14544TIP3    H265048   5.325   0.764   4.097 -0.0816 -0.0519  0.5087
14545TIP3   OH265049   6.373   6.624   3.830 -0.0898  0.1474 -0.4954
14545TIP3    H165050   6.293   6.634   3.882 -0.5164 -1.5528 -0.7844
14545TIP3    H265051   6.442   6.660   3.886 -0.8289  0.2184  0.4014
14546TIP3   OH265052   3.077   2.933  16.647  0.5824  0.2354  0.3892
14546TIP3    H165053   3.141   2.971  16.587 -0.9955 -1.5382 -2.6733
14546TIP3    H265054   3.098   2.839  16.648  1.1267  0.2599  3.5178
14547TIP3   OH265055   0.157   0.418   2.698  0.1100 -0.8304 -0.5128
14547TIP3    H165056   0.166   0.413   2.793 -0.3100 -1.4737 -0.4993
14547TIP3    H265057   0.237   0.379   2.664  0.7168  0.3206 -0.4331
14548TIP3   OH265058   3.484   0.021   4.655  0.9783 -0.0286 -0.0021
14548TIP3    H165059   3.399  -0.022   4.662  0.7011  0.5991  0.5918
14548TIP3    H265060   3.463   0.112   4.635  1.4721  0.2684  0.7653
14549TIP3   OH265061   0.127   4.476  12.972  0.4543 -0.4737 -0.7048
14549TIP3    H165062   0.081   4.437  12.898  0.5849 -2.3989  0.1759
14549TIP3    H265063   0.203   4.420  12.986 -1.5750 -2.6823  3.2740
14550TIP3   OH265064   1.045   2.298  14.858  0.1238 -0.5770 -0.1475
14550TIP3    H165065   1.024   2.209  14.830 -3.5520 -0.0108  0.2307
14550TIP3    H265066   1.003   2.354  14.793 -0.7554  0.8045  1.5095
14551TIP3   OH265067   5.355   1.643   2.328 -0.1475 -0.4280  0.0106
14551TIP3    H165068   5.447   1.617   2.318 -0.0395 -0.7425  1.4787
14551TIP3    H265069   5.305   1.565   2.303 -0.2336  0.6938 -3.9437
14552TIP3   OH265070   6.110   3.285   2.102  0.3119 -0.0059  0.2836
14552TIP3    H165071   6.192   3.279   2.151 -0.2701  1.6775  1.5694
14552TIP3    H265072   6.043   3.255   2.163 -0.1694 -0.2546 -0.3539
14553TIP3   OH265073   4.199   6.672  15.215  0.4690  0.1316 -0.0704
14553TIP3    H165074   4.276   6.688  15.270  0.8255 -1.4113 -0.0933
14553TIP3    H265075   4.155   6.598  15.257 -0.9278  0.8743 -0.1594
14554TIP3   OH265076   6.540   5.999  14.654 -0.0033 -0.1285 -0.4173
14554TIP3    H165077   6.480   5.997  14.579  0.3160  0.9109 -0.7135
14554TIP3    H265078   6.482   6.004  14.731 -0.3361  1.7876 -0.7355
14555TIP3   OH265079   3.908   2.760   6.586  0.0834 -0.2838  0.2194
14555TIP3    H165080   3.968   2.710   6.641  0.1215  0.0104  0.4483
14555TIP3    H265081   3.850   2.695   6.548 -1.3860 -0.2928  2.3529
14556TIP3   OH265082   4.829   5.701  15.037  0.1290  0.0129  0.0002
14556TIP3    H165083   4.876   5.656  15.107 -0.7470 -1.1451 -0.1263
14556TIP3    H265084   4.875   5.785  15.028  1.7775 -0.8094  0.2866
14557TIP3   OH265085   1.830   5.124   1.164  0.1844 -0.5775  0.2144
14557TIP3    H165086   1.832   5.144   1.070  1.6108  1.6976  0.6607
14557TIP3    H265087   1.781   5.042   1.170 -1.3180  0.0287 -2.3594
14558TIP3   OH265088   4.837   4.878  14.071 -0.6173 -0.6241 -0.4557
14558TIP3    H165089   4.748   4.861  14.104 -0.6790 -1.0126 -0.8075
14558TIP3    H265090   4.858   4.800  14.020 -0.8284  0.2815 -1.9814
14559TIP3   OH265091   3.529   3.727  15.737 -0.3923 -0.3190  0.1120
14559TIP3    H165092   3.594   3.681  15.684  0.3660  1.2154 -0.3198
14559TIP3    H265093   3.464   3.659  15.758  0.8002 -1.6428 -0.2917
14560TIP3   OH265094   5.046   6.156   1.870  0.3385 -0.0004 -0.3003
14560TIP3    H165095   5.024   6.158   1.963  1.1904  2.4711 -0.0868
14560TIP3    H265096   4.967   6.186   1.826  0.0232 -0.9171 -0.3867
14561TIP3   OH265097   1.321   4.585   0.363 -0.0112 -0.2148  0.1030
14561TIP3    H165098   1.361   4.507   0.325 -1.4426 -0.3847 -1.1499
14561TIP3    H265099   1.374   4.658   0.330  1.0202 -0.5830  0.8698
14562TIP3   OH265100   2.867   6.740   5.764  0.0942 -0.3121 -0.2614
14562TIP3    H165101   2.773   6.750   5.745 -0.5615  1.0740  2.9345
14562TIP3    H265102   2.888   6.817   5.818  2.7606 -1.2464  0.1689
14563TIP3   OH265103   3.846   1.860   0.325  0.4228  0.4616 -0.0377
14563TIP3    H165104   3.877   1.773   0.348  0.4369  1.1620  2.9564
14563TIP3    H265105   3.925   1.914   0.322  0.2657  0.6800 -0.3365
14564TIP3   OH265106   3.219   5.184  12.230 -0.1471 -0.1588 -0.2409
14564TIP3    H165107   3.303   5.143  12.209 -0.3323 -0.8810  0.3688
14564TIP3    H265108   3.158   5.148  12.166  0.3161  1.6647 -1.7861
14565TIP3   OH265109   4.533   6.329  11.633 -0.4238  0.3521 -0.0178
14565TIP3    H165110   4.546   6.240  11.667 -1.2373  0.2251 -0.0236
14565TIP3    H265111   4.522   6.383  11.711  1.3298  0.6827  0.0456
14566TIP3   OH265112   5.526   3.760  12.697 -0.3724  0.0782 -0.1888
14566TIP3    H165113   5.469   3.775  12.622 -1.4171 -2.7369 -0.0641
14566TIP3    H265114   5.469   3.766  12.773 -0.4030 -2.0203 -0.0053
14567TIP3   OH265115   0.546   2.366  12.985  0.2729  0.3581 -0.1798
14567TIP3    H165116   0.609   2.437  12.975  0.5632 -0.0235 -1.1486
14567TIP3    H265117   0.596   2.286  12.969 -0.2225 -0.0120  0.0984
14568TIP3   OH265118   1.656   1.469  15.388  0.0058  0.7450  0.3268
14568TIP3    H165119   1.590   1.446  15.322  1.3418  0.3929 -0.9366
14568TIP3    H265120   1.662   1.391  15.443 -0.6178  0.7827  0.4623
14569TIP3   OH265121   1.785   4.409  14.846  0.8566  0.1123  0.1528
14569TIP3    H165122   1.841   4.332  14.858 -0.1471 -0.7552 -0.4876
14569TIP3    H265123   1.833   4.465  14.785  0.1128 -1.6699 -2.2225
14570TIP3   OH265124   6.250   0.555   4.819  0.6461 -0.1401 -0.4102
14570TIP3    H165125   6.272   0.633   4.769 -0.8309  1.2542  1.0067
14570TIP3    H265126   6.158   0.539   4.801  1.0536 -1.9640 -1.1376
14571TIP3   OH265127   4.597   1.616   5.910  0.0724  0.1180  0.2646
14571TIP3    H165128   4.620   1.681   5.844  1.6891  0.3409  0.9881
14571TIP3    H265129   4.525   1.655   5.959 -1.2397 -0.1116 -1.4113
14572TIP3   OH265130   6.575   4.556  15.209 -0.2059 -0.2803  0.0226
14572TIP3    H165131   6.596   4.620  15.278 -0.0525  1.1630 -1.2940
14572TIP3    H265132   6.496   4.513  15.239 -0.0678  0.2219  1.1615
14573TIP3   OH265133   1.066   2.951   4.625  0.8759  0.0211 -0.3286
14573TIP3    H165134   1.059   3.038   4.584  0.3642 -0.2071 -0.7474
14573TIP3    H265135   1.049   2.967   4.717  1.5318  0.4745 -0.2849
14574TIP3   OH265136   4.443   4.209  12.976 -0.2773  0.5009 -0.2635
14574TIP3    H165137   4.400   4.130  13.012  1.3330 -0.8174 -1.0946
14574TIP3    H265138   4.465   4.261  13.053 -2.2381  0.6452  0.2476
14575TIP3   OH265139   5.972   4.243  16.986  0.4845  0.7491 -0.1334
14575TIP3    H165140   5.986   4.287  16.902  1.0737 -1.7142 -1.4269
14575TIP3    H265141   6.060   4.234  17.023  0.3568  0.7591  0.1715
14576TIP3   OH265142   6.419   4.028   4.026  0.1677 -0.0458 -0.4892
14576TIP3    H165143   6.362   4.097   4.059  0.6063 -0.3421  0.9720
14576TIP3    H265144   6.377   3.999   3.944 -0.4236  1.4004 -0.7286
14577TIP3   OH265145   0.933   0.688  12.981 -0.0800  0.1984  0.4855
14577TIP3    H165146   0.843   0.685  12.951  0.7939 -0.9376 -2.4298
14577TIP3    H265147   0.975   0.753  12.924  1.7277 -2.1728 -1.1084
14578TIP3   OH265148   0.266   6.301   5.391 -0.1538 -0.1050 -0.2577
14578TIP3    H165149   0.301   6.319   5.303 -0.8664 -0.5043 -0.6317
14578TIP3    H265150   0.239   6.209   5.388 -0.7092  0.0385  0.1958
14579TIP3   OH265151   2.320   2.677   3.158  0.4791  0.5715  0.5079
14579TIP3    H165152   2.415   2.692   3.166  0.6639 -0.0612 -0.4259
14579TIP3    H265153   2.290   2.747   3.101  0.7860 -0.5586 -1.0946
14580TIP3   OH265154   3.434   4.075   5.998  0.4983  0.8600 -0.0093
14580TIP3    H165155   3.409   4.142   6.061 -1.9192 -0.7372  0.8518
14580TIP3    H265156   3.380   4.094   5.921  0.2789  0.3307  0.0062
14581TIP3   OH265157   0.221   0.200  11.200  0.4724  0.7112 -0.0155
14581TIP3    H165158   0.189   0.214  11.290 -6.1539  0.6247 -1.8147
14581TIP3    H265159   0.199   0.281  11.154  2.0087  0.0871 -1.9905
14582TIP3   OH265160   5.805   2.959   2.835  0.1622 -1.4108 -0.6546
14582TIP3    H165161   5.886   2.930   2.875 -0.0495  1.9278  2.7869
14582TIP3    H265162   5.832   3.013   2.761  0.9563 -2.0234 -0.8182
14583TIP3   OH265163   2.044   0.921  12.063 -0.4984 -0.1900 -0.6523
14583TIP3    H165164   2.119   0.947  12.009 -1.2402  2.3399 -0.5998
14583TIP3    H265165   2.037   0.990  12.129 -2.3412 -0.8561 -0.0984
14584TIP3   OH265166   2.196   5.854   5.123 -0.0141  0.3935  0.1295
14584TIP3    H165167   2.196   5.939   5.080 -0.1424  0.0730 -0.5276
14584TIP3    H265168   2.265   5.860   5.189 -0.6500  1.3126  0.7336
14585TIP3   OH265169   1.890   3.632  12.008 -0.2523 -0.2008 -0.7602
14585TIP3    H165170   1.849   3.547  12.020 -0.2420 -0.2134 -0.8099
14585TIP3    H265171   1.832   3.678  11.948 -0.4438 -0.0397 -0.4508
14586TIP3   OH265172   0.643   1.699   5.893  0.0715  0.5336  0.1286
14586TIP3    H165173   0.555   1.663   5.884  1.3949 -2.4311 -2.5884
14586TIP3    H265174   0.676   1.662   5.975 -0.2518 -0.6031 -0.2465
14587TIP3   OH265175   2.359   4.112  13.367 -0.4840 -0.3889 -0.1831
14587TIP3    H165176   2.280   4.163  13.385 -0.5323 -1.1643  2.0124
14587TIP3    H265177   2.328   4.021  13.362 -0.2241 -0.4225 -2.9170
14588TIP3   OH265178   4.235   6.163   1.393 -0.0089  0.0518 -0.3221
14588TIP3    H165179   4.204   6.139   1.306 -1.2238  1.2103 -0.2413
14588TIP3    H265180   4.238   6.080   1.441 -1.9012 -0.3021 -0.7031
14589TIP3   OH265181   4.688   5.566   2.418 -0.0755 -0.1080  0.0998
14589TIP3    H165182   4.634   5.528   2.488 -0.7795  1.1290  0.2560
14589TIP3    H265183   4.636   5.640   2.385  1.3711  0.9189  0.0286
14590TIP3   OH265184   6.037   4.096  13.808 -0.3741  0.2839  0.2912
14590TIP3    H165185   5.985   4.041  13.749 -0.6279  1.5804 -0.7432
14590TIP3    H265186   6.059   4.173  13.755  2.5925 -0.1646  0.6620
14591TIP3   OH265187   2.359   2.411   1.458 -0.4432 -0.3220 -0.1846
14591TIP3    H165188   2.275   2.458   1.454  0.0551  0.6670  0.6189
14591TIP3    H265189   2.368   2.386   1.550 -0.4499 -1.5858 -0.5003
14592TIP3   OH265190   0.906   4.370  16.451  0.6292  0.3624  0.4353
14592TIP3    H165191   0.982   4.425  16.468 -0.2188  2.8251 -2.7873
14592TIP3    H265192   0.934   4.312  16.380 -0.5293  1.6181 -1.1115
14593TIP3   OH265193   3.038   3.253   5.894  0.3811 -0.7701 -0.5394
14593TIP3    H165194   3.104   3.292   5.951  0.3430 -1.8249  0.2443
14593TIP3    H265195   3.035   3.311   5.818 -0.0676  1.0617  0.8054
14594TIP3   OH265196   0.069   1.026   6.352  1.0773 -0.1276 -0.1998
14594TIP3    H165197   0.164   1.024   6.342  1.3279 -0.5868  1.7801
14594TIP3    H265198   0.042   1.110   6.316  2.7667  1.8421  2.7140
14595TIP3   OH265199   4.705   2.366   0.553  0.4399  0.2675 -0.3889
14595TIP3    H165200   4.790   2.366   0.509  0.7980  0.4163  0.2819
14595TIP3    H265201   4.723   2.327   0.639  0.0207  1.1368  0.1088
14596TIP3   OH265202   6.720   1.143  13.528  0.2963  0.7521  0.7948
14596TIP3    H165203   6.657   1.082  13.488  0.2360  1.0174  0.4774
14596TIP3    H265204   6.756   1.192  13.454  0.4962  0.9599  1.0283
14597TIP3   OH265205   2.299   3.671   4.742  0.0516  0.0863 -0.1199
14597TIP3    H165206   2.305   3.677   4.647  0.9629  0.6576 -0.0411
14597TIP3    H265207   2.315   3.579   4.761 -0.3294 -0.0689 -0.5252
14598TIP3   OH265208   0.856   0.799   1.782  0.0519 -0.1869  0.6936
14598TIP3    H165209   0.837   0.748   1.703 -1.6278  0.3039  0.7274
14598TIP3    H265210   0.770   0.815   1.820  0.2124  4.1573 -0.2796
14599TIP3   OH265211   3.097   6.405  16.728 -0.8570 -0.2633 -0.7481
14599TIP3    H165212   3.007   6.380  16.749 -0.6734 -1.8980 -1.7114
14599TIP3    H265213   3.093   6.440  16.639 -0.5674 -0.2131 -0.7426
14600TIP3   OH265214   4.681   4.560  14.972  0.5377  0.1301 -0.2083
14600TIP3    H165215   4.601   4.602  14.939  0.4002 -0.5196 -0.7213
14600TIP3    H265216   4.702   4.494  14.906 -0.2341 -1.8097  1.4005
14601TIP3   OH265217   4.440   0.660  12.567 -0.3981 -0.3282  0.0422
14601TIP3    H165218   4.454   0.749  12.533  1.7190 -0.7234 -0.2453
14601TIP3    H265219   4.492   0.657  12.648 -1.3241 -0.9858  0.6270
14602TIP3   OH265220   0.044   0.094   4.348  0.7009 -0.5916  0.5176
14602TIP3    H165221   0.064   0.081   4.255  1.3966 -0.2630  0.6223
14602TIP3    H265222   0.060   0.186   4.364 -2.0997  0.0209  0.3222
14603TIP3   OH265223   0.755   2.301   5.260 -0.0025  0.2002 -0.1084
14603TIP3    H165224   0.688   2.278   5.195 -0.4117  0.7980  0.0948
14603TIP3    H265225   0.729   2.254   5.339  0.2152 -0.1261 -0.2272
14604TIP3   OH265226   3.847   0.062   5.361 -0.1795  0.0030 -0.3352
14604TIP3    H165227   3.930   0.084   5.317 -0.2757 -0.6011 -0.8268
14604TIP3    H265228   3.872  -0.004   5.426 -0.1848  0.2485 -0.0805
14605TIP3   OH265229   3.617   2.515  12.247 -0.2845 -0.0685 -0.3168
14605TIP3    H165230   3.590   2.427  12.220 -0.1576 -0.6039  1.2078
14605TIP3    H265231   3.702   2.502  12.289 -1.5461  0.2578  2.5939
14606TIP3   OH265232   1.834   0.543   5.963  0.4322  0.2904  0.5059
14606TIP3    H165233   1.919   0.499   5.953  0.5980  0.9567 -1.6140
14606TIP3    H265234   1.847   0.628   5.920 -1.9680 -0.5226 -2.1263
14607TIP3   OH265235   0.182   5.990   1.974  0.5312 -0.0946  0.0142
14607TIP3    H165236   0.259   5.999   2.029 -1.2744 -0.7152  2.8331
14607TIP3    H265237   0.196   5.909   1.926  1.0296 -0.9731  1.5905
14608TIP3   OH265238   3.445   5.716   2.656  0.0475 -0.7570 -0.4148
14608TIP3    H165239   3.406   5.742   2.740  2.3738 -1.2418  0.8864
14608TIP3    H265240   3.373   5.672   2.610 -0.6227 -3.1968  2.5948
14609TIP3   OH265241   0.579   3.047   2.131 -0.4406  0.0659  0.0468
14609TIP3    H165242   0.637   3.122   2.121 -0.5339 -0.1027 -2.2344
14609TIP3    H265243   0.556   3.047   2.224  1.2214  1.5938  0.5082
14610TIP3   OH265244   1.876   1.063  13.464  0.2369 -0.3759 -0.2639
14610TIP3    H165245   1.816   1.062  13.389 -0.8870 -0.2778  0.6017
14610TIP3    H265246   1.884   1.155  13.487 -2.4905 -0.5668  2.0385
14611TIP3   OH265247   2.729   2.396   0.486  0.2701  0.3194  0.4663
14611TIP3    H165248   2.769   2.457   0.425 -1.4939  1.9791  0.8808
14611TIP3    H265249   2.682   2.333   0.430  1.4927 -0.2694  0.0651
14612TIP3   OH265250   4.221   3.883  14.982  0.1609  0.6190 -0.2531
14612TIP3    H165251   4.171   3.803  15.002  0.8506  0.1893 -0.2364
14612TIP3    H265252   4.228   3.928  15.066  0.9625  0.0061  0.0213
14613TIP3   OH265253   0.134   3.944   1.831  0.3472 -0.1727 -0.4454
14613TIP3    H165254   0.150   3.981   1.918  0.8972  1.7800 -1.3288
14613TIP3    H265255   0.215   3.900   1.808 -0.2658 -1.9344  0.5585
14614TIP3   OH265256   0.624   0.934  11.647 -0.2815 -0.5064 -0.4911
14614TIP3    H165257   0.701   0.968  11.603 -0.2169  1.2319  0.8616
14614TIP3    H265258   0.575   0.889  11.578  1.1679 -0.3285 -1.6907
14615TIP3   OH265259   4.690   5.456  17.298  0.1741 -0.7244 -0.2197
14615TIP3    H165260   4.616   5.470  17.357 -1.0391 -0.9583 -1.6079
14615TIP3    H265261   4.663   5.382  17.243  1.3304 -0.6463 -0.9215
14616TIP3   OH265262   4.328   5.789  16.844 -0.6720 -0.2559 -0.3504
14616TIP3    H165263   4.324   5.837  16.761 -0.7752  0.2016 -0.0872
14616TIP3    H265264   4.263   5.832  16.899 -1.2843 -1.1618 -0.3389
14617TIP3   OH265265   5.977   2.985  10.980  0.7337  0.6060 -0.2590
14617TIP3    H165266   6.031   2.970  10.903 -1.3263 -0.4037 -1.5831
14617TIP3    H265267   5.891   2.952  10.956 -0.2915  1.3870  2.0598
14618TIP3   OH265268   3.110   1.713  16.931  0.3009  0.0546  0.4313
14618TIP3    H165269   3.058   1.645  16.975  0.0501 -0.5448 -0.7379
14618TIP3    H265270   3.056   1.738  16.855 -0.0737  2.3116  1.3872
14619TIP3   OH265271   6.773   2.831  12.821  0.6426 -0.1100 -0.5460
14619TIP3    H165272   6.719   2.876  12.757 -0.2880 -0.8478 -0.2961
14619TIP3    H265273   6.712   2.804  12.890  1.4207 -0.4291  0.0401
14620TIP3   OH265274   0.496   2.507  14.860 -0.2192  0.1128 -0.5631
14620TIP3    H165275   0.539   2.579  14.814  3.4316 -2.0035 -0.8503
14620TIP3    H265276   0.411   2.499  14.817 -0.2620  3.3491 -1.3637
14621TIP3   OH265277   5.242   0.592   5.108 -0.2016  0.3750 -0.3485
14621TIP3    H165278   5.216   0.625   5.194  1.6195  2.4375 -0.5280
14621TIP3    H265279   5.278   0.505   5.126 -0.3946  0.5293  0.8631
14622TIP3   OH265280   2.666   1.028   5.677  0.1154  0.6957 -0.0229
14622TIP3    H165281   2.710   0.956   5.630  1.9337  2.7830 -1.7537
14622TIP3    H265282   2.663   0.999   5.768  2.1079 -0.9907 -0.4118
14623TIP3   OH265283   1.850   3.228   1.546 -0.2059  0.6113 -0.4169
14623TIP3    H165284   1.941   3.209   1.521  0.1153  1.1006  0.3574
14623TIP3    H265285   1.846   3.323   1.550 -0.4880  0.5651  0.5002
14624TIP3   OH265286   6.231   5.668   1.203 -0.4360  0.1725  0.0559
14624TIP3    H165287   6.273   5.582   1.196  0.8661  0.7538  0.3792
14624TIP3    H265288   6.290   5.727   1.157 -1.9386  0.7208 -1.2451
14625TIP3   OH265289   3.908   1.503   1.287  0.0350 -0.3969  0.2427
14625TIP3    H165290   3.979   1.440   1.280  0.1751 -0.1747 -0.3815
14625TIP3    H265291   3.853   1.488   1.210  0.1570  0.3433  0.0030
14626TIP3   OH265292   4.584   2.945   3.811 -0.1180 -0.0810  0.4115
14626TIP3    H165293   4.581   2.873   3.873  1.9278 -1.3258 -0.8174
14626TIP3    H265294   4.503   2.939   3.761 -1.3462  0.3679  2.2723
14627TIP3   OH265295   0.908   1.301   0.657  0.3480 -0.2509 -0.3890
14627TIP3    H165296   0.854   1.222   0.660  0.9244 -0.6579  2.3446
14627TIP3    H265297   0.852   1.367   0.617 -1.8724 -0.9368  1.3484
14628TIP3   OH265298   2.538   1.305   3.849 -0.1252  0.4215 -0.0625
14628TIP3    H165299   2.496   1.389   3.868  0.6350  0.9870 -0.8051
14628TIP3    H265300   2.488   1.268   3.776 -0.6860  0.0462  0.5035
14629TIP3   OH265301   0.635   5.876  13.620  0.4048 -0.2870 -0.3772
14629TIP3    H165302   0.668   5.966  13.613 -1.5911  0.5328  0.1369
14629TIP3    H265303   0.685   5.838  13.692  0.8787  0.6070 -0.2168
14630TIP3   OH265304   0.323   4.557  13.640 -0.0238  0.0912  0.2105
14630TIP3    H165305   0.396   4.614  13.612  1.8691 -2.4212 -0.3399
14630TIP3    H265306   0.278   4.535  13.558  0.2903 -0.4917  0.1865
14631TIP3   OH265307   3.337   4.350   0.025 -0.1149 -0.6755  0.1521
14631TIP3    H165308   3.385   4.269   0.008 -0.7152 -0.8850 -0.5792
14631TIP3    H265309   3.294   4.335   0.109 -0.3404 -1.1807 -0.0490
14632TIP3   OH265310   0.961   0.204   1.022 -0.7278  0.1780  0.4463
14632TIP3    H165311   0.874   0.230   1.052 -1.6095  1.0618 -2.5774
14632TIP3    H265312   0.946   0.139   0.954  0.9687  0.3884 -0.1859
14633TIP3   OH265313   3.875   3.130   0.835  0.2216  0.2690  0.3908
14633TIP3    H165314   3.898   3.191   0.906 -0.8976 -0.4822  1.4413
14633TIP3    H265315   3.926   3.161   0.760  3.4051 -0.3692  2.1188
14634TIP3   OH265316   1.080   3.209  11.446  0.0719  0.2926  0.1169
14634TIP3    H165317   1.147   3.257  11.397  1.6071 -0.1118  1.7143
14634TIP3    H265318   1.112   3.208  11.536 -2.1264  0.1126  0.9769
14635TIP3   OH265319   0.276   3.284   2.496 -0.4741 -0.3394  0.2596
14635TIP3    H165320   0.220   3.362   2.489  0.0596  0.0790  0.5137
14635TIP3    H265321   0.245   3.226   2.427 -0.7160  0.2110 -0.1027
14636TIP3   OH265322   0.231   6.013  14.040  0.6986  0.1892  0.2986
14636TIP3    H165323   0.279   6.096  14.035  1.3928  0.1523  3.7623
14636TIP3    H265324   0.294   5.952  14.079 -0.2056 -1.7029 -1.0233
14637TIP3   OH265325   1.415   2.622   1.328  0.2716  0.6177  0.1907
14637TIP3    H165326   1.437   2.695   1.386  1.1214  1.1024 -0.7047
14637TIP3    H265327   1.449   2.545   1.372 -0.7906  0.7112  1.2338
14638TIP3   OH265328   3.251   1.858  16.714 -0.5635 -0.9422 -0.4487
14638TIP3    H165329   3.334   1.868  16.666 -1.3198  0.5698 -1.5077
14638TIP3    H265330   3.252   1.767  16.744  1.1865 -1.1443 -0.9960
14639TIP3   OH265331   0.093   5.223   3.022 -1.0655  0.5874 -0.0501
14639TIP3    H165332   0.177   5.241   2.981  0.4203 -0.3153  2.3560
14639TIP3    H265333   0.044   5.173   2.957  0.8402 -0.1258 -0.9963
14640TIP3   OH265334   3.399   1.304   3.358  0.1960  0.5693 -0.0666
14640TIP3    H165335   3.434   1.384   3.319 -0.0251  0.7563  0.1184
14640TIP3    H265336   3.353   1.334   3.437 -0.9833  0.4080 -0.6701
14641TIP3   OH265337   3.763   6.772  15.417 -0.6227  0.4275 -0.0826
14641TIP3    H165338   3.836   6.710  15.420 -1.1783 -0.3789 -1.8381
14641TIP3    H265339   3.702   6.741  15.484 -0.3112 -0.1690 -0.0715
14642TIP3   OH265340   0.070   1.496  15.273 -1.2752 -0.2754  0.5171
14642TIP3    H165341  -0.022   1.520  15.283 -1.2170  0.3500 -0.3016
14642TIP3    H265342   0.073   1.442  15.194 -0.8679  0.1774  0.2143
14643TIP3   OH265343   1.179   4.236  13.446 -0.4742 -0.0627  0.6890
14643TIP3    H165344   1.092   4.215  13.481  0.0926 -0.3545  2.0057
14643TIP3    H265345   1.239   4.207  13.514  0.7407 -1.0398 -0.7427
14644TIP3   OH265346   1.819   4.152  16.216  0.3316 -0.1391  0.0968
14644TIP3    H165347   1.755   4.085  16.242  0.0788 -0.1254 -0.4787
14644TIP3    H265348   1.769   4.233  16.214 -0.1174 -0.4103 -2.1963
14645TIP3   OH265349   3.477   4.064   2.252  0.1480 -0.4127  0.6707
14645TIP3    H165350   3.402   4.008   2.272  0.9610 -0.7922  3.0361
14645TIP3    H265351   3.451   4.151   2.281  0.0361 -0.2163 -0.0179
14646TIP3   OH265352   0.882   2.779   3.490  0.0403  0.0877 -0.5280
14646TIP3    H165353   0.787   2.791   3.498 -0.0064 -0.8972  0.7338
14646TIP3    H265354   0.897   2.687   3.512  1.4358  0.6095  0.9273
14647TIP3   OH265355   2.941   0.999   3.359  0.0050 -0.1432  0.2508
14647TIP3    H165356   2.886   1.077   3.365 -0.2217 -0.2038 -0.8110
14647TIP3    H265357   2.880   0.926   3.372  0.5039 -0.1495  3.1256
14648TIP3   OH265358   0.977   4.533  13.930  0.3850  0.3042  0.3143
14648TIP3    H165359   1.061   4.578  13.940  0.6396 -0.3142  1.1196
14648TIP3    H265360   0.939   4.534  14.018 -0.7001  1.0456 -0.1545
14649TIP3   OH265361   4.396   3.076   2.031  0.3558 -0.1055 -0.2943
14649TIP3    H165362   4.471   3.086   2.090  1.7775  1.3928 -2.2395
14649TIP3    H265363   4.345   3.156   2.042  0.7004  0.2420 -1.1743
14650TIP3   OH265364   5.926   5.986   5.378  0.4131 -0.2914 -0.4872
14650TIP3    H165365   5.996   6.050   5.390 -0.0592 -0.0643  1.3536
14650TIP3    H265366   5.874   6.021   5.305  0.3574  1.2836  0.2528
14651TIP3   OH265367   3.263   2.179  13.769 -0.2338  0.2236 -0.3011
14651TIP3    H165368   3.252   2.097  13.721 -1.2245  0.2619 -0.1606
14651TIP3    H265369   3.175   2.201  13.798  0.1062  1.0787  0.0953
14652TIP3   OH265370   6.547   0.876   5.213  0.1318  0.2197  0.3449
14652TIP3    H165371   6.552   0.970   5.230 -0.4326  0.3496 -0.1524
14652TIP3    H265372   6.530   0.870   5.119 -0.8316 -0.3398  0.5408
14653TIP3   OH265373   0.748   5.304   1.602  0.0936  0.1354  0.1365
14653TIP3    H165374   0.656   5.278   1.594 -0.4768  1.8581  0.7305
14653TIP3    H265375   0.788   5.275   1.520 -1.0306 -0.3795 -0.2534
14654TIP3   OH265376   6.325   5.214   5.111 -0.0047  0.8601  0.4952
14654TIP3    H165377   6.311   5.278   5.042  1.8911  2.0648  1.1532
14654TIP3    H265378   6.345   5.266   5.189  0.1932 -0.5032  1.3986
14655TIP3   OH265379   4.578   4.876  15.992  0.5414 -0.3030  0.6635
14655TIP3    H165380   4.587   4.938  15.920 -0.5746 -2.3026 -1.3195
14655TIP3    H265381   4.651   4.815  15.982 -0.4734 -1.4903  0.2359
14656TIP3   OH265382   4.922   3.641   5.208 -0.0453 -0.3829 -0.0135
14656TIP3    H165383   4.888   3.716   5.159 -1.9213 -2.1741 -1.6043
14656TIP3    H265384   4.996   3.610   5.157  0.7680  0.3671  0.6754
14657TIP3   OH265385   6.557   5.337  16.614 -0.3790  0.1552  0.2569
14657TIP3    H165386   6.592   5.287  16.687  1.5180 -0.1611 -0.8210
14657TIP3    H265387   6.521   5.416  16.655  1.2944  0.3343  1.4817
14658TIP3   OH265388   0.181   4.297  12.589  0.2087  0.0673 -0.2835
14658TIP3    H165389   0.209   4.313  12.680 -0.3095 -1.2659  0.1369
14658TIP3    H265390   0.255   4.252  12.549 -0.0714 -0.5664 -0.1085
14659TIP3   OH265391   4.095   0.305  11.132  0.1875 -0.2126 -0.4382
14659TIP3    H165392   4.190   0.322  11.129  0.3638 -0.2545  2.2886
14659TIP3    H265393   4.088   0.216  11.166 -0.7713  0.7180  2.0272
14660TIP3   OH265394   0.181   6.080  14.410 -0.1991 -0.2387  0.6756
14660TIP3    H165395   0.206   6.070  14.502  0.0598 -1.6124  0.4825
14660TIP3    H265396   0.220   6.164  14.383 -0.8265  0.4955  1.9712
14661TIP3   OH265397   2.556   3.496  16.990  0.4598 -0.1645  0.2008
14661TIP3    H165398   2.599   3.484  17.074 -0.8323 -1.3499  0.7361
14661TIP3    H265399   2.605   3.440  16.930  0.8636  0.0282  0.3454
14662TIP3   OH265400   0.499   1.971  12.805  0.3835  0.5577  0.1317
14662TIP3    H165401   0.484   2.059  12.841 -0.8688  1.0754 -1.5466
14662TIP3    H265402   0.498   1.984  12.710 -0.2695 -1.3481 -0.1503
14663TIP3   OH265403   2.497   3.841   0.706  0.4240 -0.1088 -0.0281
14663TIP3    H165404   2.423   3.878   0.659  0.1691  0.8755  1.0970
14663TIP3    H265405   2.459   3.802   0.785  1.0687  0.2247  0.4610
14664TIP3   OH265406   2.784   5.992  12.769  0.3348 -0.2311 -0.0473
14664TIP3    H165407   2.717   5.966  12.705 -0.0989  1.4099 -0.3162
14664TIP3    H265408   2.867   5.978  12.724  0.0712 -0.0150 -0.6109
14665TIP3   OH265409   6.242   2.246  11.856  0.9503 -0.2824  0.6994
14665TIP3    H165410   6.330   2.242  11.820 -0.2278  0.3636 -2.6001
14665TIP3    H265411   6.204   2.160  11.835  0.4534 -0.1711  1.1319
14666TIP3   OH265412   3.899   1.243   2.580  0.0396  0.0539 -0.2936
14666TIP3    H165413   3.823   1.214   2.631  1.8056 -1.5334  1.6578
14666TIP3    H265414   3.921   1.168   2.525  2.1304 -0.8992  1.6743
14667TIP3   OH265415   3.137   1.884   3.753 -0.4440 -0.1189  0.0430
14667TIP3    H165416   3.203   1.828   3.712  0.7272  0.8020  0.6228
14667TIP3    H265417   3.090   1.827   3.812  0.7719 -0.5017  0.6655
14668TIP3   OH265418   6.307   6.689   4.390  0.2367 -0.3182 -0.4162
14668TIP3    H165419   6.373   6.664   4.454 -1.2106 -1.0183  0.8655
14668TIP3    H265420   6.275   6.774   4.420 -0.1522 -0.4481 -0.4594
14669TIP3   OH265421   0.674   0.980   0.261  0.2892  0.0023  0.6855
14669TIP3    H165422   0.608   0.924   0.301  0.8664 -0.7410  0.6257
14669TIP3    H265423   0.712   1.030   0.334 -0.2424  0.3382  0.7350
14670TIP3   OH265424   5.546   2.296   3.325 -0.0415  0.0539 -0.1579
14670TIP3    H165425   5.519   2.205   3.318  1.0284 -0.3758  1.0088
14670TIP3    H265426   5.577   2.319   3.237  0.5158 -0.9799 -0.2384
14671TIP3   OH265427   2.666   3.347  13.122 -0.1104 -0.0198 -0.0475
14671TIP3    H165428   2.751   3.354  13.080  0.8187  0.8095  1.8620
14671TIP3    H265429   2.659   3.255  13.150  0.4679  0.0667  0.3888
14672TIP3   OH265430   2.687   4.452   6.530 -0.3062 -0.6401  0.0259
14672TIP3    H165431   2.620   4.453   6.599 -0.2560 -0.5888  0.0733
14672TIP3    H265432   2.658   4.382   6.471 -0.5483 -0.4396 -0.0978
14673TIP3   OH265433   2.636   3.144  11.317  0.4234 -0.4709  0.5991
14673TIP3    H165434   2.547   3.121  11.289  0.0720 -0.7582  1.8783
14673TIP3    H265435   2.682   3.165  11.236 -0.4149 -1.6619 -0.2230
14674TIP3   OH265436   3.920   6.729  13.162  0.4796  0.1179  0.4977
14674TIP3    H165437   3.840   6.752  13.208  1.1322  2.5938  0.5368
14674TIP3    H265438   3.899   6.741  13.069  0.5007 -0.3288  0.4311
14675TIP3   OH265439   3.374   5.976  15.446 -0.2481  0.6986  0.1696
14675TIP3    H165440   3.411   6.064  15.436  1.1375  0.1868  0.6065
14675TIP3    H265441   3.326   5.979  15.528  0.6714  0.7767  0.7188
14676TIP3   OH265442   2.824   4.388  13.621  0.1138  0.0705 -0.1474
14676TIP3    H165443   2.841   4.297  13.599 -1.7907 -0.2773 -0.3139
14676TIP3    H265444   2.890   4.409  13.688  0.9487 -1.2309 -0.5239
14677TIP3   OH265445   5.960   2.007  13.533  0.1114 -0.2405 -0.5654
14677TIP3    H165446   5.958   1.913  13.550  1.2262 -0.3129 -0.7688
14677TIP3    H265447   5.868   2.032  13.527 -0.2769 -1.8507 -3.4032
14678TIP3   OH265448   2.621   3.187  12.613 -0.2221  0.5276 -0.0813
14678TIP3    H165449   2.693   3.250  12.618 -0.6522  0.9285  2.8674
14678TIP3    H265450   2.630   3.135  12.693 -2.6033 -0.0930 -0.1473
14679TIP3   OH265451   0.353   1.443  11.236 -0.0641 -0.0643 -0.6884
14679TIP3    H165452   0.291   1.380  11.200  1.5058 -1.2894 -1.4005
14679TIP3    H265453   0.367   1.506  11.165  1.2427 -1.1376 -1.4332
14680TIP3   OH265454   4.418   6.694  15.026 -0.5766 -0.1731 -0.1308
14680TIP3    H165455   4.449   6.770  15.075 -0.8483  0.1217 -0.4196
14680TIP3    H265456   4.335   6.671  15.068 -0.1835 -0.7096  0.3741
14681TIP3   OH265457   3.464   3.785  11.247  0.2524  0.5770 -0.2485
14681TIP3    H165458   3.408   3.850  11.206 -0.6098 -0.5586 -0.9356
14681TIP3    H265459   3.501   3.829  11.323 -1.1533  1.5136 -0.0782
14682TIP3   OH265460   2.562   1.855   3.722 -0.5795 -0.3347 -0.3526
14682TIP3    H165461   2.585   1.945   3.699  0.2480  0.0033  1.6128
14682TIP3    H265462   2.472   1.845   3.690 -1.0075  1.4862  0.1364
14683TIP3   OH265463   2.904   3.982  14.859  0.3194  0.0191  0.1275
14683TIP3    H165464   2.867   3.993  14.947  1.9058  2.0118  0.5930
14683TIP3    H265465   2.860   4.048  14.806  0.2550 -0.3753 -0.3262
14684TIP3   OH265466   2.297   0.084   4.385 -0.1098  0.6225  0.6480
14684TIP3    H165467   2.367   0.067   4.322  1.1511  0.4720  2.0337
14684TIP3    H265468   2.246   0.155   4.345  1.9034  2.0185  0.3845
14685TIP3   OH265469   1.169   3.263   3.741 -0.0565 -0.1561  0.2333
14685TIP3    H165470   1.249   3.213   3.752 -1.2691 -1.9298  1.5261
14685TIP3    H265471   1.159   3.272   3.646  0.2240 -2.4130 -0.0652
14686TIP3   OH265472   2.975   2.406   2.151 -0.2189 -0.0964 -0.5737
14686TIP3    H165473   2.971   2.385   2.245  0.8845  0.7687 -0.3146
14686TIP3    H265474   3.064   2.384   2.125 -0.0931  0.9592 -1.0904
14687TIP3   OH265475   5.931   0.347  14.351 -0.3486 -0.2976 -0.4210
14687TIP3    H165476   5.953   0.290  14.277 -2.3479 -0.8554 -0.6461
14687TIP3    H265477   5.890   0.423  14.311 -1.7012 -0.7321  0.1023
14688TIP3   OH265478   5.891   5.495  15.315  0.2892  0.2718 -0.1937
14688TIP3    H165479   5.804   5.533  15.310  0.5061  0.6895 -1.1336
14688TIP3    H265480   5.918   5.506  15.406  0.3592  2.4432 -0.4284
14689TIP3   OH265481   4.122   3.030   4.818 -0.0058 -0.3671 -0.3687
14689TIP3    H165482   4.073   3.077   4.750  0.3947  0.9603  0.2142
14689TIP3    H265483   4.058   3.010   4.886  0.0714  0.6861  0.0429
14690TIP3   OH265484   5.346   1.632  14.968 -0.1193 -0.6435  0.2525
14690TIP3    H165485   5.303   1.608  15.050  0.3576 -0.1214  0.6649
14690TIP3    H265486   5.357   1.549  14.922 -2.5402 -0.6950 -0.3768
14691TIP3   OH265487   5.780   2.077   3.820 -0.0890 -0.3925  0.3499
14691TIP3    H165488   5.799   2.128   3.898 -0.5074 -0.5563  0.5592
14691TIP3    H265489   5.834   2.117   3.751 -0.3216  0.2556  0.5385
14692TIP3   OH265490   6.237   4.793  17.148 -0.6474 -0.0089  0.3400
14692TIP3    H165491   6.166   4.730  17.133 -0.7364  0.0333  0.5814
14692TIP3    H265492   6.237   4.806  17.243 -1.6303  1.5264  0.1544
14693TIP3   OH265493   2.667   6.559  11.752  0.2122 -0.6000  0.0164
14693TIP3    H165494   2.615   6.481  11.766 -2.6009  0.9394 -1.0896
14693TIP3    H265495   2.689   6.558  11.659  2.1111 -1.1222  0.4219
14694TIP3   OH265496   6.008   2.153   2.861  0.0561  0.3010  0.1897
14694TIP3    H165497   5.981   2.139   2.952 -0.5305 -1.5822 -0.2190
14694TIP3    H265498   5.995   2.246   2.846  1.4486  0.9370  2.4304
14695TIP3   OH265499   0.995   5.367  17.244 -0.2267 -0.1491  0.0642
14695TIP3    H165500   0.981   5.372  17.150 -1.3581 -0.5114  0.1953
14695TIP3    H265501   0.937   5.297  17.273  1.2411 -1.0962  0.8258
14696TIP3   OH265502   1.864   5.767   0.564  0.6922  0.3651 -0.0535
14696TIP3    H165503   1.851   5.764   0.659  2.1827  1.2658  0.2078
14696TIP3    H265504   1.958   5.781   0.553  0.4932  0.6247 -1.6700
14697TIP3   OH265505   2.354   0.586  14.370  0.2411  0.1665  0.0306
14697TIP3    H165506   2.317   0.560  14.454  0.3840  0.2274  0.1113
14697TIP3    H265507   2.441   0.618  14.390  1.2394 -2.0601 -0.3972
14698TIP3   OH265508   3.566   3.078   0.488  0.4997  0.1840 -0.7889
14698TIP3    H165509   3.592   2.996   0.446  0.1391 -1.6810  2.3154
14698TIP3    H265510   3.576   3.062   0.581 -0.9889  3.2149  0.0419
14699TIP3   OH265511   1.314   2.088  16.607 -0.3706 -0.6132  0.4180
14699TIP3    H165512   1.318   2.016  16.670 -0.1376 -1.2057 -0.2512
14699TIP3    H265513   1.403   2.123  16.604 -1.3023  2.7759  4.1286
14700TIP3   OH265514   2.110   6.737  14.818  0.0392  0.2063  0.3091
14700TIP3    H165515   2.136   6.824  14.785 -0.9258  0.2365 -0.4302
14700TIP3    H265516   2.178   6.714  14.881  0.4725  1.3732  0.2958
14701TIP3   OH265517   0.766   6.489   4.331  0.2155  0.2035 -0.7462
14701TIP3    H165518   0.850   6.535   4.340  1.4306 -1.6476 -1.9439
14701TIP3    H265519   0.734   6.516   4.245 -1.1780  1.9754  0.2574
14702TIP3   OH265520   5.462   3.483  13.000 -0.0443 -0.4739 -0.4094
14702TIP3    H165521   5.517   3.472  12.923 -1.0900 -0.9076 -1.1165
14702TIP3    H265522   5.396   3.548  12.973 -0.4346 -0.6455  0.1095
14703TIP3   OH265523   5.910   0.581   0.571  0.8134 -0.2252 -0.2294
14703TIP3    H165524   5.965   0.508   0.544 -0.0288 -0.3729 -1.6485
14703TIP3    H265525   5.908   0.638   0.495 -1.0327 -0.2660 -0.2421
14704TIP3   OH265526   3.183   3.080   3.984  0.4127  0.3396  0.2303
14704TIP3    H165527   3.210   3.075   4.076  0.3387 -0.1893  0.2266
14704TIP3    H265528   3.183   2.989   3.954 -1.9708  0.2323  0.3948
14705TIP3   OH265529   3.603   1.920   0.768  0.7012 -0.2318  0.5259
14705TIP3    H165530   3.634   1.832   0.746 -0.8681 -0.8219  0.5778
14705TIP3    H265531   3.547   1.908   0.845 -0.3456  0.6498 -0.0673
14706TIP3   OH265532   3.328   1.406  11.935 -0.0889 -0.3126  0.2924
14706TIP3    H165533   3.304   1.320  11.900  0.0063  0.2242 -1.1685
14706TIP3    H265534   3.321   1.396  12.030 -0.3003 -1.8634  0.1461
14707TIP3   OH265535   2.657   6.374  16.545  0.5152  0.1608 -0.2952
14707TIP3    H165536   2.715   6.299  16.560 -0.3144 -0.3621  0.4512
14707TIP3    H265537   2.669   6.396  16.453  1.3278 -0.4222 -0.3386
14708TIP3   OH265538   2.301   4.361   0.582  0.2121  0.0528 -0.1738
14708TIP3    H165539   2.316   4.357   0.488  1.3842  0.2617 -0.0012
14708TIP3    H265540   2.317   4.272   0.613  1.1751  0.2783  0.0105
14709TIP3   OH265541   2.196   4.893  14.965  0.4299  0.6538 -0.3656
14709TIP3    H165542   2.268   4.831  14.978  0.5688  0.6583 -1.0846
14709TIP3    H265543   2.186   4.937  15.050  0.3257 -0.3529  0.1539
14710TIP3   OH265544   2.487   0.305   2.293 -0.1758 -0.7536  0.1837
14710TIP3    H165545   2.560   0.291   2.233 -0.7433 -2.0367 -0.2438
14710TIP3    H265546   2.409   0.286   2.240 -0.8930  1.2757  0.4187
14711TIP3   OH265547   4.463   0.000   3.071 -0.2326 -0.4237 -1.0320
14711TIP3    H165548   4.429   0.089   3.082  0.5193 -0.3801  1.5931
14711TIP3    H265549   4.428  -0.029   2.987 -0.9777  2.1248 -1.6860
14712TIP3   OH265550   1.188   2.037  13.875  0.6490 -0.1814  0.2084
14712TIP3    H165551   1.145   1.959  13.842 -0.1818 -0.2023  1.2977
14712TIP3    H265552   1.122   2.106  13.869  1.2140  0.3332 -0.2781
14713TIP3   OH265553   6.246   4.819   1.348 -0.0342  0.1930  0.2792
14713TIP3    H165554   6.325   4.832   1.401 -0.3952 -0.3079  0.9614
14713TIP3    H265555   6.191   4.760   1.401 -0.9173  0.6300 -0.1322
14714TIP3   OH265556   2.378   5.906   0.552 -0.4921 -0.4040  0.5883
14714TIP3    H165557   2.371   5.950   0.468  0.9854  0.9365  1.1208
14714TIP3    H265558   2.439   5.834   0.536 -0.7408 -0.5657  0.3607
14715TIP3   OH265559   1.482   4.983   3.093 -0.3338  0.0944 -0.3683
14715TIP3    H165560   1.524   5.013   3.013  0.1232  0.8707  0.1564
14715TIP3    H265561   1.511   5.044   3.161 -0.8607 -0.4372  0.3579
14716TIP3   OH265562   5.889   5.283  13.046  0.1840 -0.2479 -0.1546
14716TIP3    H165563   5.899   5.245  13.133  1.4303 -1.1460 -0.6549
14716TIP3    H265564   5.794   5.292  13.034  0.0086  1.6340  1.9932
14717TIP3   OH265565   6.368   4.489  15.846  0.2468 -0.5010 -0.0135
14717TIP3    H165566   6.445   4.477  15.790  0.8793 -0.3010  0.7892
14717TIP3    H265567   6.402   4.482  15.935 -0.6547 -0.3024  0.3580
14718TIP3   OH265568   5.051   3.582  11.395 -0.4301  0.2667  0.4644
14718TIP3    H165569   4.956   3.598  11.400 -0.7079 -1.2244  0.3635
14718TIP3    H265570   5.068   3.523  11.469  0.4529  0.6215  0.5489
14719TIP3   OH265571   1.145   0.279   5.619  0.5497  0.4707  0.5369
14719TIP3    H165572   1.107   0.235   5.543 -0.7684  0.6404  1.0699
14719TIP3    H265573   1.222   0.323   5.585 -0.5122  1.2898 -0.9069
14720TIP3   OH265574   1.284   3.452   0.387  0.3113  0.2239 -0.3968
14720TIP3    H165575   1.213   3.500   0.344  0.0982 -1.1447 -1.6708
14720TIP3    H265576   1.362   3.478   0.338  0.7348  1.7679  1.0365
14721TIP3   OH265577   5.051   2.905  14.778 -0.4445  0.9028  0.1402
14721TIP3    H165578   4.972   2.852  14.788 -0.7211  1.1980 -0.4305
14721TIP3    H265579   5.114   2.846  14.736  0.2504  0.1095  2.1743
14722TIP3   OH265580   2.880   1.194   5.532 -0.0032  0.2467  0.2220
14722TIP3    H165581   2.880   1.115   5.479 -0.0652  1.1032 -1.0970
14722TIP3    H265582   2.864   1.163   5.622  3.8458 -1.6579  0.4515
14723TIP3   OH265583   5.677   5.150   2.891  0.0164  0.1435  0.0135
14723TIP3    H165584   5.666   5.239   2.858  1.1724  0.1052 -0.5198
14723TIP3    H265585   5.656   5.156   2.984 -0.3109  0.8859 -0.1029
14724TIP3   OH265586   2.566   1.972  13.662  0.1351 -0.9796 -0.1304
14724TIP3    H165587   2.493   2.012  13.615  1.1423 -0.4674 -1.3293
14724TIP3    H265588   2.571   1.883  13.626  0.7776 -0.6521 -0.9095
14725TIP3   OH265589   1.677   0.101   0.328  0.2237  0.3342  0.3535
14725TIP3    H165590   1.601   0.119   0.383 -0.0039 -1.3386  0.6221
14725TIP3    H265591   1.702   0.187   0.293 -1.1072  1.0641  1.1278
14726TIP3   OH265592   5.855   4.806   0.685  0.1801 -0.6516  0.5226
14726TIP3    H165593   5.919   4.804   0.756 -0.5042 -1.6442  1.1391
14726TIP3    H265594   5.784   4.749   0.715 -2.0054  1.9867  0.8087
14727TIP3   OH265595   0.385   1.805   5.577 -0.4750 -0.0257 -0.0186
14727TIP3    H165596   0.431   1.889   5.568  1.7595 -1.0849  0.7782
14727TIP3    H265597   0.415   1.753   5.502 -0.4447 -0.6980  0.4510
14728TIP3   OH265598   1.954   6.362   3.190  0.2541 -0.2638  0.0517
14728TIP3    H165599   2.041   6.327   3.213  0.2680 -1.3790 -1.5382
14728TIP3    H265600   1.966   6.457   3.189  1.4568 -0.3965 -0.1304
14729TIP3   OH265601   2.539   3.510  12.203  0.1810 -0.1826  0.5009
14729TIP3    H165602   2.609   3.533  12.264 -0.5644  1.7699  0.6975
14729TIP3    H265603   2.459   3.520  12.253 -0.3925  0.5361 -0.5314
14730TIP3   OH265604   1.194   6.499  14.476  0.6992  0.2137 -0.5960
14730TIP3    H165605   1.208   6.543  14.391 -3.7040  0.9879 -1.1459
14730TIP3    H265606   1.157   6.414  14.454 -2.4013  1.1918  0.4164
14731TIP3   OH265607   0.799   1.125   0.004  0.1186 -0.8539  0.4598
14731TIP3    H165608   0.766   1.076   0.079 -1.0743  0.1973  0.6610
14731TIP3    H265609   0.759   1.212   0.014  3.6476  0.8772  1.2613
14732TIP3   OH265610   2.607   1.095   1.714  0.2264  0.2207 -0.2520
14732TIP3    H165611   2.544   1.047   1.660 -1.3285  1.4740  0.3579
14732TIP3    H265612   2.588   1.066   1.804  1.4482 -0.3769 -0.1670
14733TIP3   OH265613   4.595   3.396  10.724 -0.2790  0.5040 -0.5726
14733TIP3    H165614   4.653   3.402  10.799 -0.2510 -2.1535 -0.2799
14733TIP3    H265615   4.645   3.433  10.651  0.8796  0.3679  0.1394
14734TIP3   OH265616   0.278   1.430   2.949  0.1307  0.0042  0.1061
14734TIP3    H165617   0.278   1.490   2.874 -2.9521 -0.4463 -0.4032
14734TIP3    H265618   0.242   1.482   3.021  1.8765  0.0616  0.9898
14735TIP3   OH265619   4.538   5.783  15.567 -0.7318  0.2069  0.8806
14735TIP3    H165620   4.502   5.863  15.603 -0.2343  0.9432 -0.2160
14735TIP3    H265621   4.585   5.810  15.488  1.0856 -0.8941  1.5240
14736TIP3   OH265622   0.212   0.164  15.236 -0.1090 -0.1905 -0.2177
14736TIP3    H165623   0.170   0.091  15.281 -1.5547  1.4654  1.2818
14736TIP3    H265624   0.306   0.152  15.252 -0.4580 -0.6636  1.7041
14737TIP3   OH265625   5.362   2.286   2.558 -0.2823 -0.4146  0.2018
14737TIP3    H165626   5.389   2.327   2.640 -2.0565 -0.3384  0.7950
14737TIP3    H265627   5.397   2.197   2.563 -0.5690 -0.4820  1.1518
14738TIP3   OH265628   1.677   2.817   5.252 -0.1493  0.0973 -0.3675
14738TIP3    H165629   1.721   2.742   5.291  0.8518  1.2048  0.7069
14738TIP3    H265630   1.746   2.867   5.209 -0.3252  1.7691  1.1931
14739TIP3   OH265631   5.020   0.839   4.329  0.2300 -0.0446 -0.2840
14739TIP3    H165632   5.008   0.908   4.264  2.0634  0.2428 -0.3804
14739TIP3    H265633   5.040   0.760   4.278 -0.9227 -0.4526 -0.1376
14740TIP3   OH265634   4.048   1.949  15.119  0.6780 -0.6317 -0.5799
14740TIP3    H165635   4.101   2.020  15.155  0.4652 -0.1180 -1.2763
14740TIP3    H265636   4.028   1.894  15.195  0.1615  0.4918  0.1201
14741TIP3   OH265637   5.067   1.609   3.284 -0.5321 -0.0033 -0.4963
14741TIP3    H165638   5.036   1.596   3.374  0.1639  0.6700 -0.1499
14741TIP3    H265639   4.988   1.629   3.234 -0.7462  1.1698  0.2738
14742TIP3   OH265640   0.067   2.472  11.438 -0.5498 -0.1070  0.1890
14742TIP3    H165641   0.078   2.442  11.347 -1.1559  1.6087 -0.4964
14742TIP3    H265642  -0.026   2.491  11.445 -0.6524 -0.9677  1.4500
14743TIP3   OH265643   0.392   4.222  16.853 -0.8933  0.2604  0.5916
14743TIP3    H165644   0.417   4.179  16.935 -1.8322 -0.6266  0.4381
14743TIP3    H265645   0.376   4.312  16.878  2.2900  0.9208  0.7076
14744TIP3   OH265646   5.584   1.825   3.510 -0.0426 -0.5157 -0.3689
14744TIP3    H165647   5.520   1.769   3.466  0.2593 -0.5822 -0.7286
14744TIP3    H265648   5.538   1.908   3.524 -0.1393 -0.4920 -0.8183
14745TIP3   OH265649   2.380   3.078   2.030 -0.1561 -0.7274  0.6883
14745TIP3    H165650   2.307   3.140   2.033  0.5073  0.0471  1.5392
14745TIP3    H265651   2.433   3.108   1.955  0.0153 -0.4281  0.9258
14746TIP3   OH265652   5.606   1.533   2.343 -0.2632 -0.1723  0.1321
14746TIP3    H165653   5.684   1.536   2.287 -0.4962 -1.5769 -0.3056
14746TIP3    H265654   5.589   1.440   2.354 -2.0316  0.1157  0.0368
14747TIP3   OH265655   3.256   6.615  12.819 -0.0139 -0.4921  0.2673
14747TIP3    H165656   3.298   6.583  12.899 -1.5970 -0.5935  1.1154
14747TIP3    H265657   3.191   6.548  12.798 -0.6579  0.2658 -0.2308
14748TIP3   OH265658   3.175   3.669   1.612  1.1820 -0.3386  0.6185
14748TIP3    H165659   3.239   3.640   1.546 -0.0946 -2.2093  0.1003
14748TIP3    H265660   3.156   3.590   1.663  0.3152  0.5045  1.6473
14749TIP3   OH265661   5.220   3.110   3.486  0.1423 -0.4168 -0.2801
14749TIP3    H165662   5.208   3.123   3.580 -0.1611 -1.4128 -0.1706
14749TIP3    H265663   5.213   3.198   3.448  0.0338 -0.0391  0.5990
14750TIP3   OH265664   6.501   4.481  16.079  0.1093 -0.4305  0.2954
14750TIP3    H165665   6.475   4.454  16.167  0.1905 -0.7007  0.2372
14750TIP3    H265666   6.596   4.470  16.078  0.0798 -0.6815  0.0883
14751TIP3   OH265667   6.753   6.423  16.783 -0.6628 -0.0611  0.2179
14751TIP3    H165668   6.727   6.351  16.840  0.1911 -1.5360 -1.1801
14751TIP3    H265669   6.834   6.393  16.741 -0.1421  1.8180 -0.2280
14752TIP3   OH265670   5.546   2.769  11.726  0.5483 -0.3760 -0.3572
14752TIP3    H165671   5.585   2.806  11.805 -0.6496  0.3602 -0.0869
14752TIP3    H265672   5.541   2.842  11.665  0.2371 -0.6217 -0.6336
14753TIP3   OH265673   1.828   6.361   5.570 -0.3856 -0.6314 -0.2135
14753TIP3    H165674   1.812   6.455   5.577 -0.8945 -0.8103  1.1487
14753TIP3    H265675   1.922   6.352   5.586 -0.1535 -0.2946 -1.2411
14754TIP3   OH265676   4.572   4.454   4.716 -0.1644 -0.1048  0.5655
14754TIP3    H165677   4.615   4.396   4.779 -0.7575 -0.5902  0.5412
14754TIP3    H265678   4.642   4.484   4.659  0.0428 -1.5651 -0.0038
14755TIP3   OH265679   4.488   6.682  15.410 -0.3775  0.8468 -0.1058
14755TIP3    H165680   4.579   6.694  15.438 -0.8809 -0.0519  2.1263
14755TIP3    H265681   4.444   6.763  15.436 -0.4725  0.7804 -0.0587
14756TIP3   OH265682   3.142   5.531   3.772  0.5711  0.1708  0.0752
14756TIP3    H165683   3.131   5.556   3.864  0.7008 -0.2107  0.1986
14756TIP3    H265684   3.171   5.611   3.728  0.0361  0.4796  0.2749
14757TIP3   OH265685   0.329   4.221  14.822 -0.1819 -0.1427  0.0163
14757TIP3    H165686   0.390   4.292  14.801 -1.2036  0.6945 -0.2350
14757TIP3    H265687   0.253   4.265  14.858 -0.5589 -1.1864  0.5443
14758TIP3   OH265688   2.544   2.863   4.329 -0.2422 -0.1472  0.2382
14758TIP3    H165689   2.577   2.947   4.362 -1.8134  0.7056 -0.2767
14758TIP3    H265690   2.621   2.822   4.288  1.0909  0.0075  2.4036
14759TIP3   OH265691   4.925   5.683   5.255  0.1423  0.4569 -0.1678
14759TIP3    H165692   4.953   5.693   5.164 -0.7167 -0.9099 -0.6105
14759TIP3    H265693   4.949   5.766   5.296  2.3413  0.3810 -1.1509
14760TIP3   OH265694   6.349   2.689  16.927 -0.2984  0.4595  0.2980
14760TIP3    H165695   6.265   2.735  16.924 -0.7922 -0.5091 -1.3233
14760TIP3    H265696   6.414   2.759  16.931 -1.1412  1.2241  1.2885
14761TIP3   OH265697   6.669   6.721   5.453  0.0585  0.6792 -0.2229
14761TIP3    H165698   6.658   6.799   5.508 -0.3101  0.2301  0.3588
14761TIP3    H265699   6.604   6.659   5.487 -1.4585  1.0253 -2.3549
14762TIP3   OH265700   0.511   1.453  11.465  0.4331 -0.4417 -0.0398
14762TIP3    H165701   0.440   1.436  11.403 -2.6024  0.0265  3.0276
14762TIP3    H265702   0.550   1.367  11.482 -1.9008 -1.3795  0.9172
14763TIP3   OH265703   6.370   4.352   6.070  0.8368  1.0372 -0.0430
14763TIP3    H165704   6.301   4.406   6.107  0.4486  0.7458 -0.3315
14763TIP3    H265705   6.352   4.264   6.102  2.5004  1.3296  1.9248
14764TIP3   OH265706   0.838   1.073  16.575  0.3854 -0.0974 -0.3523
14764TIP3    H165707   0.758   1.066  16.522 -0.8558  0.6236  1.3221
14764TIP3    H265708   0.898   1.123  16.520 -0.6647  0.1969 -1.2834
14765TIP3   OH265709   0.402   5.062  17.215 -0.0983  0.6065  0.3868
14765TIP3    H165710   0.365   4.975  17.225  0.8482 -0.0324 -1.2576
14765TIP3    H265711   0.493   5.047  17.190 -0.1358  2.0322 -0.7496
14766TIP3   OH265712   3.436   5.123  16.022 -0.3754 -0.4899  0.1984
14766TIP3    H165713   3.429   5.062  16.095 -1.2022 -1.9029 -1.0010
14766TIP3    H265714   3.517   5.098  15.977 -0.0267  0.1720  0.4484
14767TIP3   OH265715   0.461   2.452   3.463  0.1562  0.4336 -0.3590
14767TIP3    H165716   0.417   2.485   3.385 -0.6904 -1.4181 -0.7093
14767TIP3    H265717   0.459   2.357   3.454 -0.0338  0.1587  1.9603
14768TIP3   OH265718   1.168   6.574   0.758 -0.2373  0.2952 -0.1253
14768TIP3    H165719   1.256   6.590   0.791  0.2565 -1.2212 -0.6223
14768TIP3    H265720   1.119   6.542   0.834  0.0963 -0.4263 -0.2127
14769TIP3   OH265721   4.184   2.792  14.476  1.0014  0.2610  0.0117
14769TIP3    H165722   4.272   2.800  14.511  0.6215  1.9653  0.6790
14769TIP3    H265723   4.169   2.874  14.429 -0.3897  0.2184  0.3189
14770TIP3   OH265724   1.741   6.116  17.289  0.3436  0.3213 -0.0079
14770TIP3    H165725   1.783   6.088  17.370 -1.0573  0.1826  0.6978
14770TIP3    H265726   1.715   6.035  17.245  1.0656  0.3968 -0.5882
14771TIP3   OH265727   0.349   0.988  13.225  0.1729 -0.2694  0.2371
14771TIP3    H165728   0.266   0.953  13.256  0.2630 -0.6097  0.1026
14771TIP3    H265729   0.387   1.031  13.302 -0.8716  1.3490 -0.1192
14772TIP3   OH265730   6.010   4.010  15.547 -0.0421  0.3109 -0.1503
14772TIP3    H165731   5.928   4.060  15.538 -1.3177 -1.8849 -1.8516
14772TIP3    H265732   6.034   4.021  15.638 -1.2290  2.5038 -0.0226
14773TIP3   OH265733   6.355   6.430  12.203  0.3519 -0.2172  0.5014
14773TIP3    H165734   6.414   6.374  12.153 -1.0581 -1.1928 -0.1103
14773TIP3    H265735   6.376   6.519  12.174  0.7585 -0.6379 -0.5216
14774TIP3   OH265736   6.412   1.614  16.129  0.3534 -0.1911 -0.0778
14774TIP3    H165737   6.375   1.558  16.060 -1.0069 -2.3155  2.1807
14774TIP3    H265738   6.483   1.561  16.167  2.3785  1.7342 -1.0099
14775TIP3   OH265739   2.668   6.709  17.221  0.1883 -0.2652  0.4795
14775TIP3    H165740   2.617   6.695  17.301 -2.4290  0.5200 -0.9036
14775TIP3    H265741   2.655   6.801  17.201  0.5310 -0.5129 -0.9938
14776TIP3   OH265742   1.002   3.517  12.020 -0.3119  0.1983 -0.0816
14776TIP3    H165743   1.036   3.428  12.026  0.4192  0.5056  0.6597
14776TIP3    H265744   1.028   3.547  11.933 -0.4904 -0.2779 -0.3029
14777TIP3   OH265745   3.299   1.863   0.343  0.3817 -0.1487  0.0789
14777TIP3    H165746   3.215   1.908   0.358  0.4077  0.3640 -1.1956
14777TIP3    H265747   3.349   1.924   0.289  0.8875 -1.2033 -0.6676
14778TIP3   OH265748   0.054   2.137   0.031 -0.0440 -0.5314  0.2062
14778TIP3    H165749  -0.022   2.103  -0.016  0.2417 -0.1113 -0.5798
14778TIP3    H265750   0.039   2.231   0.035  1.2105 -0.2075 -1.4558
14779TIP3   OH265751   0.303   5.167  13.347 -0.5324  0.4705 -0.0263
14779TIP3    H165752   0.286   5.076  13.369 -0.3203  0.4635  0.1166
14779TIP3    H265753   0.352   5.163  13.264  0.3775  0.3999  0.4947
14780TIP3   OH265754   0.221   1.186   4.589 -0.5484 -0.5167 -0.4367
14780TIP3    H165755   0.312   1.158   4.584 -0.3668 -0.6758  2.2659
14780TIP3    H265756   0.172   1.104   4.601 -0.9852 -0.3824 -1.2822
14781TIP3   OH265757   6.529   4.057   4.297  0.1658  0.9031  0.2439
14781TIP3    H165758   6.481   4.045   4.214 -0.5043  0.9268  0.6187
14781TIP3    H265759   6.468   4.026   4.364  1.4791 -1.1216  0.5873
14782TIP3   OH265760   5.116   2.037  15.383  0.1565  0.1257 -0.1996
14782TIP3    H165761   5.183   2.094  15.346 -2.4784  3.0582 -0.8458
14782TIP3    H265762   5.098   2.074  15.469 -1.1044 -0.1486 -0.3298
14783TIP3   OH265763   3.880   3.072  15.162 -0.6047  0.7826  0.6725
14783TIP3    H165764   3.933   3.010  15.212 -0.7055  0.9090  0.9372
14783TIP3    H265765   3.854   3.023  15.083  1.2979  1.2423 -0.3137
14784TIP3   OH265766   3.541   4.046   0.589  0.2658 -0.0979  0.1783
14784TIP3    H165767   3.478   4.010   0.527  0.7586  0.0041 -0.3855
14784TIP3    H265768   3.505   4.132   0.613 -2.5632 -1.9907  3.8803
14785TIP3   OH265769   0.746   1.263   5.433  0.4463 -0.1104 -0.4915
14785TIP3    H165770   0.670   1.292   5.484 -1.2490  0.2739 -3.0524
14785TIP3    H265771   0.810   1.334   5.443 -0.1989  0.3742  0.3391
14786TIP3   OH265772   3.755   0.916  17.107  0.6266 -0.3609  0.2390
14786TIP3    H165773   3.757   0.924  17.203 -2.2543 -1.3301  0.4686
14786TIP3    H265774   3.730   0.825  17.091  0.3778 -0.0207 -1.4071
14787TIP3   OH265775   1.862   6.037  13.115 -0.0333 -0.4886  0.3035
14787TIP3    H165776   1.792   5.973  13.130 -1.3590  0.9345  0.4135
14787TIP3    H265777   1.823   6.103  13.057  1.4267  0.0317 -0.1406
14788TIP3   OH265778   2.190   1.475  13.591 -0.0081  0.0628 -0.2497
14788TIP3    H165779   2.117   1.415  13.579 -1.2579  1.5751 -0.5404
14788TIP3    H265780   2.152   1.553  13.631  1.2099  1.3301 -1.4003
14789TIP3   OH265781   4.779   4.955   0.991  0.4036 -0.4879  1.0130
14789TIP3    H165782   4.874   4.954   1.000  0.5123 -0.8705 -0.0178
14789TIP3    H265783   4.760   4.883   0.931 -0.5132 -0.2381  0.9914
14790TIP3   OH265784   0.532   3.420  14.390  0.0223  0.2325  0.4168
14790TIP3    H165785   0.560   3.375  14.310 -3.3907  0.3963 -1.0744
14790TIP3    H265786   0.511   3.509  14.361  1.5726  1.2519  2.2072
14791TIP3   OH265787   3.162   5.943   6.392  0.8100  0.0391  0.2000
14791TIP3    H165788   3.153   5.848   6.403 -2.1529  0.1888  0.0537
14791TIP3    H265789   3.186   5.975   6.479  0.5721 -0.7457  0.5651
14792TIP3   OH265790   5.484   0.400  15.095 -0.3125  0.0633  0.3987
14792TIP3    H165791   5.469   0.306  15.087 -1.0483  0.2400 -0.4094
14792TIP3    H265792   5.562   0.417  15.042 -0.9390  0.0943 -0.5415
14793TIP3   OH265793   3.725   4.510  12.683  0.1162 -0.0165 -0.2006
14793TIP3    H165794   3.760   4.544  12.765 -2.3708  1.4675  0.3323
14793TIP3    H265795   3.709   4.417  12.701  0.3733  0.1051  0.6981
14794TIP3   OH265796   4.142   2.780  16.335 -0.0217 -0.1338  0.2237
14794TIP3    H165797   4.165   2.776  16.427 -0.3206 -2.7343  0.2670
14794TIP3    H265798   4.185   2.704  16.296 -2.4217 -0.9292 -1.1146
14795TIP3   OH265799   4.357   2.628   3.858 -0.1957 -0.4613  0.4581
14795TIP3    H165800   4.345   2.709   3.808  1.7971 -1.7278 -2.3026
14795TIP3    H265801   4.445   2.636   3.896  1.1345 -2.2552 -1.9778
14796TIP3   OH265802   2.696   5.711  13.340 -0.3578 -0.1597 -0.1628
14796TIP3    H165803   2.604   5.688  13.329 -0.4301 -0.5886  1.1697
14796TIP3    H265804   2.703   5.799  13.302 -0.9726 -0.7187 -1.6241
14797TIP3   OH265805   4.290   4.578  14.015 -0.4131 -0.0762 -0.1845
14797TIP3    H165806   4.229   4.625  13.959 -0.0983 -0.8966 -1.2487
14797TIP3    H265807   4.375   4.591  13.975 -0.1208 -0.3347  0.3369
14798TIP3   OH265808   2.145   3.145  15.735  0.4302 -0.9457 -0.2084
14798TIP3    H165809   2.116   3.227  15.695 -0.5996 -0.8552  0.6809
14798TIP3    H265810   2.068   3.088  15.731  1.1938 -1.9655 -1.0102
14799TIP3   OH265811   6.738   1.881   4.204  0.0238  0.2904 -0.4329
14799TIP3    H165812   6.825   1.855   4.175  0.2647 -0.0596  0.5652
14799TIP3    H265813   6.696   1.799   4.229  0.1166  0.6570  0.9571
14800TIP3   OH265814   2.196   0.425   1.120 -0.8944 -0.6284  0.4424
14800TIP3    H165815   2.256   0.410   1.047 -0.1210 -0.3880  1.0193
14800TIP3    H265816   2.136   0.351   1.117  0.8735 -2.1733  1.2632
14801TIP3   OH265817   3.135   1.737   1.286  0.1406  0.1716  0.1514
14801TIP3    H165818   3.215   1.719   1.237  0.0727  0.9308 -0.2521
14801TIP3    H265819   3.081   1.659   1.273 -0.1309  0.5977 -1.4869
14802TIP3   OH265820   5.432   4.742   4.202 -0.1166 -0.0783  0.2722
14802TIP3    H165821   5.452   4.656   4.238 -1.2783 -1.0125 -1.2076
14802TIP3    H265822   5.516   4.773   4.168  0.3738 -0.4668  1.0719
14803TIP3   OH265823   1.569   6.516   4.636  0.2207  0.1065 -0.1298
14803TIP3    H165824   1.601   6.429   4.656 -0.4436 -0.1394 -0.1092
14803TIP3    H265825   1.515   6.505   4.557 -3.4779 -0.3582  2.2063
14804TIP3   OH265826   0.616   2.906   3.562  0.1301  0.4387  0.9160
14804TIP3    H165827   0.525   2.932   3.567  0.1289  0.5665  0.2137
14804TIP3    H265828   0.642   2.893   3.654 -1.5519 -2.9605  1.0678
14805TIP3   OH265829   4.830   5.979  12.539 -0.2088  0.6593 -0.2123
14805TIP3    H165830   4.879   5.901  12.511 -1.6266 -0.4495  0.2632
14805TIP3    H265831   4.789   5.953  12.621 -1.6057  1.5309 -0.6026
14806TIP3   OH265832   4.493   0.282   2.575  0.3698  0.3752 -0.1258
14806TIP3    H165833   4.487   0.311   2.666  0.6812 -1.2085  0.4394
14806TIP3    H265834   4.570   0.327   2.540 -0.1825  1.5720  0.1426
14807TIP3   OH265835   1.175   3.572  14.347 -0.5663  0.2517  0.3788
14807TIP3    H165836   1.120   3.612  14.414  0.9969 -1.8374  3.0703
14807TIP3    H265837   1.264   3.584  14.379  0.3063 -0.1704 -1.7486
14808TIP3   OH265838   5.090   5.436   3.431 -0.1375 -0.1777 -0.2340
14808TIP3    H165839   5.181   5.463   3.439  0.1273 -0.8979 -0.6639
14808TIP3    H265840   5.048   5.466   3.511  1.1542 -2.4165  1.3901
14809TIP3   OH265841   3.648   4.631   1.502  0.4663  0.4144 -0.0263
14809TIP3    H165842   3.689   4.691   1.564 -0.7798  0.5160  0.7424
14809TIP3    H265843   3.688   4.651   1.418  2.7472 -0.2340  0.8401
14810TIP3   OH265844   5.612   5.248   0.435  0.3884 -0.3715  0.1923
14810TIP3    H165845   5.534   5.199   0.405  0.6062 -1.2598  1.0208
14810TIP3    H265846   5.577   5.312   0.498 -0.0602  1.4434 -1.7852
14811TIP3   OH265847   4.148   2.639   3.335  0.0791  0.5674 -0.2785
14811TIP3    H165848   4.056   2.616   3.323 -0.0367  1.5235 -1.3990
14811TIP3    H265849   4.194   2.554   3.337 -0.6444  0.1220 -1.4428
14812TIP3   OH265850   3.012   0.123   0.943  0.0284  0.2639 -0.1236
14812TIP3    H165851   3.048   0.200   0.900 -0.9365  0.8073  0.0019
14812TIP3    H265852   3.076   0.054   0.926  0.0458  0.6424 -1.7928
14813TIP3   OH265853   4.366   1.043  15.945 -0.3625 -0.6671 -0.5886
14813TIP3    H165854   4.309   1.004  15.879 -0.9113  0.2623 -0.6786
14813TIP3    H265855   4.425   1.100  15.896 -0.8260  0.0899 -0.2724
14814TIP3   OH265856   2.007   6.431  16.316 -0.2333  0.3134  0.7761
14814TIP3    H165857   1.935   6.372  16.340 -0.6223  0.3050 -0.3536
14814TIP3    H265858   1.977   6.517  16.344 -0.2825  0.1801  1.1429
14815TIP3   OH265859   6.684   4.925   4.546 -0.1898 -0.4278 -0.9102
14815TIP3    H165860   6.775   4.903   4.528  0.1197  1.0286 -1.2686
14815TIP3    H265861   6.634   4.885   4.475 -0.1572 -3.2920  0.5640
14816TIP3   OH265862   2.582   5.505  11.626  0.4546 -0.0794 -0.1399
14816TIP3    H165863   2.562   5.482  11.535 -0.8219 -0.8822  0.3231
14816TIP3    H265864   2.592   5.600  11.625  1.4346 -0.1799 -1.2926
14817TIP3   OH265865   2.037   4.681   5.514 -0.3304 -0.2341 -0.2500
14817TIP3    H165866   2.021   4.757   5.570 -2.1446  1.4178 -2.8009
14817TIP3    H265867   2.126   4.694   5.481 -0.4415  0.5028 -0.2645
14818TIP3   OH265868   5.656   5.840  13.524  0.1208  0.5045 -0.2600
14818TIP3    H165869   5.748   5.850  13.548  0.4988  0.3950 -1.5638
14818TIP3    H265870   5.632   5.753  13.556  0.6684  0.2700 -0.4703
14819TIP3   OH265871   1.945   3.185   2.249  0.3334 -0.7587 -0.3509
14819TIP3    H165872   1.968   3.276   2.229 -0.2453 -0.7530 -1.0190
14819TIP3    H265873   1.992   3.166   2.330 -1.7287  1.0342  1.4004
14820TIP3   OH265874   2.123   2.731  11.170 -0.3491 -0.3096 -0.3148
14820TIP3    H165875   2.044   2.739  11.223  0.4961  0.6596  0.8475
14820TIP3    H265876   2.151   2.822  11.155 -0.4294 -0.5627 -2.2471
14821TIP3   OH265877   1.325   5.241  11.016 -0.1860 -0.4388  0.2711
14821TIP3    H165878   1.378   5.188  10.956  1.4791  0.8106  0.5656
14821TIP3    H265879   1.388   5.281  11.075 -1.0292  3.4190 -1.1006
14822TIP3   OH265880   2.969   4.277   6.244  0.6024  1.0966  0.1513
14822TIP3    H165881   3.030   4.337   6.287  0.8601  0.3248  0.8951
14822TIP3    H265882   2.939   4.220   6.315 -0.8196  1.3215 -0.2513
14823TIP3   OH265883   3.522   5.922  13.204  0.0038 -0.4250  0.2442
14823TIP3    H165884   3.504   5.998  13.260  0.4970 -1.3731  1.7447
14823TIP3    H265885   3.590   5.952  13.144 -0.2686  0.5162  0.3881
14824TIP3   OH265886   2.486   5.901  14.915  0.1535  0.5688  0.3053
14824TIP3    H165887   2.449   5.872  14.832  2.2858  0.1053 -0.5522
14824TIP3    H265888   2.494   5.996  14.906 -0.0659  0.5732  0.1668
14825TIP3   OH265889   3.487   4.833   6.399 -0.2925  0.3472 -0.7319
14825TIP3    H165890   3.425   4.905   6.414 -0.7548  0.3863 -2.6047
14825TIP3    H265891   3.432   4.755   6.389  0.1373 -0.0714  0.0855
14826TIP3   OH265892   3.131   2.518   4.259  0.4763 -0.2001  0.0177
14826TIP3    H165893   3.136   2.543   4.166  1.7042  1.3729  0.4613
14826TIP3    H265894   3.165   2.593   4.306  2.7696 -2.0633  1.5874
14827TIP3   OH265895   5.335   6.140   6.113  0.4526 -0.0747 -0.1110
14827TIP3    H165896   5.279   6.076   6.157 -1.6268  1.2571 -0.6356
14827TIP3    H265897   5.376   6.189   6.185  0.4383 -0.6379  0.2933
14828TIP3   OH265898   3.292   2.911  14.210  0.4689 -0.2160  0.3858
14828TIP3    H165899   3.372   2.965  14.214 -0.9562  1.9910  0.9933
14828TIP3    H265900   3.276   2.900  14.116  1.5916 -0.9396  0.2463
14829TIP3   OH265901   4.665   2.062  15.307  0.0995  0.0060 -0.1882
14829TIP3    H165902   4.722   1.985  15.314 -0.5902 -0.3669  2.8375
14829TIP3    H265903   4.614   2.047  15.228  0.7623 -2.1039 -0.2795
14830TIP3   OH265904   5.022   5.240   4.152  0.3012 -0.6918 -0.0469
14830TIP3    H165905   5.107   5.254   4.194  0.6147  0.5794 -1.0020
14830TIP3    H265906   4.981   5.170   4.202  1.8118 -1.1666  0.5927
14831TIP3   OH265907   1.499   4.590   4.925  0.4994 -0.4169  0.8188
14831TIP3    H165908   1.500   4.679   4.962  0.2402 -0.6557  1.4102
14831TIP3    H265909   1.592   4.567   4.916  0.5877  0.3145 -0.3306
14832TIP3   OH265910   1.213   6.305  13.145  0.0420 -0.1617  0.5369
14832TIP3    H165911   1.268   6.342  13.075  0.4204  0.7118  1.2738
14832TIP3    H265912   1.212   6.211  13.127 -1.3803  0.2234 -1.7056
14833TIP3   OH265913   1.952   6.194  17.109 -0.2634 -0.3064 -0.2912
14833TIP3    H165914   1.878   6.221  17.164  0.8491  0.8790  0.6624
14833TIP3    H265915   1.912   6.135  17.044 -1.9933  0.0717  0.3613
14834TIP3   OH265916   0.935   0.954   1.477  0.1561  0.3493 -0.1441
14834TIP3    H165917   0.931   0.870   1.431 -0.6796  1.4323 -2.1834
14834TIP3    H265918   1.019   0.952   1.522  0.3950 -1.3481 -0.5688
14835TIP3   OH265919   2.241   4.092   1.799 -0.2280 -0.0953 -0.3715
14835TIP3    H165920   2.255   4.135   1.714  1.4082 -2.3064 -1.3175
14835TIP3    H265921   2.257   4.161   1.863  1.3627  0.9754 -1.8224
14836TIP3   OH265922   4.633   0.270  17.323 -0.0696 -0.6359 -0.8414
14836TIP3    H165923   4.657   0.201  17.262  1.3695 -1.0461  0.1227
14836TIP3    H265924   4.638   0.228  17.409  0.3033  0.5089 -0.2838
14837TIP3   OH265925   4.155   0.072  11.347  0.1816  0.2422  0.0793
14837TIP3    H165926   4.099   0.120  11.410 -0.5616  1.6084 -1.5479
14837TIP3    H265927   4.225   0.036  11.401 -3.1680 -3.2890  2.6438
14838TIP3   OH265928   0.523   1.159  14.057 -0.1854 -0.0715 -0.1377
14838TIP3    H165929   0.528   1.064  14.071 -0.5489 -0.0528  0.1454
14838TIP3    H265930   0.613   1.189  14.068 -0.2847 -0.1997  1.1954
14839TIP3   OH265931   1.896   6.586   6.527 -0.0430  0.2052 -0.5824
14839TIP3    H165932   1.962   6.595   6.458 -0.1957 -0.3852 -0.8115
14839TIP3    H265933   1.924   6.510   6.577  0.5289  1.1120  0.5395
14840TIP3   OH265934   5.723   0.749  12.180  0.0366 -0.1946 -0.2122
14840TIP3    H165935   5.812   0.784  12.186  0.7936 -2.0947  0.5685
14840TIP3    H265936   5.718   0.710  12.092  0.0143 -0.1751 -0.2193
14841TIP3   OH265937   4.265   3.511  11.312 -0.0372 -0.2464  0.2405
14841TIP3    H165938   4.196   3.467  11.361 -0.4148 -0.1368 -0.1793
14841TIP3    H265939   4.335   3.446  11.303 -0.5771 -0.7569 -0.3528
14842TIP3   OH265940   0.104   4.633   0.423 -0.3940  0.5213 -0.1215
14842TIP3    H165941   0.143   4.718   0.403 -1.2343  0.6889 -1.1186
14842TIP3    H265942   0.062   4.606   0.341 -2.4657  0.4072  0.9224
14843TIP3   OH265943   0.191   2.487  13.937  0.0106  0.6470  0.1360
14843TIP3    H165944   0.280   2.497  13.971  0.3910  0.1946 -0.6988
14843TIP3    H265945   0.194   2.523  13.849 -0.9421  1.7208  0.5186
14844TIP3   OH265946   4.257   1.877   2.330  0.1627  0.0655 -0.3170
14844TIP3    H165947   4.294   1.794   2.358  0.4855  0.1591 -0.4534
14844TIP3    H265948   4.272   1.879   2.235 -0.6403 -0.1113 -0.4524
14845TIP3   OH265949   4.016   2.635   5.453 -0.2353 -0.1779 -0.0103
14845TIP3    H165950   3.951   2.670   5.393  1.4937 -1.1888 -2.6389
14845TIP3    H265951   3.965   2.584   5.516 -2.0205 -1.1121 -2.0867
14846TIP3   OH265952   5.520   1.081   4.692  0.0467 -0.0894 -0.1483
14846TIP3    H165953   5.583   1.061   4.761 -0.3434 -0.4438  0.1117
14846TIP3    H265954   5.487   0.995   4.665 -1.1646  0.1368  0.5128
14847TIP3   OH265955   5.345   3.251  13.996 -0.5107 -0.2639 -0.0130
14847TIP3    H165956   5.403   3.298  13.937 -0.5466 -0.3628 -0.1270
14847TIP3    H265957   5.272   3.311  14.010 -0.0836  0.1126  0.6265
14848TIP3   OH265958   1.039   3.483   6.198 -0.2016 -0.3703  0.0860
14848TIP3    H165959   1.007   3.563   6.157 -0.5497 -0.5090  0.0885
14848TIP3    H265960   1.016   3.413   6.136  1.1823 -0.3392 -0.5032
14849TIP3   OH265961   4.873   0.336   0.169 -0.1915  0.8061  0.4388
14849TIP3    H165962   4.801   0.344   0.232 -1.8790 -3.2592 -0.6578
14849TIP3    H265963   4.938   0.283   0.213 -0.2446  0.0828 -0.3256
14850TIP3   OH265964   4.288   0.116  12.936 -0.3131  0.1123  0.4044
14850TIP3    H165965   4.272   0.208  12.917  0.6868  0.4620  1.1773
14850TIP3    H265966   4.257   0.105  13.026  0.7453  0.0139  0.7649
14851TIP3   OH265967   4.386   2.593  15.715  0.2946  0.6704  0.4017
14851TIP3    H165968   4.476   2.609  15.742  0.0003  1.5826  0.8604
14851TIP3    H265969   4.379   2.497  15.710  1.6376  0.6034 -0.8681
14852TIP3   OH265970   4.560   0.387  12.876  0.6550  0.4058 -0.3651
14852TIP3    H165971   4.575   0.292  12.883 -0.2333  0.3045  0.3180
14852TIP3    H265972   4.465   0.396  12.878  0.7425  1.3331 -0.2399
14853TIP3   OH265973   4.279   5.278  13.900 -0.0029 -0.2375  0.5046
14853TIP3    H165974   4.217   5.337  13.858  0.0667 -0.8884 -0.5584
14853TIP3    H265975   4.362   5.295  13.853 -0.2562 -2.0069 -0.6703
14854TIP3   OH265976   1.647   6.311  16.737 -0.0366 -0.2203 -0.0979
14854TIP3    H165977   1.627   6.306  16.831 -0.7220 -1.4385 -0.2780
14854TIP3    H265978   1.712   6.381  16.729 -1.1499  0.9868  1.0779
14855TIP3   OH265979   2.336   2.604   2.562  0.2426 -0.1612  0.5353
14855TIP3    H165980   2.335   2.553   2.644  1.8493 -0.3569  0.4522
14855TIP3    H265981   2.413   2.573   2.515 -0.2553  0.4741 -0.7392
14856TIP3   OH265982   3.780   1.156  12.843  0.1113 -0.6284  0.1933
14856TIP3    H165983   3.818   1.195  12.764 -0.9053 -0.5907 -0.2889
14856TIP3    H265984   3.843   1.088  12.869  0.4098 -0.7041 -0.6961
14857TIP3   OH265985   6.119   5.808   3.829 -0.0265 -0.0286  0.5887
14857TIP3    H165986   6.032   5.849   3.830  1.2518  3.1723 -1.6692
14857TIP3    H265987   6.141   5.797   3.921 -1.9801  1.0752  1.2509
14858TIP3   OH265988   5.535   5.288  11.328  0.3934  0.3264 -0.5035
14858TIP3    H165989   5.522   5.383  11.338  0.8194  0.3691 -0.3403
14858TIP3    H265990   5.449   5.251  11.347 -0.2767  0.7954 -2.4507
14859TIP3   OH265991   1.280   0.958   1.836  0.6810  0.2410  0.3067
14859TIP3    H165992   1.359   1.002   1.868  0.5614  0.5711  0.1515
14859TIP3    H265993   1.308   0.918   1.754  0.7929  0.0183  0.4532
14860TIP3   OH265994   2.013   2.710   6.376  0.8996  0.2455 -0.1116
14860TIP3    H165995   2.075   2.732   6.446  0.1752  2.2613 -0.0510
14860TIP3    H265996   2.046   2.756   6.299 -0.4561  1.3059 -0.0879
14861TIP3   OH265997   1.264   3.474   2.308  0.1900 -0.5421 -0.4704
14861TIP3    H165998   1.241   3.418   2.234 -0.7247  0.4071 -0.9178
14861TIP3    H265999   1.255   3.417   2.385  0.1952 -1.2580 -0.9904
14862TIP3   OH266000   3.967   1.222   3.094  0.1113 -0.0967 -0.0994
14862TIP3    H166001   3.930   1.148   3.046 -0.4636  1.1250 -1.6221
14862TIP3    H266002   4.030   1.261   3.034 -0.0256  0.9835  0.4363
14863TIP3   OH266003   1.059   0.379   0.142  0.4611  0.4557  0.1298
14863TIP3    H166004   1.083   0.351   0.054  3.0527 -1.8219  1.4100
14863TIP3    H266005   1.089   0.469   0.148  0.9166  0.4028 -1.1007
14864TIP3   OH266006   1.534   3.797  16.710 -0.3185  0.2006  0.1749
14864TIP3    H166007   1.610   3.779  16.765 -0.5385 -2.0629 -0.1519
14864TIP3    H266008   1.459   3.772  16.764 -0.6160 -0.6519 -0.5995
14865TIP3   OH266009   4.164   5.483   0.336  0.7688  0.4071  0.3630
14865TIP3    H166010   4.194   5.444   0.254 -0.2373 -0.4013  0.3514
14865TIP3    H266011   4.230   5.458   0.400 -0.0697 -1.8072  0.4597
14866TIP3   OH266012   1.602   2.560   4.650 -0.4462  0.2707 -0.2018
14866TIP3    H166013   1.587   2.564   4.555 -1.3170  1.0733 -0.0421
14866TIP3    H266014   1.677   2.501   4.660 -0.5467 -0.0727 -1.3685
14867TIP3   OH266015   5.128   0.564   5.403 -0.2557  0.0176 -0.3626
14867TIP3    H166016   5.144   0.523   5.488 -2.8591  2.0614  1.2432
14867TIP3    H266017   5.094   0.492   5.349  1.4692 -1.3212  0.2262
14868TIP3   OH266018   5.454   0.342   3.798  0.7191  0.4850  0.1385
14868TIP3    H166019   5.397   0.408   3.839 -1.7431 -1.4305  0.0327
14868TIP3    H266020   5.515   0.317   3.868  1.0771  2.1666  0.4601
14869TIP3   OH266021   4.603   4.287  13.260  0.1078 -0.6260 -0.4441
14869TIP3    H166022   4.602   4.379  13.235  2.9790  0.2117  1.9513
14869TIP3    H266023   4.531   4.279  13.324 -1.9089 -0.8239 -2.6117
14870TIP3   OH266024   2.798   2.030  10.981 -0.1409  0.0405 -0.0438
14870TIP3    H166025   2.801   1.943  10.941 -0.9573 -0.2254  0.4278
14870TIP3    H266026   2.722   2.072  10.940 -0.7967 -0.1218  0.9610
14871TIP3   OH266027   5.056   1.905   2.691 -0.5854  0.3124  0.1632
14871TIP3    H166028   5.091   1.892   2.779  0.0446  1.1400  0.0464
14871TIP3    H266029   5.017   1.993   2.693 -0.5657  0.3397 -0.3801
14872TIP3   OH266030   3.698   5.820   2.618  0.4010  0.0188  0.3890
14872TIP3    H166031   3.626   5.758   2.628  0.2957  0.0952  0.1034
14872TIP3    H266032   3.656   5.905   2.613  0.4689  0.0193 -0.3350
14873TIP3   OH266033   5.671   1.439   5.083  0.4958  0.0584  0.2387
14873TIP3    H166034   5.656   1.382   5.158  1.4025 -0.9576 -0.3116
14873TIP3    H266035   5.742   1.497   5.110 -0.3921  0.9152  0.7811
14874TIP3   OH266036   5.818   3.460  10.372  0.8686 -0.0505  0.2822
14874TIP3    H166037   5.782   3.537  10.415 -0.1845 -1.1359  1.4441
14874TIP3    H266038   5.749   3.430  10.314 -0.1176 -1.9957  2.3224
14875TIP3   OH266039   5.776   4.078   4.855  0.1135 -1.0595 -0.5752
14875TIP3    H166040   5.698   4.079   4.910 -0.8860 -0.0643 -1.9412
14875TIP3    H266041   5.833   4.012   4.895 -0.4565 -0.2471  1.7451
14876TIP3   OH266042   6.337   4.895  16.564  0.1252  0.0731 -0.0528
14876TIP3    H166043   6.265   4.913  16.504 -0.7593 -0.2683  0.8633
14876TIP3    H266044   6.417   4.911  16.513 -0.5862 -0.3541 -1.3441
14877TIP3   OH266045   0.064   1.213   1.847  0.3919  0.0441 -0.3102
14877TIP3    H166046  -0.010   1.152   1.844  0.9927 -0.6965 -0.3460
14877TIP3    H266047   0.109   1.192   1.929  0.1891  0.9540  0.0526
14878TIP3   OH266048   5.023   5.439   0.422  0.3176 -0.3900 -0.1293
14878TIP3    H166049   4.933   5.426   0.393  0.1135  0.5968  0.0464
14878TIP3    H266050   5.029   5.390   0.504 -0.0991 -0.3373 -0.0649
14879TIP3   OH266051   0.226   3.287   5.464 -0.4729  0.0372  0.1151
14879TIP3    H166052   0.210   3.376   5.495 -0.0082  0.2567 -0.2658
14879TIP3    H266053   0.141   3.256   5.434 -0.5119  0.5981 -0.3714
14880TIP3   OH266054   6.652   4.004  16.496 -0.8274 -0.2484  0.1096
14880TIP3    H166055   6.741   4.017  16.528 -0.4968  0.3490 -1.0094
14880TIP3    H266056   6.606   3.964  16.570  0.0267  0.6155  1.1399
14881TIP3   OH266057   4.942   4.798   3.574  0.2195 -0.0727  0.2872
14881TIP3    H166058   4.847   4.803   3.568  0.2875  2.0212  0.4476
14881TIP3    H266059   4.971   4.792   3.483 -0.0218  0.5867  0.1613
14882TIP3   OH266060   2.304   3.128  16.252  0.1481  0.2460  0.0391
14882TIP3    H166061   2.268   3.134  16.163  0.6507  2.6737 -0.0878
14882TIP3    H266062   2.270   3.205  16.297  1.1438 -0.1050  1.4741
14883TIP3   OH266063   3.296   0.317  16.659  0.3097 -0.1763 -0.3819
14883TIP3    H166064   3.233   0.386  16.681  1.4009  0.9285 -0.5958
14883TIP3    H266065   3.289   0.309  16.563 -0.8338 -1.4089 -0.2248
14884TIP3   OH266066   6.501   1.754  14.554  0.2825 -0.2309 -0.2304
14884TIP3    H166067   6.562   1.724  14.486  1.0085 -1.2870  0.8371
14884TIP3    H266068   6.434   1.685  14.558 -1.1765  1.0463 -1.5706
14885TIP3   OH266069   4.307   0.254   2.796  0.6177  0.0767 -0.4742
14885TIP3    H166070   4.249   0.310   2.745 -1.0751 -2.0658 -1.0539
14885TIP3    H266071   4.285   0.273   2.887  1.8699  2.0879 -0.5227
14886TIP3   OH266072   3.476   0.552   2.631 -0.1968  0.4926 -0.3397
14886TIP3    H166073   3.440   0.549   2.719  1.5203  2.4189  0.5151
14886TIP3    H266074   3.400   0.555   2.573 -1.3491 -0.7108  1.0617
14887TIP3   OH266075   2.406   1.542   4.744  0.7785  0.5520 -0.5061
14887TIP3    H166076   2.336   1.547   4.809  2.5642 -3.1751  2.0593
14887TIP3    H266077   2.476   1.596   4.781  0.6919  1.0190 -1.0156
14888TIP3   OH266078   4.118   5.544  15.998  0.0461 -0.3267  0.2873
14888TIP3    H166079   4.063   5.619  15.975 -0.9485 -1.5792 -1.6905
14888TIP3    H266080   4.059   5.485  16.045  0.5018 -0.4082  0.7677
14889TIP3   OH266081   0.808   1.790  11.493 -0.1623 -0.6163 -0.3650
14889TIP3    H166082   0.746   1.756  11.429 -0.4852 -0.6079 -0.0602
14889TIP3    H266083   0.786   1.883  11.500 -0.4083 -0.7061  0.0738
14890TIP3   OH266084   3.070   4.863   5.391 -0.4641  0.5838 -0.0641
14890TIP3    H166085   3.051   4.806   5.317  1.4308 -0.0594 -0.1118
14890TIP3    H266086   3.064   4.952   5.355 -0.7292  0.3175 -0.6793
14891TIP3   OH266087   5.490   1.216  16.479 -0.5091  0.0298 -0.1639
14891TIP3    H166088   5.573   1.259  16.454 -0.3276 -0.6875 -0.8496
14891TIP3    H266089   5.516   1.127  16.502 -1.1976 -0.4687 -1.2640
14892TIP3   OH266090   4.989   3.748   6.447  0.0253 -0.2593 -0.0445
14892TIP3    H166091   4.915   3.759   6.388  0.1302  1.6350  0.1305
14892TIP3    H266092   4.979   3.816   6.513  1.0531 -0.9967  0.9311
14893TIP3   OH266093   1.000   6.617  11.519  0.1541  0.3458  0.1006
14893TIP3    H166094   1.061   6.546  11.542  0.5355 -0.0425 -1.9364
14893TIP3    H266095   0.930   6.609  11.583 -0.8709 -3.2608 -1.2317
14894TIP3   OH266096   0.534   6.027  13.397  0.1831  0.6536  0.0247
14894TIP3    H166097   0.583   5.968  13.455  1.8049  0.7092 -1.2208
14894TIP3    H266098   0.598   6.056  13.332 -1.4578  0.9332 -1.5532
14895TIP3   OH266099   3.163   5.744  11.798  0.9346 -0.2921 -0.2448
14895TIP3    H166100   3.123   5.827  11.771  3.4537  0.9089 -0.5846
14895TIP3    H266101   3.244   5.739  11.747  0.7945 -3.0919 -0.3596
14896TIP3   OH266102   6.665   3.825   2.252  0.1832  0.3088 -0.1455
14896TIP3    H166103   6.593   3.862   2.201  1.5709  2.7083 -0.5247
14896TIP3    H266104   6.719   3.780   2.187 -1.1582 -1.9895  0.2194
14897TIP3   OH266105   3.554   5.285   4.855  0.2914 -0.4957  0.6279
14897TIP3    H166106   3.543   5.227   4.780 -0.5231 -0.1945  0.5036
14897TIP3    H266107   3.624   5.245   4.907  1.3006 -0.3807 -0.5977
14898TIP3   OH266108   2.166   2.603  13.761 -0.0735  0.4807  0.0676
14898TIP3    H166109   2.144   2.600  13.854  0.2702  0.5175  0.1529
14898TIP3    H266110   2.216   2.684  13.750  1.1881 -0.2579  0.1526
14899TIP3   OH266111   2.992   5.260   4.144 -0.7448 -0.2522 -0.0115
14899TIP3    H166112   2.992   5.344   4.190 -0.4041 -0.7021  0.8305
14899TIP3    H266113   2.963   5.196   4.209  0.2108 -0.9753 -0.2676
14900TIP3   OH266114   2.686   2.822   6.036 -0.5342 -0.1267  0.3244
14900TIP3    H166115   2.599   2.786   6.051 -1.3175  1.9009  0.8948
14900TIP3    H266116   2.745   2.762   6.082 -1.5956 -1.5500 -0.1022
14901TIP3   OH266117   0.706   2.759  15.766  0.0617  0.0617  0.6063
14901TIP3    H166118   0.774   2.745  15.700  0.3179  1.1153  0.6298
14901TIP3    H266119   0.729   2.698  15.837  0.1672 -0.5929  0.0269
14902TIP3   OH266120   4.629   3.511   3.445  0.1247 -0.0781  0.0247
14902TIP3    H166121   4.632   3.415   3.446 -0.4372 -0.0974  0.3792
14902TIP3    H266122   4.581   3.534   3.524 -2.2426  0.3968 -1.4437
14903TIP3   OH266123   1.871   1.993  12.951  0.4144  0.2227  0.0199
14903TIP3    H166124   1.927   1.982  12.875 -1.4291 -0.0797 -1.3532
14903TIP3    H266125   1.817   2.069  12.931  2.0936  2.2687  2.5108
14904TIP3   OH266126   2.445   0.024  16.065  0.6642 -0.4820 -0.1200
14904TIP3    H166127   2.461  -0.020  16.149  1.5720 -1.6080 -0.8610
14904TIP3    H266128   2.374   0.085  16.084  1.0546 -0.4879  1.5508
14905TIP3   OH266129   3.141   0.562   4.364 -0.0320  0.5289  0.1723
14905TIP3    H166130   3.121   0.609   4.284 -0.5294  0.4112  0.2261
14905TIP3    H266131   3.070   0.584   4.424  0.7127  1.2149  0.8443
14906TIP3   OH266132   0.817   0.701   2.750 -0.6037 -0.5264  0.2559
14906TIP3    H166133   0.809   0.796   2.749  1.0016 -0.3526 -1.2026
14906TIP3    H266134   0.729   0.670   2.772 -2.2874  1.2523 -3.1326
14907TIP3   OH266135   1.607   4.025  16.348  0.3930  0.2010 -0.2337
14907TIP3    H166136   1.547   4.096  16.371  0.4953  0.7396 -1.5389
14907TIP3    H266137   1.556   3.945  16.356  0.4395  0.3362  1.8483
14908TIP3   OH266138   4.549   6.391   3.883  0.0382 -0.4920 -0.0570
14908TIP3    H166139   4.544   6.368   3.976  1.9569  1.5645  0.6530
14908TIP3    H266140   4.458   6.402   3.857 -0.5894  2.5969  2.7092
14909TIP3   OH266141   0.606   5.344   0.748  0.1554  0.4083  0.0384
14909TIP3    H166142   0.579   5.366   0.659  0.1448 -0.1653 -0.1015
14909TIP3    H266143   0.594   5.426   0.797  2.9585  1.6449 -1.0946
14910TIP3   OH266144   5.310   3.083  16.987  0.7967  0.0459 -0.4420
14910TIP3    H166145   5.255   3.152  17.024  1.9516  0.1309  1.1974
14910TIP3    H266146   5.353   3.043  17.062 -1.5677 -4.1296 -0.9838
14911TIP3   OH266147   1.968   6.220  12.194 -0.1907 -0.0642 -0.0152
14911TIP3    H166148   1.995   6.306  12.225 -0.6636 -0.7721  2.6774
14911TIP3    H266149   1.888   6.236  12.144 -1.8960  0.9100  2.7835
14912TIP3   OH266150   3.837   6.691   0.954  0.4361 -0.5473 -0.5881
14912TIP3    H166151   3.744   6.673   0.937 -0.7317  1.8376  2.3648
14912TIP3    H266152   3.872   6.608   0.986 -1.1460 -1.0961 -0.1788
14913TIP3   OH266153   1.110   5.828  15.886 -0.2274 -1.0555 -0.2211
14913TIP3    H166154   1.070   5.890  15.948  0.6742  0.4888 -1.1038
14913TIP3    H266155   1.050   5.827  15.811  0.6974  0.3156 -1.0291
14914TIP3   OH266156   6.285   6.431   4.737  0.3084 -0.5072 -0.5825
14914TIP3    H166157   6.222   6.373   4.780  1.3520 -2.6842 -1.8054
14914TIP3    H266158   6.368   6.413   4.781  0.3116  1.5797  0.3354
14915TIP3   OH266159   6.025   0.117  11.462 -0.2786 -0.0389 -0.0645
14915TIP3    H166160   5.956   0.069  11.416  0.4655 -0.1477 -1.1124
14915TIP3    H266161   6.029   0.077  11.549 -0.6281 -0.9420 -0.4540
14916TIP3   OH266162   0.104   4.472   1.815  0.4790 -0.4930 -0.4601
14916TIP3    H166163   0.157   4.427   1.749  0.8693  0.2370 -0.6561
14916TIP3    H266164   0.163   4.485   1.889  0.3287 -0.4395 -0.3487
14917TIP3   OH266165   6.356   1.423  15.903 -0.0238  0.0489 -0.3691
14917TIP3    H166166   6.294   1.438  15.832  0.6099 -0.0708 -0.9542
14917TIP3    H266167   6.436   1.393  15.860  0.7860  1.1940  0.2747
14918TIP3   OH266168   1.895   4.699  11.465 -0.2412 -0.4234  0.5438
14918TIP3    H166169   1.889   4.792  11.445  0.6962 -0.6470 -0.9960
14918TIP3    H266170   1.871   4.692  11.557 -1.4890  1.1782  0.3922
14919TIP3   OH266171   6.727   5.391  14.612 -0.5149  0.0794 -0.1629
14919TIP3    H166172   6.715   5.479  14.577  1.9714  0.2089 -0.8775
14919TIP3    H266173   6.798   5.354  14.560 -0.2584 -1.6825  1.3409
14920TIP3   OH266174   6.040   2.793  14.850 -0.2341 -0.6367  0.1485
14920TIP3    H166175   5.995   2.737  14.786  0.4050 -0.9814 -0.0027
14920TIP3    H266176   5.977   2.802  14.922 -0.7293 -0.7250 -0.2664
14921TIP3   OH266177   6.708   5.856   1.459  0.3073 -0.3081 -0.2948
14921TIP3    H166178   6.766   5.823   1.527  0.6260  1.8437  0.5749
14921TIP3    H266179   6.624   5.870   1.504 -0.6208 -2.3655 -1.2793
14922TIP3   OH266180   1.969   6.037  11.243 -0.1421  0.6707 -0.2522
14922TIP3    H166181   2.005   6.002  11.324 -1.5151 -1.0179 -0.3043
14922TIP3    H266182   2.020   5.993  11.174 -0.4711  0.3830 -0.3118
14923TIP3   OH266183   2.200   3.748   1.537  0.5734  0.3883 -0.2212
14923TIP3    H166184   2.248   3.736   1.618  2.2912  1.2878 -1.0585
14923TIP3    H266185   2.140   3.820   1.555  1.8273  1.4320 -0.0845
14924TIP3   OH266186   5.173   3.729  12.626  0.4103  0.6285 -0.2794
14924TIP3    H166187   5.245   3.734  12.563 -1.1496  0.1540 -2.2003
14924TIP3    H266188   5.198   3.658  12.686  1.9188  1.0674 -0.3644
14925TIP3   OH266189   5.207   0.919  17.289  1.1394 -0.3465 -0.3424
14925TIP3    H166190   5.141   0.853  17.272  0.7698  0.2143 -1.1362
14925TIP3    H266191   5.183   0.956  17.374  0.1409  0.1832 -0.8414
14926TIP3   OH266192   2.823   4.295  13.072 -0.5008 -0.3685  0.9070
14926TIP3    H166193   2.737   4.258  13.052 -1.0948  0.5206  1.7296
14926TIP3    H266194   2.808   4.350  13.150  0.5838  0.6383  0.4351
14927TIP3   OH266195   4.974   5.704  14.212 -0.4605  0.0670 -0.2470
14927TIP3    H166196   4.973   5.692  14.307  2.2872 -0.4021 -0.1874
14927TIP3    H266197   4.925   5.784  14.197 -1.3074 -0.0683  1.5028
14928TIP3   OH266198   4.555   3.210  16.869 -0.6348  0.2449 -0.4356
14928TIP3    H166199   4.571   3.137  16.808  0.7124 -1.8086  2.1808
14928TIP3    H266200   4.639   3.255  16.876 -0.1733 -0.7916  1.3324
14929TIP3   OH266201   3.406   0.966  13.368 -0.2010  0.2644  0.2731
14929TIP3    H166202   3.373   0.915  13.294 -1.9019 -0.1491  1.2706
14929TIP3    H266203   3.464   0.906  13.414 -1.4137 -0.4749  0.8802
14930TIP3   OH266204   5.049   5.653  13.614 -0.3592  0.7270 -0.2971
14930TIP3    H166205   5.060   5.737  13.569 -2.2841  0.0597 -2.2204
14930TIP3    H266206   5.124   5.601  13.587  1.7827  2.2758  2.2660
14931TIP3   OH266207   4.470   3.508  14.018 -0.0480 -0.2144  0.5439
14931TIP3    H166208   4.502   3.539  14.103  0.0660 -0.5187  0.6150
14931TIP3    H266209   4.429   3.585  13.978  0.8056  0.1997  0.4353
14932TIP3   OH266210   4.221   5.131   4.279 -0.0035  0.4587  0.4190
14932TIP3    H166211   4.260   5.053   4.240 -0.5105  0.7893 -0.8137
14932TIP3    H266212   4.265   5.141   4.363 -0.3664 -1.5009  0.8881
14933TIP3   OH266213   4.692   2.717  12.987  0.0749  0.0419 -0.0022
14933TIP3    H166214   4.741   2.643  13.023 -0.8199 -0.4325  0.2689
14933TIP3    H266215   4.735   2.736  12.904  0.0455 -1.0771 -0.2875
14934TIP3   OH266216   3.684   4.977   5.846 -0.1035  0.6146  0.4032
14934TIP3    H166217   3.777   4.996   5.841 -0.1627  0.7087 -0.4842
14934TIP3    H266218   3.671   4.944   5.935  0.7052  0.9447  0.6491
14935TIP3   OH266219   4.803   0.562  12.510  0.1665  0.1603 -0.1535
14935TIP3    H166220   4.724   0.607  12.479  1.0028  2.0396  0.2995
14935TIP3    H266221   4.874   0.601  12.458  0.9947 -0.2504  0.6538
14936TIP3   OH266222   6.043   4.506  13.888 -0.1415  0.1058 -0.1969
14936TIP3    H166223   5.994   4.585  13.911  0.2148  0.0952  0.6320
14936TIP3    H266224   6.125   4.514  13.936  0.6707  0.1071 -1.5390
14937TIP3   OH266225   1.100   2.936   5.896  0.1172  0.3607  0.4398
14937TIP3    H166226   1.158   2.895   5.959 -0.5132 -0.7261  0.3457
14937TIP3    H266227   1.012   2.923   5.932 -0.1410  1.2004  0.1507
14938TIP3   OH266228   0.205   4.056   3.991 -0.3292  0.2046 -0.5429
14938TIP3    H166229   0.156   3.974   3.991 -0.2088  0.1180 -1.7483
14938TIP3    H266230   0.285   4.036   3.944  1.2025  0.1867  1.8985
14939TIP3   OH266231   1.502   6.149   1.994  0.4067 -0.0797  0.3019
14939TIP3    H166232   1.572   6.085   1.989  0.9036  0.5303 -1.2145
14939TIP3    H266233   1.537   6.219   2.049  0.8014 -0.0057 -0.0395
14940TIP3   OH266234   6.536   4.613  13.133  0.0966  0.0654  0.0309
14940TIP3    H166235   6.460   4.652  13.176 -1.0071 -0.3413 -1.4950
14940TIP3    H266236   6.507   4.593  13.044  1.2117 -2.3951  0.1306
14941TIP3   OH266237   0.364   6.073  11.195  0.1153  0.0990 -0.2199
14941TIP3    H166238   0.310   5.996  11.210 -1.2551  0.7597 -1.6033
14941TIP3    H266239   0.399   6.094  11.282 -0.8031 -1.1077  0.4728
14942TIP3   OH266240   4.978   1.425   0.093 -0.5453  0.0710 -0.3343
14942TIP3    H166241   4.922   1.457   0.164  0.1869 -0.3351  0.4512
14942TIP3    H266242   4.922   1.366   0.043 -0.9909  0.1229  0.0975
14943TIP3   OH266243   2.340   4.493  14.406 -0.4511  0.3504  0.2384
14943TIP3    H166244   2.386   4.439  14.342 -0.7772  1.3210 -0.8644
14943TIP3    H266245   2.381   4.471  14.489  0.1259 -0.8112 -0.3221
14944TIP3   OH266246   6.678   3.256  11.398  0.1847 -0.0222 -0.0435
14944TIP3    H166247   6.703   3.247  11.306 -1.7868 -0.7082 -0.5538
14944TIP3    H266248   6.739   3.199  11.444 -1.0051 -2.5593 -1.3680
14945TIP3   OH266249   3.560   2.231  15.945  0.4501 -0.4709  0.1605
14945TIP3    H166250   3.611   2.160  15.906  1.5356  0.2611  0.2163
14945TIP3    H266251   3.617   2.308  15.938 -0.5708  0.3235  0.4125
14946TIP3   OH266252   0.790   4.971  12.669 -0.0618  0.6509 -0.1060
14946TIP3    H166253   0.724   4.977  12.738  0.8418  2.3604  0.6780
14946TIP3    H266254   0.756   5.024  12.597 -1.1261 -1.3387 -1.1799
14947TIP3   OH266255   0.671   4.050  15.110  0.1090  0.0291 -0.8060
14947TIP3    H166256   0.595   4.097  15.076 -0.7112  0.1770  1.0835
14947TIP3    H266257   0.687   4.090  15.196  1.1814 -1.2159 -0.3904
14948TIP3   OH266258   5.966   2.933   4.781 -0.2659  0.2133  0.0504
14948TIP3    H166259   5.979   2.951   4.874  1.0713  1.8352 -0.4037
14948TIP3    H266260   5.959   2.838   4.775  0.4691  0.0304  1.7210
14949TIP3   OH266261   5.049   0.082   4.347 -0.2853  0.1438 -0.6449
14949TIP3    H166262   5.089  -0.001   4.373 -0.4925 -0.3458 -1.8002
14949TIP3    H266263   4.970   0.089   4.400 -0.7174 -0.8315 -1.1218
14950TIP3   OH266264   2.889   0.906   3.051 -0.0076  0.1700 -0.1817
14950TIP3    H166265   2.928   0.991   3.032 -0.4725  0.6092  0.7330
14950TIP3    H266266   2.950   0.865   3.112 -0.0932  0.1085 -0.1376
14951TIP3   OH266267   3.126   5.914   4.713 -0.6996 -0.2954  0.1094
14951TIP3    H166268   3.091   5.989   4.761  0.1075 -0.2430  0.6373
14951TIP3    H266269   3.220   5.914   4.733 -0.8242 -1.9692  0.8603
14952TIP3   OH266270   5.858   2.740   5.717  0.2819 -0.0995 -1.4248
14952TIP3    H166271   5.928   2.805   5.716 -0.2497  0.4789 -2.3887
14952TIP3    H266272   5.849   2.715   5.809  1.0381  0.5917 -1.1591
14953TIP3   OH266273   4.812   3.564  14.110 -0.0303  0.2438 -0.4030
14953TIP3    H166274   4.738   3.603  14.157  0.1545  1.1682 -0.8456
14953TIP3    H266275   4.792   3.470  14.106 -0.7902  0.3751  0.1708
14954TIP3   OH266276   5.200   6.024  14.718  0.3705 -0.1226 -0.0786
14954TIP3    H166277   5.274   6.073  14.755 -0.7656 -0.2434  2.5299
14954TIP3    H266278   5.175   6.074  14.641  3.6495 -0.5233 -1.5824
14955TIP3   OH266279   3.912   2.268   4.779  0.1307  0.0886  0.2439
14955TIP3    H166280   3.939   2.206   4.712  1.3602  0.0668  0.7199
14955TIP3    H266281   3.862   2.216   4.842 -1.4842  0.2154 -0.8902
14956TIP3   OH266282   6.525   1.419   2.933  0.2621  0.1818  0.6522
14956TIP3    H166283   6.545   1.329   2.907  1.6295  0.4380  0.7445
14956TIP3    H266284   6.442   1.412   2.981 -0.1047 -0.8879 -0.1019
14957TIP3   OH266285   0.673   0.315  14.102  0.3554 -0.0838 -0.3641
14957TIP3    H166286   0.767   0.299  14.101  0.8683  2.3971 -1.5274
14957TIP3    H266287   0.664   0.401  14.144 -1.6656 -1.3493  2.0356
14958TIP3   OH266288   5.024   4.386   4.219 -0.0218 -0.0722 -0.0753
14958TIP3    H166289   5.006   4.479   4.209 -0.1798 -0.2908 -2.7001
14958TIP3    H266290   4.939   4.347   4.242 -0.3189  0.2613 -0.5857
14959TIP3   OH266291   0.698   0.653  17.122  0.2674 -0.5891 -0.0687
14959TIP3    H166292   0.788   0.685  17.129  0.3078 -0.7018 -0.0738
14959TIP3    H266293   0.688   0.594  17.197  0.4763 -1.2534 -0.5598
14960TIP3   OH266294   5.534   3.723  11.446  0.1307 -0.3847  0.3964
14960TIP3    H166295   5.505   3.692  11.361  1.4849 -0.0478 -0.2261
14960TIP3    H266296   5.629   3.710  11.445  0.0768 -1.3867  2.2777
14961TIP3   OH266297   5.996   5.458  15.836  0.4391  0.3395 -0.1430
14961TIP3    H166298   6.045   5.439  15.915  0.0810 -0.0340 -0.0053
14961TIP3    H266299   5.909   5.483  15.867  0.3549  0.3848 -0.4085
14962TIP3   OH266300   5.022   0.743  17.172 -0.6257  0.2991 -0.4273
14962TIP3    H166301   4.955   0.707  17.231 -4.3569  3.7439 -2.0924
14962TIP3    H266302   4.975   0.760  17.091  3.2005  0.0197 -2.9610
14963TIP3   OH266303   3.265   5.564  10.651 -0.0090  0.1790 -0.1361
14963TIP3    H166304   3.254   5.646  10.699  1.5152  1.4619 -1.8206
14963TIP3    H266305   3.237   5.585  10.562 -0.2320 -1.3493 -0.4512
14964TIP3   OH266306   4.293   1.750  12.061  0.1302 -0.3195  0.6653
14964TIP3    H166307   4.379   1.765  12.022  0.9345 -1.3221  1.9775
14964TIP3    H266308   4.261   1.671  12.017 -1.0535  1.1066 -1.2379
14965TIP3   OH266309   5.857   2.704  14.166 -0.1604 -0.4953  0.6212
14965TIP3    H166310   5.802   2.632  14.136 -0.3769 -0.6783  1.4227
14965TIP3    H266311   5.888   2.677  14.252  0.9511 -0.2571  0.3145
14966TIP3   OH266312   0.685   1.246   5.150 -0.6489  0.2439 -0.2206
14966TIP3    H166313   0.687   1.276   5.241  2.0283  0.5404 -0.2869
14966TIP3    H266314   0.701   1.152   5.155  0.0596  0.3485 -0.3763
14967TIP3   OH266315   4.575   3.722  11.085  0.1151 -0.7484 -0.0432
14967TIP3    H166316   4.659   3.680  11.066  1.0980  1.2991 -0.5034
14967TIP3    H266317   4.521   3.705  11.008  1.5638  1.3346 -1.6372
14968TIP3   OH266318   4.540   6.144   0.605  0.3361 -0.0672  0.2316
14968TIP3    H166319   4.598   6.068   0.605  0.2060 -0.1741 -0.4310
14968TIP3    H266320   4.516   6.156   0.513  0.0677  0.5566  0.3756
14969TIP3   OH266321   3.827   6.269   4.369  0.2571 -0.3359 -0.0885
14969TIP3    H166322   3.781   6.307   4.295  0.5410 -3.0343 -1.8074
14969TIP3    H266323   3.763   6.209   4.409  0.9157 -0.8890  0.1691
14970TIP3   OH266324   3.646   4.687  13.835  0.6204 -0.0565 -0.4539
14970TIP3    H166325   3.646   4.765  13.780 -1.1768 -0.2142 -0.7423
14970TIP3    H266326   3.723   4.697  13.892 -0.3779  2.6532  0.5492
14971TIP3   OH266327   1.796   2.509  12.852  0.2954  0.3058  0.1666
14971TIP3    H166328   1.720   2.480  12.903  0.2343 -0.7120 -0.4639
14971TIP3    H266329   1.762   2.578  12.795 -0.5726 -1.1728 -1.2081
14972TIP3   OH266330   5.679   2.858   1.496 -0.3665  0.3708  0.6573
14972TIP3    H166331   5.735   2.936   1.497 -0.7560  0.7524 -1.5590
14972TIP3    H266332   5.679   2.827   1.586  4.2721 -0.2738  0.6792
14973TIP3   OH266333   3.136   2.482   1.186 -0.0950  0.3901  0.5957
14973TIP3    H166334   3.046   2.498   1.157 -0.1189  1.8904  1.3777
14973TIP3    H266335   3.132   2.397   1.230 -1.6796  1.4073  2.6180
14974TIP3   OH266336   5.583   5.041  14.160  0.5988  0.2365  0.0234
14974TIP3    H166337   5.585   5.084  14.074  1.2130 -0.1183 -0.1443
14974TIP3    H266338   5.619   5.107  14.220  1.1842  0.1055 -0.1730
14975TIP3   OH266339   4.031   4.644  11.923  0.4649 -0.2606 -0.2197
14975TIP3    H166340   3.981   4.668  12.001  0.9969  1.4616 -0.3828
14975TIP3    H266341   4.053   4.727  11.881 -0.2432 -1.1521 -2.5039
14976TIP3   OH266342   2.736   4.214   4.294 -0.3569  0.1180  0.4414
14976TIP3    H166343   2.822   4.257   4.293 -0.5529  0.6118  2.2965
14976TIP3    H266344   2.704   4.223   4.204  1.2944  0.4054 -0.1418
14977TIP3   OH266345   3.663   1.734   1.869 -0.7351  0.4155 -0.5004
14977TIP3    H166346   3.652   1.646   1.834  0.0780  0.4166 -0.7929
14977TIP3    H266347   3.680   1.789   1.792 -2.8795  1.1501 -0.5130
14978TIP3   OH266348   4.062   6.639  14.976 -0.1728  0.0673 -0.2014
14978TIP3    H166349   3.981   6.635  15.027 -0.8839 -0.9139 -1.3350
14978TIP3    H266350   4.131   6.653  15.040 -1.3002  1.5689  0.7282
14979TIP3   OH266351   4.609   4.522   0.624  0.0264 -0.4874  0.3225
14979TIP3    H166352   4.686   4.506   0.569 -0.5147 -2.0286 -0.0368
14979TIP3    H266353   4.633   4.486   0.709  0.6320  1.3530  0.9924
14980TIP3   OH266354   4.626   2.727  11.133  0.1657  0.0320  0.1304
14980TIP3    H166355   4.668   2.751  11.050 -0.3175 -0.7865 -0.3655
14980TIP3    H266356   4.543   2.687  11.107  0.5003 -1.2702  0.9437
14981TIP3   OH266357   6.697   3.580   4.982 -0.7567  0.2054  0.6083
14981TIP3    H166358   6.707   3.485   4.975 -1.3811  0.2568 -1.3993
14981TIP3    H266359   6.786   3.612   4.996 -0.2352 -0.5360 -0.8409
14982TIP3   OH266360   2.121   0.010   0.993 -0.7763 -0.4902  0.1411
14982TIP3    H166361   2.197   0.067   1.008 -1.6876  1.1818 -1.2070
14982TIP3    H266362   2.159  -0.072   0.961  0.4885  0.0896  0.0949
14983TIP3   OH266363   4.019   5.764   2.004 -0.3244 -0.2050 -0.2393
14983TIP3    H166364   4.103   5.723   2.024 -0.4988 -0.3189  0.2751
14983TIP3    H266365   3.993   5.806   2.087 -0.9279 -0.4454 -0.3061
14984TIP3   OH266366   2.632   3.847   4.497  0.9833 -0.1272 -0.0522
14984TIP3    H166367   2.581   3.910   4.548  0.5575 -2.4742  2.6318
14984TIP3    H266368   2.721   3.884   4.497  0.2066  1.9300 -1.2352
14985TIP3   OH266369   4.854   2.546   0.957  0.5350 -0.0124 -0.2214
14985TIP3    H166370   4.891   2.634   0.954 -0.6309  0.4893 -0.4444
14985TIP3    H266371   4.792   2.543   0.884 -2.9031  0.6416  2.3929
14986TIP3   OH266372   3.208   5.813   3.712  0.0503 -0.1120 -0.0372
14986TIP3    H166373   3.287   5.832   3.764  0.7760  1.4348 -1.5993
14986TIP3    H266374   3.236   5.826   3.621 -1.8743 -0.0885 -0.6572
14987TIP3   OH266375   1.326   0.067  15.491  0.1279 -0.5428 -0.0457
14987TIP3    H166376   1.363   0.126  15.424  0.6828 -1.0829 -0.2257
14987TIP3    H266377   1.235   0.095  15.500  1.2668  3.0779  2.7832
14988TIP3   OH266378   3.090   4.105   0.062  0.2625 -0.3783 -0.0164
14988TIP3    H166379   3.062   4.190   0.029 -0.6841 -0.9685 -0.7837
14988TIP3    H266380   3.047   4.042   0.004  1.7423 -1.3636 -0.1005
14989TIP3   OH266381   2.769   4.428  12.645  0.1036  0.1690  0.0351
14989TIP3    H166382   2.810   4.464  12.567 -1.0890  1.2986 -0.0999
14989TIP3    H266383   2.721   4.501  12.684 -0.4521 -0.7048  1.0719
14990TIP3   OH266384   4.709   2.773   4.419 -0.0058 -0.3641 -0.0617
14990TIP3    H166385   4.771   2.790   4.348 -0.2682 -0.7476 -0.3814
14990TIP3    H266386   4.677   2.860   4.444 -1.2527 -0.3457 -1.6136
14991TIP3   OH266387   1.742   2.503  16.993 -0.5857 -0.0147 -0.3373
14991TIP3    H166388   1.672   2.568  17.002  0.6235  1.3199 -0.1532
14991TIP3    H266389   1.776   2.517  16.905 -1.5117 -1.6978 -0.9977
14992TIP3   OH266390   0.719   3.622   0.467  0.4265 -0.6221  0.1199
14992TIP3    H166391   0.667   3.682   0.520 -0.4727 -1.3256  0.0349
14992TIP3    H266392   0.678   3.537   0.478 -0.9119 -0.5304 -3.0541
14993TIP3   OH266393   6.342   6.358   4.227 -0.5130 -0.2406 -0.5391
14993TIP3    H166394   6.419   6.394   4.183  0.8666 -1.8939  0.4395
14993TIP3    H266395   6.354   6.382   4.319 -1.7135  0.3462 -0.5108
14994TIP3   OH266396   0.585   5.615   2.064 -0.2933  0.7220 -0.1808
14994TIP3    H166397   0.633   5.534   2.048 -0.7109  0.5483 -0.5908
14994TIP3    H266398   0.538   5.600   2.146 -2.4396 -0.4785 -1.5258
14995TIP3   OH266399   1.845   4.668   2.377 -0.3466  0.1840  0.1011
14995TIP3    H166400   1.887   4.657   2.462  0.6042 -0.3910 -0.4176
14995TIP3    H266401   1.917   4.692   2.318 -0.6921 -1.0768 -0.8716
14996TIP3   OH266402   4.631   4.161  12.531 -0.2721  0.0750 -0.1188
14996TIP3    H166403   4.652   4.154  12.438 -0.7292 -2.0085 -0.0938
14996TIP3    H266404   4.536   4.161  12.535 -0.2640 -0.8910  0.3907
14997TIP3   OH266405   4.203   2.342  13.592  0.1488 -0.4117 -0.4341
14997TIP3    H166406   4.141   2.338  13.520 -1.5916 -2.5179  1.0380
14997TIP3    H266407   4.289   2.338  13.550 -0.6471  1.9323 -2.5009
14998TIP3   OH266408   4.254   1.244   3.230 -0.0419  0.1369  0.8219
14998TIP3    H166409   4.161   1.260   3.244 -0.1646  1.0279 -0.8090
14998TIP3    H266410   4.293   1.331   3.222  0.7994 -0.2422  0.6916
14999TIP3   OH266411   5.806   6.187   2.362 -0.3030  0.4881  0.4894
14999TIP3    H166412   5.734   6.210   2.421 -0.3350  0.0729  0.6120
14999TIP3    H266413   5.882   6.178   2.419  0.0391  1.7492  0.2649
15000TIP3   OH266414   0.809   2.242   4.373  0.2965  0.0537  0.3216
15000TIP3    H166415   0.812   2.319   4.429 -2.9425  0.3583  0.2607
15000TIP3    H266416   0.783   2.275   4.287 -1.7528 -1.0564  0.4339
15001TIP3   OH266417   1.554   0.446  12.118  0.4629 -0.6299  0.1625
15001TIP3    H166418   1.630   0.443  12.175  0.8632 -0.6747 -0.3680
15001TIP3    H266419   1.590   0.451  12.030 -0.1451  0.3502 -0.0442
15002TIP3   OH266420   5.455   3.048   0.287 -0.6624  0.2702  0.1407
15002TIP3    H166421   5.476   3.005   0.370 -1.1762 -0.3388 -0.0406
15002TIP3    H266422   5.391   2.991   0.246 -0.5182  0.6440 -0.6168
15003TIP3   OH266423   3.698   3.922   2.381  0.4709  0.1122 -0.2787
15003TIP3    H166424   3.737   3.843   2.343  1.7468  1.6725 -2.4420
15003TIP3    H266425   3.631   3.948   2.318 -2.0487 -0.7621  1.8531
15004TIP3   OH266426   4.639   4.083   1.271  0.3500 -0.1559 -0.2394
15004TIP3    H166427   4.706   4.064   1.205  1.4607 -0.6878  1.0046
15004TIP3    H266428   4.559   4.042   1.237  1.1440 -1.2791 -0.7708
15005TIP3   OH266429   2.222   6.157   5.048  0.0549  0.0769  1.0023
15005TIP3    H166430   2.181   6.206   4.976 -0.9932 -1.1127  0.7572
15005TIP3    H266431   2.183   6.194   5.127  2.1070  2.2463  1.1329
15006TIP3   OH266432   4.060   1.496   2.504  0.3809  0.3255 -0.1388
15006TIP3    H166433   4.135   1.499   2.563 -0.1822 -0.4210  0.6343
15006TIP3    H266434   4.011   1.418   2.530 -2.4045  2.4281  1.5598
15007TIP3   OH266435   3.832   3.823   5.870 -0.2064  0.1018  0.5061
15007TIP3    H166436   3.792   3.905   5.900 -0.0677 -0.4794  2.4526
15007TIP3    H266437   3.768   3.755   5.892  0.3230 -0.4662  0.3371
15008TIP3   OH266438   3.311   3.908   0.443  0.3180  0.0960 -0.1999
15008TIP3    H166439   3.271   3.995   0.451  0.2597  0.0667 -0.1708
15008TIP3    H266440   3.281   3.860   0.521  1.3782  0.4561  0.4453
15009TIP3   OH266441   2.926   5.356   6.435 -0.0169 -0.2150 -0.4719
15009TIP3    H166442   2.984   5.337   6.362 -1.0236 -0.6443 -1.1805
15009TIP3    H266443   2.851   5.402   6.396  0.3192  1.3072  0.5799
15010TIP3   OH266444   5.631   5.805  13.944  0.2233  0.1512 -0.0356
15010TIP3    H166445   5.652   5.733  14.004  0.7661 -0.5900 -1.0876
15010TIP3    H266446   5.556   5.773  13.894  0.5410  0.2582 -0.5898
15011TIP3   OH266447   1.137   3.653  16.370 -0.3403  0.8660 -0.5303
15011TIP3    H166448   1.083   3.671  16.447 -0.4671 -0.7410 -0.2243
15011TIP3    H266449   1.090   3.585  16.323 -0.6182  2.2902 -2.4341
15012TIP3   OH266450   5.733   5.744   5.049  0.0260 -0.0708  0.1047
15012TIP3    H166451   5.746   5.808   4.979 -1.2441  0.5778  0.4298
15012TIP3    H266452   5.638   5.733   5.054  0.0043  0.5778  2.2865
15013TIP3   OH266453   0.306   5.475  10.817 -0.1346  0.3252 -0.1311
15013TIP3    H166454   0.333   5.384  10.801  1.1195  0.5268  0.7709
15013TIP3    H266455   0.265   5.502  10.734  0.4369 -0.7095 -0.7753
15014TIP3   OH266456   1.290   0.762   4.487 -0.0595  1.0260 -0.7325
15014TIP3    H166457   1.266   0.836   4.542 -1.0649  0.0405  0.2209
15014TIP3    H266458   1.328   0.699   4.548  1.4231  1.0121 -1.6314
15015TIP3   OH266459   1.065   5.205  12.926 -0.0362 -0.6661 -0.2207
15015TIP3    H166460   0.976   5.226  12.952  0.0276 -0.3025 -0.2820
15015TIP3    H266461   1.117   5.215  13.006  0.5025  2.4602 -0.8070
15016TIP3   OH266462   4.020   3.855   1.809 -0.1914  0.0364  0.3303
15016TIP3    H166463   4.095   3.797   1.824 -2.2699 -2.3532  2.2741
15016TIP3    H266464   3.990   3.833   1.721  0.0764 -0.5858  0.3886
15017TIP3   OH266465   1.264   4.237  10.207  0.2431 -0.3243  0.2195
15017TIP3    H166466   1.359   4.230  10.218  0.3190  0.7542  0.2735
15017TIP3    H266467   1.246   4.330  10.213 -0.7078 -0.4296 -0.8064
15018TIP3   OH266468   0.578   3.939   2.139  0.4847  0.0143  0.3755
15018TIP3    H166469   0.563   4.031   2.115 -2.0546 -0.5772 -0.5827
15018TIP3    H266470   0.606   3.943   2.230  2.3484  1.8356 -0.1936
15019TIP3   OH266471   0.466   1.604   3.560  0.3492  0.4142 -0.1666
15019TIP3    H166472   0.457   1.691   3.520  0.3036 -0.2330 -1.6282
15019TIP3    H266473   0.378   1.568   3.559  0.2453  0.6122  1.0845
15020TIP3   OH266474   2.798   4.773  15.436  0.3983  0.5145 -0.2330
15020TIP3    H166475   2.888   4.786  15.405  0.3443 -0.7616 -1.0228
15020TIP3    H266476   2.775   4.684  15.406 -0.8391  0.5073  0.6563
15021TIP3   OH266477   3.585   5.001   6.198 -0.6713 -0.5390  0.7446
15021TIP3    H166478   3.670   5.040   6.217 -1.2727  0.4791  1.4860
15021TIP3    H266479   3.561   4.956   6.279 -1.0847 -0.3326  0.7418
15022TIP3   OH266480   1.458   6.293   3.657 -0.0253  0.5163  0.0909
15022TIP3    H166481   1.415   6.356   3.715 -2.0931 -0.1221 -0.6646
15022TIP3    H266482   1.428   6.208   3.687 -0.5678  0.1409 -1.4253
15023TIP3   OH266483   0.199   3.697   0.889 -0.0535 -0.7077 -0.0401
15023TIP3    H166484   0.189   3.602   0.889 -1.0697 -0.6087 -0.2875
15023TIP3    H266485   0.120   3.729   0.933  1.2465 -0.0634  1.9628
15024TIP3   OH266486   0.473   0.271   1.187 -0.5272  0.4740 -0.6381
15024TIP3    H166487   0.473   0.243   1.279 -0.5108  1.5102 -0.3108
15024TIP3    H266488   0.382   0.296   1.170 -0.4808  0.5128 -0.8265
15025TIP3   OH266489   1.197   0.616  11.149 -0.3632  0.4449  0.1620
15025TIP3    H166490   1.234   0.623  11.061 -1.2567  1.7416 -0.1322
15025TIP3    H266491   1.103   0.630  11.137 -0.6873 -0.7005  1.1676
15026TIP3   OH266492   5.326   3.220  10.588 -0.5586 -0.4464 -0.6071
15026TIP3    H166493   5.380   3.165  10.531 -1.0232 -2.0038  0.3770
15026TIP3    H266494   5.241   3.176  10.591 -0.2962 -0.9689  1.9349
15027TIP3   OH266495   5.163   3.528  13.020  0.2237  0.0834  0.3456
15027TIP3    H166496   5.069   3.545  13.011 -0.2326 -0.1199  3.7095
15027TIP3    H266497   5.170   3.473  13.098  3.0639 -1.1009 -0.6313
15028TIP3   OH266498   4.214   1.606  13.690 -0.8194 -0.3454 -0.8980
15028TIP3    H166499   4.159   1.555  13.632 -1.0386  0.6017 -1.5417
15028TIP3    H266500   4.206   1.696  13.659 -2.1784  0.4683  1.5288
15029TIP3   OH266501   3.713   5.562  15.770 -0.0348 -0.0244 -0.6147
15029TIP3    H166502   3.789   5.508  15.746 -0.1144  0.0473 -1.0433
15029TIP3    H266503   3.736   5.600  15.854  0.8637  0.8554 -1.2330
15030TIP3   OH266504   2.955   2.775  13.129 -0.1124  0.2116  0.5453
15030TIP3    H166505   2.961   2.707  13.196  0.3434  0.4658  0.7677
15030TIP3    H266506   2.864   2.773  13.101 -0.3187  0.1326  1.2046
15031TIP3   OH266507   4.415   2.382   3.963  0.4484 -0.1377 -0.5285
15031TIP3    H166508   4.388   2.462   3.919 -0.0353  0.0124  0.0365
15031TIP3    H266509   4.467   2.336   3.897 -2.0154 -0.9352 -2.0956
15032TIP3   OH266510   5.948   1.751  11.536 -0.2023 -0.2857  0.2666
15032TIP3    H166511   5.977   1.716  11.451  0.9650 -1.6445  1.1810
15032TIP3    H266512   6.025   1.743  11.592 -1.1244  0.0747  1.6146
15033TIP3   OH266513   3.678   2.828  13.110  0.2394 -0.0161 -0.0703
15033TIP3    H166514   3.691   2.787  13.025  0.5535 -0.5491  0.2203
15033TIP3    H266515   3.583   2.829  13.123  0.0930  1.5135 -1.0986
15034TIP3   OH266516   1.272   4.111  13.035 -0.0615 -0.3881 -0.1145
15034TIP3    H166517   1.268   4.064  12.952  1.2076 -0.3030 -0.2554
15034TIP3    H266518   1.261   4.043  13.102 -3.6686 -0.1498 -0.2893
15035TIP3   OH266519   0.531   2.888  13.477 -0.4151  0.1018  0.6087
15035TIP3    H166520   0.477   2.913  13.402  0.9414  2.4413  0.3050
15035TIP3    H266521   0.610   2.850  13.438 -0.8752 -1.3496  0.9981
15036TIP3   OH266522   6.504   4.956  16.306  0.4079 -0.1574  0.5057
15036TIP3    H166523   6.530   4.975  16.216  0.2792 -0.4253  0.4102
15036TIP3    H266524   6.578   4.906  16.342  1.3663  1.6842  1.1882
15037TIP3   OH266525   5.521   3.466   1.217  0.5256  0.0958  0.1423
15037TIP3    H166526   5.457   3.462   1.287  0.3867 -0.1117  0.0052
15037TIP3    H266527   5.484   3.528   1.154  0.6918  0.3495  0.2907
15038TIP3   OH266528   3.084   3.010   0.345 -0.2696 -0.4296 -0.1237
15038TIP3    H166529   3.005   2.986   0.393  0.2288 -0.7853  0.5517
15038TIP3    H266530   3.142   3.048   0.412  0.3580 -0.7335 -0.4818
15039TIP3   OH266531   2.045   3.548   1.808 -0.0411 -0.2096 -0.5042
15039TIP3    H166532   2.075   3.469   1.763  1.1092  0.0725 -0.2598
15039TIP3    H266533   1.998   3.598   1.741  2.8272  0.8684 -1.8375
15040TIP3   OH266534   6.164   5.940  11.482  0.6331  0.5348 -0.8127
15040TIP3    H166535   6.250   5.979  11.465  0.2503  2.7836  1.6995
15040TIP3    H266536   6.104   5.989  11.426  0.9078 -0.8884 -2.4049
15041TIP3   OH266537   2.133   2.993   5.997 -0.0164  0.0301  0.0531
15041TIP3    H166538   2.197   2.988   5.926  0.0656  1.8501 -0.0485
15041TIP3    H266539   2.064   3.050   5.962 -0.0870  0.7526  1.3244
15042TIP3   OH266540   1.749   4.858   5.034  0.3736 -0.1262 -0.4562
15042TIP3    H166541   1.821   4.865   5.097  0.8892 -0.7726 -0.9521
15042TIP3    H266542   1.788   4.812   4.959 -0.0270  1.2562 -1.5537
15043TIP3   OH266543   3.836   5.212   1.225 -0.7046 -0.2371 -0.2438
15043TIP3    H166544   3.747   5.230   1.196 -0.8074  0.7400  0.6189
15043TIP3    H266545   3.826   5.183   1.316 -0.0279  1.6705  0.4835
15044TIP3   OH266546   0.638   2.332  16.554  0.6165 -0.3041 -0.2059
15044TIP3    H166547   0.586   2.411  16.541  1.2074  0.3797  1.3820
15044TIP3    H266548   0.729   2.360  16.541  0.8076 -0.8149 -0.0033
15045TIP3   OH266549   1.232   6.406   5.555 -0.1341  0.3538  0.6691
15045TIP3    H166550   1.222   6.399   5.649  0.3727 -1.1377  0.6357
15045TIP3    H266551   1.325   6.424   5.542  0.3057 -1.9121  0.3883
15046TIP3   OH266552   4.346   0.720  13.704  0.3793  0.3518  0.4439
15046TIP3    H166553   4.416   0.703  13.767  0.6917  3.1352  0.9696
15046TIP3    H266554   4.265   0.714  13.754  0.3065 -1.3176  0.1798
15047TIP3   OH266555   1.399   5.907   3.376  0.4470  0.2403  0.5951
15047TIP3    H166556   1.372   5.836   3.317 -0.6545  0.1463  1.2005
15047TIP3    H266557   1.340   5.979   3.355 -0.6996 -0.1529  2.3312
15048TIP3   OH266558   2.861   6.235  15.161 -0.1030  0.2196 -0.3818
15048TIP3    H166559   2.913   6.266  15.087 -0.0072  0.3090 -0.2760
15048TIP3    H266560   2.816   6.313  15.193 -0.4770  0.1034 -0.6137
15049TIP3   OH266561   5.973   1.396  15.011 -0.6536  0.0910 -0.1592
15049TIP3    H166562   5.945   1.354  15.092 -0.5015  0.0836 -0.1115
15049TIP3    H266563   5.925   1.479  15.010  0.9857  1.1024  1.0246
15050TIP3   OH266564   5.870   2.360  14.277 -0.3204  0.2615  0.0513
15050TIP3    H166565   5.849   2.284  14.332 -2.7295  1.1361  0.4454
15050TIP3    H266566   5.817   2.349  14.199  1.2904  0.2607 -1.0834
15051TIP3   OH266567   2.386   0.095   0.180  0.2703 -0.4006 -0.8045
15051TIP3    H166568   2.311   0.062   0.229  0.1240  1.6799  0.4849
15051TIP3    H266569   2.399   0.184   0.213  0.9436  0.6808 -3.6923
15052TIP3   OH266570   5.149   0.159  13.271  0.1472 -0.2308  0.2737
15052TIP3    H166571   5.178   0.125  13.356 -0.2281 -0.9110  0.1332
15052TIP3    H266572   5.175   0.251  13.273  0.0422 -0.2049  1.1808
15053TIP3   OH266573   1.730   5.694   2.799  0.3981 -0.2985  0.3800
15053TIP3    H166574   1.651   5.748   2.800 -0.1719 -1.1109  1.3531
15053TIP3    H266575   1.744   5.670   2.891  0.1206 -2.5360 -0.1009
15054TIP3   OH266576   3.718   3.443   4.935  0.3452 -0.1177  0.1883
15054TIP3    H166577   3.780   3.378   4.969 -2.1227 -1.5193  2.3729
15054TIP3    H266578   3.655   3.455   5.006 -1.3381  1.9928 -1.5404
15055TIP3   OH266579   3.295   5.064   2.244  0.2534 -0.6162  0.4803
15055TIP3    H166580   3.266   5.097   2.159 -1.2529 -0.9533  0.8247
15055TIP3    H266581   3.379   5.021   2.226  0.2315 -0.1922 -0.7210
15056TIP3   OH266582   0.792   2.496  11.486 -0.3175  0.1623 -0.2091
15056TIP3    H166583   0.873   2.539  11.514 -0.7135  0.7256  0.0919
15056TIP3    H266584   0.802   2.405  11.514  0.0596  0.3095  0.1416
15057TIP3   OH266585   5.024   0.034   0.130 -0.3590 -0.2734 -0.1068
15057TIP3    H166586   5.042   0.069   0.043  0.2679 -2.0820 -0.7310
15057TIP3    H266587   5.076   0.088   0.189  0.4578 -0.0430 -1.0214
15058TIP3   OH266588   1.374   1.622  13.752  0.1368 -0.2300  0.0532
15058TIP3    H166589   1.344   1.606  13.662  0.5531  1.9908 -0.5154
15058TIP3    H266590   1.347   1.712  13.771  1.8516  0.0324  1.4275
15059TIP3   OH266591   2.807   5.964  17.074 -0.2379 -0.4861 -0.8070
15059TIP3    H166592   2.813   5.960  16.978  2.1888  1.1724 -0.8170
15059TIP3    H266593   2.897   5.950  17.103 -0.7658  0.0572  1.1907
15060TIP3   OH266594   5.117   0.633  16.908  0.1248  0.0318  0.1854
15060TIP3    H166595   5.144   0.578  16.982 -1.4242  0.4829  1.1465
15060TIP3    H266596   5.128   0.578  16.831 -1.5005 -1.7348  1.1309
15061TIP3   OH266597   0.689   4.670   0.519  0.1219  0.1304  0.9369
15061TIP3    H166598   0.692   4.608   0.592  0.0886  0.8121  1.5370
15061TIP3    H266599   0.613   4.643   0.467  1.0894 -1.3309  0.2481
15062TIP3   OH266600   1.983   4.835   0.156 -0.6212 -0.1054 -0.6763
15062TIP3    H166601   2.004   4.927   0.174  0.0108 -0.2156 -0.8282
15062TIP3    H266602   1.889   4.835   0.137 -0.5458  0.5647 -1.0686
15063TIP3   OH266603   6.029   6.596  10.519  0.2172  0.6489  0.2866
15063TIP3    H166604   5.984   6.524  10.562 -1.3736  0.3618 -1.7354
15063TIP3    H266605   5.982   6.675  10.547  0.1199  0.6049  0.2472
15064TIP3   OH266606   6.670   2.518   2.689  0.6298  0.1504 -0.1941
15064TIP3    H166607   6.585   2.560   2.701 -0.7272 -2.2120 -0.8686
15064TIP3    H266608   6.690   2.529   2.596  0.4551 -0.3646 -0.2933
15065TIP3   OH266609   2.180   2.745   5.352  0.2305  0.5435  0.1367
15065TIP3    H166610   2.140   2.832   5.351 -0.0082  0.4797 -2.3419
15065TIP3    H266611   2.274   2.762   5.347  0.1328  0.7545 -2.4351
15066TIP3   OH266612   3.672   0.653  11.979 -0.0734 -0.3701 -0.0800
15066TIP3    H166613   3.577   0.664  11.971  0.0612  0.3849 -0.8726
15066TIP3    H266614   3.683   0.577  12.035 -1.1335  0.8093  1.8114
15067TIP3   OH266615   4.097   5.188  11.685 -0.6392  0.5579  0.0737
15067TIP3    H166616   4.101   5.275  11.726  0.6228  1.5898 -2.0701
15067TIP3    H266617   4.011   5.184  11.644 -1.2731  0.1552  1.3664
15068TIP3   OH266618   2.989   5.788  12.903 -0.1085 -0.2452 -0.4144
15068TIP3    H166619   2.958   5.852  12.838 -2.8300 -0.2218  0.7864
15068TIP3    H266620   3.014   5.840  12.978 -0.9390 -0.4637  0.0309
15069TIP3   OH266621   6.740   2.600  16.514 -0.1498  0.1871  0.2724
15069TIP3    H166622   6.699   2.521  16.479  0.9523 -0.2478 -0.0821
15069TIP3    H266623   6.722   2.596  16.608 -1.3710  0.3023  0.0626
15070TIP3   OH266624   0.686   4.557  16.879 -0.5664 -0.1967 -0.6702
15070TIP3    H166625   0.682   4.474  16.928 -0.6550  0.2166  0.0339
15070TIP3    H266626   0.778   4.565  16.854  0.3133  1.2959  2.5094
15071TIP3   OH266627   6.105   2.909   6.357 -0.5823  0.6893 -0.1230
15071TIP3    H166628   6.031   2.850   6.343  0.2653 -0.3126 -0.5026
15071TIP3    H266629   6.151   2.873   6.433  0.3120  0.4505 -0.7558
15072TIP3   OH266630   4.608   5.071   6.189  0.1008 -0.5257 -0.3729
15072TIP3    H166631   4.633   5.163   6.196 -0.1261 -0.5581  1.2333
15072TIP3    H266632   4.690   5.023   6.184  0.3580 -0.4346  2.0482
15073TIP3   OH266633   1.287   3.564   5.548  0.2733 -0.6211  0.1136
15073TIP3    H166634   1.312   3.582   5.639  1.4381  0.7045 -0.4267
15073TIP3    H266635   1.314   3.642   5.500 -0.4999 -1.2178 -1.3493
15074TIP3   OH266636   0.873   3.072  12.347  0.2820  0.0153  0.2490
15074TIP3    H166637   0.858   3.065  12.253  0.2598  2.6033  0.0036
15074TIP3    H266638   0.796   3.118  12.381 -0.1148 -1.6258  1.7082
15075TIP3   OH266639   0.768   0.132   0.411  0.1034  0.2069  0.3599
15075TIP3    H166640   0.788   0.218   0.447 -2.9397  1.0480  0.3347
15075TIP3    H266641   0.799   0.136   0.321  0.5742  1.0221  0.5462
15076TIP3   OH266642   5.476   0.569  17.123 -0.0122  0.1110 -0.0701
15076TIP3    H166643   5.452   0.589  17.214  0.4265  0.5936 -0.0510
15076TIP3    H266644   5.401   0.522  17.088 -0.6453  0.8785  0.2164
15077TIP3   OH266645   0.420   3.793  14.476 -0.7168  0.0968  0.4966
15077TIP3    H166646   0.475   3.757  14.546 -0.8384 -0.8290  0.1197
15077TIP3    H266647   0.440   3.739  14.400 -0.1534  1.4695 -0.3546
15078TIP3   OH266648   2.910   4.282  17.259  0.3838  0.2412  0.1647
15078TIP3    H166649   2.848   4.224  17.216  0.5848  0.2360 -0.1208
15078TIP3    H266650   2.892   4.369  17.222  1.6286 -0.0278 -1.1429
15079TIP3   OH266651   4.793   0.626   0.576 -0.3095  0.1712  0.9159
15079TIP3    H166652   4.749   0.551   0.536 -0.8119  0.8998  0.0942
15079TIP3    H266653   4.850   0.660   0.508  2.3534 -1.3115  2.2062
15080TIP3   OH266654   0.027   6.662  16.064  0.3620  0.2265  0.1210
15080TIP3    H166655   0.013   6.694  15.975  0.7840 -0.2020 -0.1061
15080TIP3    H266656   0.035   6.741  16.118 -0.9453  0.4933 -0.0435
15081TIP3   OH266657   2.581   5.499  12.307  0.0439 -0.0412 -0.4659
15081TIP3    H166658   2.592   5.499  12.402  0.1008  1.8920 -0.4343
15081TIP3    H266659   2.669   5.516  12.274 -0.1113  0.0178 -0.8482
15082TIP3   OH266660   4.615   2.079   5.105  0.4962  0.2189  0.7099
15082TIP3    H166661   4.606   2.062   5.199  1.8048 -0.1996  0.7834
15082TIP3    H266662   4.688   2.140   5.099 -0.6798  1.6297  0.0512
15083TIP3   OH266663   3.682   2.624   4.995  0.2679  0.1620  0.7621
15083TIP3    H166664   3.688   2.565   5.070  1.6280 -0.7130  0.0164
15083TIP3    H266665   3.605   2.594   4.946  0.7716 -0.8419  0.5526
15084TIP3   OH266666   3.910   4.636   1.331 -0.4260  0.0996 -0.0692
15084TIP3    H166667   3.882   4.727   1.336 -0.0027  0.1978  0.6058
15084TIP3    H266668   3.952   4.619   1.415 -2.0588 -1.2378  0.5340
15085TIP3   OH266669   5.194   4.313  14.854  0.0050  0.1049  0.0015
15085TIP3    H166670   5.284   4.284  14.867  0.2004  0.8180  0.3484
15085TIP3    H266671   5.202   4.400  14.814 -0.5357 -0.0227 -0.3947
15086TIP3   OH266672   6.006   0.077   3.752  0.2608 -0.1538  0.1252
15086TIP3    H166673   5.936   0.129   3.711  0.2588 -1.0752 -1.1073
15086TIP3    H266674   6.078   0.079   3.689  0.9666 -0.0691  0.9211
15087TIP3   OH266675   1.044   4.303   0.713 -0.4261 -0.1758  0.0755
15087TIP3    H166676   1.044   4.214   0.679  1.1915 -0.3926  0.5578
15087TIP3    H266677   1.003   4.356   0.645  0.4709 -0.9761 -1.1154
15088TIP3   OH266678   1.559   2.782   5.002  0.4303 -0.4230 -0.3872
15088TIP3    H166679   1.565   2.787   5.098  0.2308 -0.8202 -0.3520
15088TIP3    H266680   1.610   2.857   4.971 -0.1992  0.2006  0.0476
15089TIP3   OH266681   5.864   3.072   1.483 -0.2828  0.8312  0.2201
15089TIP3    H166682   5.874   3.166   1.472 -0.0137  0.6979 -0.8831
15089TIP3    H266683   5.953   3.037   1.470 -0.3688  0.4394  0.6861
15090TIP3   OH266684   3.407   3.526  14.440 -0.0943  0.3604 -0.5065
15090TIP3    H166685   3.501   3.546  14.435 -0.2955  1.4153 -0.2649
15090TIP3    H266686   3.403   3.439  14.478  0.8474 -0.4125 -2.0768
15091TIP3   OH266687   2.987   5.488   4.288  0.4919  0.3987  1.0870
15091TIP3    H166688   2.922   5.534   4.236  0.8566  2.7476  2.5926
15091TIP3    H266689   2.941   5.462   4.367  0.4790 -1.3007  0.5670
15092TIP3   OH266690   3.015   0.920  14.710 -0.0278  0.2018 -0.3206
15092TIP3    H166691   2.936   0.912  14.656 -0.6372 -1.2073  0.7000
15092TIP3    H266692   2.989   0.887  14.796  1.3433  0.8981  0.3955
15093TIP3   OH266693   1.750   2.100  15.951 -0.5152  0.4800  0.0418
15093TIP3    H166694   1.843   2.097  15.928 -0.5316 -0.7725  0.0484
15093TIP3    H266695   1.713   2.022  15.910 -1.8917  1.7488 -1.2307
15094TIP3   OH266696   1.891   5.650   5.386 -0.0565  0.4120 -0.4074
15094TIP3    H166697   1.825   5.584   5.363 -0.0382 -0.1007  0.9134
15094TIP3    H266698   1.907   5.698   5.304 -0.7381 -0.6277 -1.1772
15095TIP3   OH266699   1.042   0.883   4.845  0.1562  0.5092 -0.2294
15095TIP3    H166700   1.086   0.874   4.930  2.6258  0.9002 -1.3672
15095TIP3    H266701   1.041   0.794   4.810 -1.2939  0.2696  0.3758
15096TIP3   OH266702   1.083   5.956   1.845  0.4577 -0.1060 -0.8199
15096TIP3    H166703   1.143   5.915   1.907  3.4088  1.8106 -2.1684
15096TIP3    H266704   1.021   6.004   1.899  1.5727 -0.2937  0.6842
15097TIP3   OH266705   0.539   5.049   1.616 -0.0090  0.6260  0.0925
15097TIP3    H166706   0.503   5.073   1.531 -0.5290  0.3283  0.2286
15097TIP3    H266707   0.475   4.990   1.654  0.9466 -0.4551  0.0564
15098TIP3   OH266708   4.297   3.404  13.642 -0.3195  0.0934  0.1453
15098TIP3    H166709   4.236   3.460  13.594  0.3076  0.5324 -0.1584
15098TIP3    H266710   4.369   3.462  13.666  0.4720 -0.6343 -0.3946
15099TIP3   OH266711   5.258   2.474   3.113 -0.0896  0.0090  0.1971
15099TIP3    H166712   5.178   2.517   3.084 -1.3198 -0.0881  3.0816
15099TIP3    H266713   5.230   2.420   3.187  3.0241  2.2879  3.3487
15100TIP3   OH266714   6.608   2.743  17.193 -0.2579 -0.5125  0.2528
15100TIP3    H166715   6.538   2.705  17.247 -0.3872  1.5835  1.6911
15100TIP3    H266716   6.689   2.707  17.228 -0.3040  1.1810  2.3035
15101TIP3   OH266717   2.431   2.324  11.809  0.0635 -0.6796  0.0617
15101TIP3    H166718   2.387   2.361  11.732  0.1291 -1.3908 -0.3202
15101TIP3    H266719   2.514   2.291  11.775  0.3099 -0.5503  0.5341
15102TIP3   OH266720   3.764   3.935   0.495  0.3975  0.4337 -0.3416
15102TIP3    H166721   3.830   3.993   0.532  1.2600 -0.2616 -0.7492
15102TIP3    H266722   3.680   3.970   0.526  0.8766  2.0207 -0.7827
15103TIP3   OH266723   2.893   5.901   3.433 -0.6558  0.0421 -0.4208
15103TIP3    H166724   2.812   5.925   3.387  0.6007 -0.3846 -3.0272
15103TIP3    H266725   2.952   5.975   3.418  0.1017 -0.5335 -0.3600
15104TIP3   OH266726   3.721   5.350  12.317 -0.0014 -0.0589  0.4962
15104TIP3    H166727   3.794   5.318  12.369  1.5261  1.4938 -0.6026
15104TIP3    H266728   3.760   5.411  12.254 -2.2377  0.8520 -0.1258
15105TIP3   OH266729   2.566   3.388  16.277 -0.2257  0.1087 -0.2307
15105TIP3    H166730   2.542   3.298  16.254  0.2491  0.4432 -2.2459
15105TIP3    H266731   2.657   3.396  16.249 -0.5639  1.5006 -0.9950
15106TIP3   OH266732   2.041   3.289  16.945 -0.1422 -0.1165 -0.5733
15106TIP3    H166733   2.021   3.228  17.016 -0.0798  0.4818 -0.0279
15106TIP3    H266734   2.128   3.323  16.966  0.0028 -0.1564 -1.0953
15107TIP3   OH266735   4.814   0.704   5.055  0.5211 -0.1700  0.2890
15107TIP3    H166736   4.745   0.740   5.111 -0.0872  0.7054 -0.9586
15107TIP3    H266737   4.895   0.740   5.089  0.0108  1.6552 -0.3336
15108TIP3   OH266738   2.268   6.347   4.647 -0.2109 -0.5630  0.7410
15108TIP3    H166739   2.198   6.358   4.582 -0.1652  1.4868  0.9789
15108TIP3    H266740   2.340   6.307   4.599  0.7402  3.0759 -1.2527
15109TIP3   OH266741   5.145   5.822  13.154  0.5188 -0.2984  0.5505
15109TIP3    H166742   5.049   5.823  13.150  0.5350 -1.1192 -0.2654
15109TIP3    H266743   5.171   5.910  13.125  0.0619 -0.7982 -1.5507
15110TIP3   OH266744   6.102   3.214   4.746  0.0555 -0.1913  0.2166
15110TIP3    H166745   6.196   3.207   4.762  0.1294  1.6064  0.8417
15110TIP3    H266746   6.071   3.124   4.746  1.2784 -0.7486  3.2774
15111TIP3   OH266747   1.501   4.460   0.994 -0.8496  0.4400  0.1815
15111TIP3    H166748   1.412   4.469   0.959 -0.8426 -0.9575 -0.2771
15111TIP3    H266749   1.558   4.479   0.920 -0.8324 -2.1686 -0.5687
15112TIP3   OH266750   4.796   5.635  13.012 -0.3243  0.9035  0.1020
15112TIP3    H166751   4.746   5.566  12.970 -1.7135  1.3939  0.8778
15112TIP3    H266752   4.888   5.614  12.993 -0.7446 -0.8051 -0.1731
15113TIP3   OH266753   5.783   5.573  12.778 -0.0931 -0.1373  0.0871
15113TIP3    H166754   5.692   5.554  12.803  0.1972 -0.5478  0.8649
15113TIP3    H266755   5.777   5.608  12.689 -1.0141 -0.1667  0.1311
15114TIP3   OH266756   5.501   6.337   5.816  0.3630 -0.0700  0.2973
15114TIP3    H166757   5.550   6.320   5.897  0.4174 -2.1569 -0.1439
15114TIP3    H266758   5.422   6.283   5.823  0.9373 -1.2448 -1.5427
15115TIP3   OH266759   6.185   0.099  17.277 -0.2662  0.2707 -0.5803
15115TIP3    H166760   6.146   0.023  17.233 -0.7043 -0.7103  1.3541
15115TIP3    H266761   6.278   0.077  17.286 -0.0193  0.8248 -1.6771
15116TIP3   OH266762   1.287   2.093  17.111  0.4106  0.2102  0.3345
15116TIP3    H166763   1.304   2.186  17.095  1.4647  0.1021  0.7340
15116TIP3    H266764   1.308   2.081  17.204 -0.6780 -0.2324  0.5365
15117TIP3   OH266765   1.908   5.328   1.310  0.1210  0.5168 -0.2039
15117TIP3    H166766   1.835   5.344   1.370  0.5345 -2.9964  1.5168
15117TIP3    H266767   1.878   5.257   1.255  1.9712 -0.5855  0.1346
15118TIP3   OH266768   5.481   3.618   4.940 -0.1578  0.5069  0.2515
15118TIP3    H166769   5.501   3.606   5.032 -0.8033  1.4060  0.5318
15118TIP3    H266770   5.386   3.632   4.938  0.0574  2.0808 -0.3518
15119TIP3   OH266771   1.831   0.866   2.050  0.0783  0.6726 -0.3085
15119TIP3    H166772   1.862   0.784   2.012 -1.2204 -0.1018  0.2088
15119TIP3    H266773   1.906   0.924   2.048  1.1471 -0.6666 -0.3411
15120TIP3   OH266774   3.122   0.013   0.038 -0.6119  0.4115  0.2815
15120TIP3    H166775   3.108  -0.075   0.073 -0.7073 -0.1752 -1.1519
15120TIP3    H266776   3.050   0.025  -0.024 -0.9450  1.7542  0.8996
15121TIP3   OH266777   4.852   6.082  13.196 -0.0838 -0.2584  0.1174
15121TIP3    H166778   4.924   6.103  13.137  0.5911 -1.4420  0.4987
15121TIP3    H266779   4.882   6.111  13.282 -0.9016  1.0881 -0.0215
15122TIP3   OH266780   2.695   0.729  11.763  0.3212 -0.0099 -0.2402
15122TIP3    H166781   2.667   0.727  11.671  0.8590  0.6957 -0.4298
15122TIP3    H266782   2.783   0.692  11.762  0.4034  0.1814 -0.0401
15123TIP3   OH266783   6.717   5.741   1.220  0.1739 -0.1282  0.3231
15123TIP3    H166784   6.635   5.699   1.193  1.1482 -2.4882  0.7773
15123TIP3    H266785   6.694   5.791   1.298 -0.9383 -0.3164  0.1367
15124TIP3   OH266786   5.604   6.063  13.821  0.0466 -0.4196 -0.0372
15124TIP3    H166787   5.664   6.025  13.884 -0.2123 -1.0589 -0.1695
15124TIP3    H266788   5.638   6.036  13.735  0.1903  0.1376 -0.1635
15125TIP3   OH266789   0.601   6.504  17.186  0.2796 -0.4168  0.1007
15125TIP3    H166790   0.645   6.497  17.101  2.6413 -0.7674  1.2701
15125TIP3    H266791   0.641   6.436  17.240  0.4809  1.2107  2.1454
15126TIP3   OH266792   0.455   4.677  12.375 -0.6611  0.4061  0.0866
15126TIP3    H166793   0.423   4.663  12.286 -0.0507  2.6879 -0.5450
15126TIP3    H266794   0.395   4.742  12.412 -2.1582 -1.9619  2.1263
15127TIP3   OH266795   2.787   0.091  12.090 -0.0594 -0.0725  0.1791
15127TIP3    H166796   2.846   0.024  12.056 -1.2426 -0.5841 -1.0035
15127TIP3    H266797   2.743   0.049  12.164 -0.3050 -0.3724 -0.1324
15128TIP3   OH266798   0.839   0.357  15.118 -0.1554 -0.0534  0.0648
15128TIP3    H166799   0.788   0.281  15.093  1.0521 -0.8894  0.0746
15128TIP3    H266800   0.870   0.394  15.035 -0.1963  0.0453  0.0934
15129TIP3   OH266801   0.677   4.040  13.609  0.2608 -0.1820  0.1223
15129TIP3    H166802   0.771   4.055  13.613 -0.0714  2.0378  2.4448
15129TIP3    H266803   0.643   4.112  13.557 -0.0296 -2.5443 -3.2584
15130TIP3   OH266804   4.095   3.643  16.991  0.3389  0.4047  0.6564
15130TIP3    H166805   4.174   3.610  17.033 -0.8897 -2.0904  1.1599
15130TIP3    H266806   4.103   3.615  16.900  0.3645  0.8291  0.5253
15131TIP3   OH266807   4.477   3.385  11.092  0.3813 -0.5024 -0.0591
15131TIP3    H166808   4.413   3.418  11.029  0.3715  2.2687  1.2384
15131TIP3    H266809   4.562   3.406  11.053  0.5612 -2.9830 -1.1728
15132TIP3   OH266810   5.926   4.723  14.259 -0.1875  0.5724 -0.2594
15132TIP3    H166811   5.838   4.685  14.263 -0.5071  1.3904  1.3072
15132TIP3    H266812   5.983   4.650  14.237 -1.2665  0.0697 -1.5665
15133TIP3   OH266813   1.744   0.431   0.929  0.1661 -0.0289 -0.8406
15133TIP3    H166814   1.668   0.446   0.872  0.6818 -1.2382 -1.8808
15133TIP3    H266815   1.814   0.481   0.888 -0.6505  3.5952  1.7364
15134TIP3   OH266816   5.240   5.039   6.271  0.2059 -0.7218 -0.0020
15134TIP3    H166817   5.285   5.107   6.320 -0.8215 -0.3872  0.5054
15134TIP3    H266818   5.292   4.960   6.287 -0.2407 -0.6880  1.8966
15135TIP3   OH266819   4.110   5.416  14.239  0.0763  0.4117  0.2933
15135TIP3    H166820   4.194   5.429  14.282 -0.6409 -1.5795  2.5669
15135TIP3    H266821   4.059   5.494  14.263  0.6470  0.6922  0.6207
15136TIP3   OH266822   2.965   4.798   2.147  0.7240  0.5678 -0.2357
15136TIP3    H166823   3.007   4.765   2.067  1.1413 -0.0940  0.2447
15136TIP3    H266824   2.890   4.739   2.159  0.9414  0.3664  0.1249
15137TIP3   OH266825   1.367   0.814   1.320 -0.0871  0.2848  0.1985
15137TIP3    H166826   1.429   0.877   1.283  1.3430 -0.5368  1.1000
15137TIP3    H266827   1.416   0.732   1.325 -0.6784 -0.0013  2.4766
15138TIP3   OH266828   0.909   2.934   5.626 -0.5278  0.4302 -0.4646
15138TIP3    H166829   0.941   3.004   5.569 -0.9048  0.4694 -0.6315
15138TIP3    H266830   0.972   2.930   5.697 -0.7136  1.1970 -0.2500
15139TIP3   OH266831   2.144   5.276   2.222  0.4474 -0.4761  0.2931
15139TIP3    H166832   2.073   5.331   2.256  0.5289  0.8395 -1.5004
15139TIP3    H266833   2.221   5.303   2.272  0.3087  0.4496  0.0248
15140TIP3   OH266834   0.668   2.303  12.333 -0.4350  0.0258 -0.1568
15140TIP3    H166835   0.673   2.323  12.426  2.1056 -0.5935 -0.0729
15140TIP3    H266836   0.639   2.212  12.329 -2.3554  0.6047 -0.0953
15141TIP3   OH266837   4.588   5.996   5.092 -0.8558 -0.5982  0.5485
15141TIP3    H166838   4.558   6.024   5.005 -0.3218 -1.1582  0.1669
15141TIP3    H266839   4.583   5.900   5.089 -1.4676 -0.5997  1.3782
15142TIP3   OH266840   6.268   1.402  15.314  0.1291 -0.3499 -0.8306
15142TIP3    H166841   6.362   1.409  15.325 -0.0641 -0.7913  1.6685
15142TIP3    H266842   6.255   1.398  15.219  2.7075 -1.8644 -1.2018
15143TIP3   OH266843   3.531   1.913  13.191 -0.1497  0.2656  0.2899
15143TIP3    H166844   3.453   1.955  13.155 -0.0196  0.4850  0.2635
15143TIP3    H266845   3.505   1.822  13.203 -0.6188  0.4757  0.8994
15144TIP3   OH266846   6.137   3.371  13.934  0.0729  0.6229  0.3337
15144TIP3    H166847   6.147   3.339  14.024 -0.7552  0.5298  0.4055
15144TIP3    H266848   6.104   3.460  13.944 -1.8948 -0.0282  0.1550
15145TIP3   OH266849   0.409   2.361  13.690 -0.2509 -0.4256 -0.4191
15145TIP3    H166850   0.332   2.417  13.676 -0.4211 -0.2043  1.2830
15145TIP3    H266851   0.478   2.404  13.640 -1.0055 -0.1353 -1.2482
15146TIP3   OH266852   1.530   2.874  11.602  0.0112  0.1870  0.6605
15146TIP3    H166853   1.486   2.922  11.532  0.3554 -0.7375 -0.2246
15146TIP3    H266854   1.622   2.897  11.593  0.0642  0.0246  0.7796
15147TIP3   OH266855   5.485   3.853  15.359 -0.0399  0.2865  0.0125
15147TIP3    H166856   5.489   3.945  15.386 -0.0991  0.0173  0.9544
15147TIP3    H266857   5.556   3.811  15.407 -0.0196 -0.1735 -0.4126
15148TIP3   OH266858   0.717   1.936  14.911  0.3442  0.2437 -0.0213
15148TIP3    H166859   0.735   1.903  15.000  0.4047  0.8826  0.2083
15148TIP3    H266860   0.639   1.889  14.884 -0.7187  1.3097  1.0683
15149TIP3   OH266861   2.424   3.472   2.548 -0.2896  0.3514 -0.9389
15149TIP3    H166862   2.470   3.535   2.604  0.2461  0.3271 -1.3438
15149TIP3    H266863   2.338   3.462   2.589  0.6582 -0.9434  0.8346
15150TIP3   OH266864   6.536   3.477   3.677  0.5437  0.5882  0.1093
15150TIP3    H166865   6.538   3.554   3.621 -1.0548  0.7386  0.2001
15150TIP3    H266866   6.478   3.416   3.632  0.2599  0.2101  0.9619
15151TIP3   OH266867   0.192   0.813  15.770  0.3295  0.1071 -0.1675
15151TIP3    H166868   0.235   0.739  15.813  0.3801  0.1935 -0.0678
15151TIP3    H266869   0.174   0.783  15.681  2.4887  0.7627 -0.9021
15152TIP3   OH266870   4.678   0.279  16.856 -0.3850 -0.0681  0.1797
15152TIP3    H166871   4.754   0.334  16.872 -0.6039  0.0111  1.0268
15152TIP3    H266872   4.603   0.334  16.879 -0.6693 -0.3225 -0.1247
15153TIP3   OH266873   6.337   5.297  17.160  0.0389  0.3303 -0.0287
15153TIP3    H166874   6.290   5.238  17.219  1.5318 -2.0251 -1.0324
15153TIP3    H266875   6.410   5.331  17.212 -0.9073  1.4960  0.5965
15154TIP3   OH266876   3.826   3.789  16.448 -0.0809  0.4924 -0.0125
15154TIP3    H166877   3.901   3.806  16.391 -0.1488 -0.3883 -0.3956
15154TIP3    H266878   3.848   3.829  16.531  0.7381  0.4078 -0.1816
15155TIP3   OH266879   1.020   0.006   0.025  0.1407 -0.1152  0.1825
15155TIP3    H166880   1.086   0.072   0.047 -0.0706 -0.1203  0.8718
15155TIP3    H266881   1.066  -0.058  -0.029 -0.0416  1.4359 -1.9111
15156TIP3   OH266882   0.844   0.604   0.699 -0.2988  0.7862 -0.0070
15156TIP3    H166883   0.766   0.611   0.753 -0.7986  2.2633 -0.8557
15156TIP3    H266884   0.915   0.639   0.754 -0.4867  0.6974  0.2902
15157TIP3   OH266885   6.343   3.283   6.139 -0.1466 -0.3895 -0.3548
15157TIP3    H166886   6.259   3.239   6.126 -1.4432  1.2003  1.8854
15157TIP3    H266887   6.389   3.229   6.203  0.4669 -1.1416 -1.4145
15158TIP3   OH266888   0.349   2.981  10.542  0.3018 -0.1211  0.2765
15158TIP3    H166889   0.275   2.970  10.483  0.4035 -0.0291  0.1316
15158TIP3    H266890   0.393   2.896  10.543  1.3260  0.3533 -1.1606
15159TIP3   OH266891   5.257   5.624   2.904  0.6429  0.2205 -0.0292
15159TIP3    H166892   5.165   5.600   2.900  1.3494 -3.0114  0.0881
15159TIP3    H266893   5.275   5.666   2.820 -1.0901  1.9134  0.3772
15160TIP3   OH266894   4.329   6.047  13.375 -0.4219  0.2216 -0.1184
15160TIP3    H166895   4.258   6.058  13.313  0.1472 -0.7423 -0.9687
15160TIP3    H266896   4.394   6.113  13.351  1.2136 -2.0862 -2.6628
15161TIP3   OH266897   0.914   3.690   6.063  0.5043  0.4046  0.3510
15161TIP3    H166898   0.844   3.643   6.017  2.5952 -1.5724 -0.9921
15161TIP3    H266899   0.927   3.770   6.012  1.1292 -0.6032 -1.1292
15162TIP3   OH266900   0.426   5.492   1.703  0.2855  0.2765 -0.5389
15162TIP3    H166901   0.339   5.480   1.740  0.1367  0.5718 -0.7923
15162TIP3    H266902   0.486   5.469   1.774  0.0011  0.5032 -0.2266
15163TIP3   OH266903   0.287   3.161  13.657 -0.2904  0.7800 -0.4184
15163TIP3    H166904   0.377   3.176  13.626  0.1396  2.5746  1.4494
15163TIP3    H266905   0.242   3.243  13.638 -0.7446  0.9173  1.1138
15164TIP3   OH266906   6.514   3.973  12.477 -0.2581 -0.4093 -0.2582
15164TIP3    H166907   6.438   3.948  12.529  1.4577 -1.0253  2.1655
15164TIP3    H266908   6.564   3.892  12.466  1.4228  0.4251  0.7276
15165TIP3   OH266909   4.584   5.519  14.153  0.1698  0.6049 -0.0020
15165TIP3    H166910   4.556   5.549  14.066 -0.4566  0.9535  0.3180
15165TIP3    H266911   4.568   5.594  14.210  2.9020  1.3089  0.0002
15166TIP3   OH266912   2.220   6.144  11.352  0.2770 -0.0139  0.4252
15166TIP3    H166913   2.222   6.230  11.395  0.9195 -0.2697  0.9086
15166TIP3    H266914   2.145   6.150  11.292  0.7197  1.1332 -0.0557
15167TIP3   OH266915   1.438   1.303  17.039 -0.3732 -0.1759 -0.2546
15167TIP3    H166916   1.475   1.379  16.994 -0.5147  1.3228  2.0313
15167TIP3    H266917   1.375   1.339  17.101 -2.8373 -2.4136 -1.2738
15168TIP3   OH266918   5.181   0.403   3.212  0.0007  0.0775  0.2684
15168TIP3    H166919   5.101   0.444   3.178  0.4190  0.4165 -0.3271
15168TIP3    H266920   5.236   0.390   3.134  0.2564 -0.7647  0.5824
15169TIP3   OH266921   2.389   0.466   0.905 -0.2830  0.1946  0.0076
15169TIP3    H166922   2.398   0.546   0.855  1.7394  0.0036 -0.0088
15169TIP3    H266923   2.374   0.398   0.840  3.4218 -0.2287 -0.5939
15170TIP3   OH266924   5.900   1.572   1.900 -0.1421 -0.0463  0.3790
15170TIP3    H166925   5.908   1.522   1.819  0.1824 -0.1472  0.4702
15170TIP3    H266926   5.906   1.506   1.969  0.3580  0.1206  0.5021
15171TIP3   OH266927   6.610   2.873  16.632  0.0175 -0.4759 -0.2135
15171TIP3    H166928   6.659   2.883  16.713  1.1213  2.2017 -1.1004
15171TIP3    H266929   6.677   2.865  16.564 -0.8526 -0.3878 -1.1034
15172TIP3   OH266930   2.517   0.398  16.826 -0.3840 -0.3524 -0.0753
15172TIP3    H166931   2.444   0.341  16.851 -0.3727 -0.1175  0.5176
15172TIP3    H266932   2.590   0.369  16.881  0.1279 -0.9392 -1.0443
15173TIP3   OH266933   0.337   2.661   4.294  0.0481 -0.7655 -0.6837
15173TIP3    H166934   0.299   2.639   4.209  1.2194 -0.3309 -1.3315
15173TIP3    H266935   0.265   2.703   4.341 -0.5453 -0.7930 -1.5389
15174TIP3   OH266936   1.425   0.339  14.059 -0.1070 -0.7903  0.4738
15174TIP3    H166937   1.338   0.329  14.021 -1.3464  1.3073  2.5729
15174TIP3    H266938   1.419   0.416  14.115  2.9280 -0.9889  1.2505
15175TIP3   OH266939   0.793   1.794  14.498  0.1617  0.1570  0.0696
15175TIP3    H166940   0.866   1.854  14.514  0.7672 -0.7351  0.7860
15175TIP3    H266941   0.743   1.834  14.427  1.2123  0.9005 -0.2637
15176TIP3   OH266942   5.322   2.591   0.305  0.3034 -0.3338  0.1590
15176TIP3    H166943   5.381   2.615   0.376  0.6158  1.2779 -0.6095
15176TIP3    H266944   5.363   2.516   0.263  2.7922  1.7380 -1.4086
15177TIP3   OH266945   5.035   4.859  15.056  0.2270 -0.5864  0.4665
15177TIP3    H166946   5.093   4.933  15.076 -0.2229 -0.0014 -0.3625
15177TIP3    H266947   4.947   4.894  15.066 -0.0282 -1.6096  2.2407
15178TIP3   OH266948   3.140   6.759   2.509  0.1946  0.2974  0.3108
15178TIP3    H166949   3.074   6.766   2.440 -0.9066  1.1371  1.4106
15178TIP3    H266950   3.151   6.665   2.523  1.6843  0.0340 -2.1316
15179TIP3   OH266951   0.093   4.919  12.090 -0.1479  0.5092  0.3983
15179TIP3    H166952   0.004   4.906  12.058  0.4711 -2.1136 -0.4944
15179TIP3    H266953   0.100   4.862  12.167  1.0715 -0.2665 -0.2512
15180TIP3   OH266954   5.575   3.823   4.572  0.0298 -0.1071  0.2767
15180TIP3    H166955   5.657   3.794   4.612 -1.3324 -0.4576  3.0818
15180TIP3    H266956   5.560   3.910   4.608 -0.6863  0.0649 -0.4035
15181TIP3   OH266957   1.499   6.594   2.108  0.0737  1.0500 -0.0261
15181TIP3    H166958   1.452   6.531   2.053 -0.4389  0.4769  1.0414
15181TIP3    H266959   1.464   6.679   2.081  0.1227  0.8198 -0.8593
15182TIP3   OH266960   4.964   5.303   3.897  0.8294 -0.2158 -0.2734
15182TIP3    H166961   4.969   5.283   3.991  2.0527  2.9597  0.4714
15182TIP3    H266962   5.052   5.334   3.875 -0.4385  2.9921 -1.3699
15183TIP3   OH266963   6.622   2.558  12.270  0.3438 -0.1320  0.9085
15183TIP3    H166964   6.655   2.560  12.360  1.3169 -1.0250  0.5869
15183TIP3    H266965   6.694   2.590  12.216 -0.6580  1.6285  0.5274
15184TIP3   OH266966   6.740   2.416   1.463  0.6087 -0.6373 -0.5712
15184TIP3    H166967   6.656   2.372   1.478 -0.2628  1.0833 -0.2198
15184TIP3    H266968   6.722   2.509   1.476  2.9715 -0.3427  1.3969
15185TIP3   OH266969   6.513   2.479  14.362  0.0162  0.4099 -0.3747
15185TIP3    H166970   6.600   2.464  14.399 -0.4822 -1.1688  0.2594
15185TIP3    H266971   6.492   2.397  14.317 -1.3357  0.5667 -0.0804
15186TIP3   OH266972   0.127   1.076   0.809 -0.5551  0.2757 -0.3933
15186TIP3    H166973   0.147   1.103   0.898 -1.4847  0.2788 -0.1735
15186TIP3    H266974   0.037   1.043   0.813 -0.1688 -0.9335 -1.0690
15187TIP3   OH266975   3.638   2.343   6.743  1.1231 -0.0182 -0.2567
15187TIP3    H166976   3.566   2.299   6.697  1.3183  0.5590 -1.1507
15187TIP3    H266977   3.703   2.274   6.758  0.2626 -0.6101  0.8400
15188TIP3   OH266978   6.393   5.587   6.048 -0.0894  0.5020 -0.1264
15188TIP3    H166979   6.469   5.581   5.991  0.5077 -2.6175  0.8079
15188TIP3    H266980   6.320   5.557   5.994 -0.7058  3.1639 -0.9151
15189TIP3   OH266981   4.995   4.387   0.252  0.4642  0.4623  0.4865
15189TIP3    H166982   5.056   4.322   0.216  0.2368  0.3818  0.2464
15189TIP3    H266983   4.924   4.335   0.289  0.6825  0.5455  1.0314
15190TIP3   OH266984   1.697   3.441   2.129 -0.6107  0.1387  0.6931
15190TIP3    H166985   1.645   3.497   2.187  0.2091  1.0721  0.5554
15190TIP3    H266986   1.787   3.470   2.142  0.2008 -2.7607  2.4248
15191TIP3   OH266987   6.377   5.399  15.321  0.4341 -0.1282 -0.7344
15191TIP3    H166988   6.442   5.399  15.250  0.1728 -0.2161 -0.9722
15191TIP3    H266989   6.293   5.398  15.276  0.2307  1.5209 -0.4665
15192TIP3   OH266990   3.746   1.473   2.308 -0.5112 -0.3693 -0.0753
15192TIP3    H166991   3.663   1.444   2.271 -0.4831 -1.4854  0.7073
15192TIP3    H266992   3.807   1.402   2.290 -0.0901 -0.2056  0.6405
15193TIP3   OH266993   3.935   4.529   1.803  0.3876 -0.1239 -0.8348
15193TIP3    H166994   3.858   4.573   1.839  0.9079 -0.6452  1.0629
15193TIP3    H266995   3.916   4.435   1.815  0.4973 -0.3286 -2.1718
15194TIP3   OH266996   2.417   4.013  11.750  0.4053 -0.1308 -0.5278
15194TIP3    H166997   2.470   3.969  11.816  1.5222  1.0569 -0.5920
15194TIP3    H266998   2.354   4.064  11.801  0.6603  0.0536 -0.3914
15195TIP3   OH266999   3.684   6.488   0.620  0.1630 -0.0164  0.8274
15195TIP3    H167000   3.671   6.393   0.622 -1.1217  0.0978 -0.4578
15195TIP3    H267001   3.662   6.514   0.531 -0.9970  1.6796  1.5506
15196TIP3   OH267002   2.031   2.955  13.770 -0.1501  0.1921 -0.0651
15196TIP3    H167003   1.985   3.029  13.731  0.1822  0.6146  0.3251
15196TIP3    H267004   2.065   2.989  13.853 -0.5222 -0.5781  0.4150
15197TIP3   OH267005   6.123   4.369  14.730 -0.1745  0.0331  0.0104
15197TIP3    H167006   6.182   4.392  14.658  0.2705 -0.4168  0.2236
15197TIP3    H267007   6.149   4.280  14.755 -0.1287  0.2925  0.9140
15198TIP3   OH267008   5.404   4.670   4.494  0.4284 -0.6719  0.0752
15198TIP3    H167009   5.423   4.762   4.473  1.0803 -0.9237 -0.4883
15198TIP3    H267010   5.402   4.668   4.589  0.2383 -0.0367  0.0925
15199TIP3   OH267011   6.273   2.635   5.537  0.1986 -0.6735 -0.6560
15199TIP3    H167012   6.295   2.628   5.630 -1.2038 -1.6470 -0.3698
15199TIP3    H267013   6.231   2.552   5.515 -1.9101  0.5232 -1.4684
15200TIP3   OH267014   1.882   6.051  15.027 -0.5542  0.1984 -0.5491
15200TIP3    H167015   1.814   6.026  15.089  0.8062 -1.6206  0.3343
15200TIP3    H267016   1.851   6.017  14.943 -0.2593 -1.7295  0.0612
15201TIP3   OH267017   0.822   1.427  12.331  0.2040  0.1100  0.1531
15201TIP3    H167018   0.825   1.338  12.366 -0.8218  0.0554  0.1397
15201TIP3    H267019   0.850   1.483  12.404 -0.4448 -0.1267  0.5971
15202TIP3   OH267020   0.289   1.355  13.149 -0.2167  0.4271  0.0241
15202TIP3    H167021   0.344   1.411  13.093  1.1899  0.3260  1.2574
15202TIP3    H267022   0.294   1.396  13.236 -0.0346 -1.0112  0.7118
15203TIP3   OH267023   3.053   2.466  16.589 -0.0681 -0.4308  0.2464
15203TIP3    H167024   3.062   2.371  16.584  0.6036 -0.3943  0.6702
15203TIP3    H267025   3.093   2.498  16.508 -0.4507 -0.5188  0.0218
15204TIP3   OH267026   3.223   1.851  12.640  0.2165 -0.4742 -0.3468
15204TIP3    H167027   3.153   1.916  12.631  1.7154  1.2179 -0.2351
15204TIP3    H267028   3.221   1.803  12.557  0.0346  0.7318 -1.0751
15205TIP3   OH267029   3.974   3.465   2.941 -0.6475  0.0617  0.1305
15205TIP3    H167030   3.948   3.400   3.007  0.7184  2.7937  3.6701
15205TIP3    H267031   4.066   3.447   2.925  0.3505  2.1751  2.7700
15206TIP3   OH267032   0.904   6.650  13.981 -0.3018 -0.1927 -0.0654
15206TIP3    H167033   0.928   6.673  14.070  2.4419  1.3441 -1.0732
15206TIP3    H267034   0.962   6.578  13.958  0.0896  0.4144 -1.0559
15207TIP3   OH267035   5.598   1.834  12.203 -0.4324  0.0481 -0.4788
15207TIP3    H167036   5.602   1.894  12.277 -1.1912 -0.8654  0.3120
15207TIP3    H267037   5.640   1.754  12.233  1.5227  0.4784 -1.8726
15208TIP3   OH267038   0.337   5.426  13.457 -0.1054  0.1915 -0.4730
15208TIP3    H167039   0.324   5.343  13.411  0.5247 -1.1817  1.6616
15208TIP3    H267040   0.270   5.426  13.526 -1.8694  2.7824 -1.9923
15209TIP3   OH267041   1.446   1.629   0.428  0.3614 -0.0855  0.2036
15209TIP3    H167042   1.466   1.538   0.450 -1.4708 -0.5961 -0.0378
15209TIP3    H267043   1.492   1.646   0.347  1.2605 -0.5738  0.6035
15210TIP3   OH267044   1.528   3.825  10.599 -0.2934 -0.0778 -0.0955
15210TIP3    H167045   1.532   3.749  10.658 -1.5410 -0.5995 -0.6542
15210TIP3    H267046   1.537   3.900  10.658 -1.1273 -0.5994  0.7424
15211TIP3   OH267047   1.848   2.207  16.995 -0.9102 -0.5474 -0.0211
15211TIP3    H167048   1.904   2.190  16.920  1.5543 -1.2830  1.8521
15211TIP3    H267049   1.871   2.295  17.023  0.5154 -1.4042  1.6595
15212TIP3   OH267050   5.401   5.775   1.608  0.1021  0.0819  0.3677
15212TIP3    H167051   5.312   5.767   1.573  0.7425 -0.6037 -1.1898
15212TIP3    H267052   5.418   5.870   1.609 -0.2427  0.1563 -0.3864
15213TIP3   OH267053   0.948   5.573   1.744 -0.5534 -0.2077  0.6298
15213TIP3    H167054   0.998   5.583   1.825  0.1955  0.0580  0.1461
15213TIP3    H267055   0.923   5.481   1.742 -0.4803 -0.2396  1.1018
15214TIP3   OH267056   3.757   6.281  15.260 -0.1307 -0.6426  0.1618
15214TIP3    H167057   3.737   6.188  15.244  0.5742 -0.4883 -1.8276
15214TIP3    H267058   3.849   6.290  15.237 -0.8661  1.1068 -2.4437
15215TIP3   OH267059   5.398   3.129  11.315  0.4529  0.4438 -0.0473
15215TIP3    H167060   5.406   3.038  11.288 -0.6570  0.3652 -0.1625
15215TIP3    H267061   5.352   3.172  11.243 -1.0137  0.5951  0.9283
15216TIP3   OH267062   4.595   1.296  10.947 -0.2841  0.4067  0.7265
15216TIP3    H167063   4.509   1.273  10.981 -0.4335 -1.2382 -0.6523
15216TIP3    H267064   4.649   1.220  10.965  0.3092  0.5552 -0.3454
15217TIP3   OH267065   4.605   4.025   2.449  0.4042 -0.5205 -0.0747
15217TIP3    H167066   4.640   3.970   2.519  1.4001  0.8482  0.5590
15217TIP3    H267067   4.631   3.981   2.368  1.9985 -0.5388  0.4104
15218TIP3   OH267068   4.078   5.381   1.200 -0.3831  0.1203 -1.0178
15218TIP3    H167069   3.982   5.381   1.202 -0.3713  0.7694  0.3707
15218TIP3    H267070   4.101   5.292   1.171 -1.4059 -0.8123  0.8327
15219TIP3   OH267071   3.104   3.291  11.646  0.1807 -0.0422 -0.1819
15219TIP3    H167072   3.116   3.327  11.734 -1.0219 -1.5467  0.6534
15219TIP3    H267073   3.183   3.240  11.629 -0.2859 -1.1323  0.7714
15220TIP3   OH267074   2.066   0.270  12.649  0.5355 -0.0263 -0.0003
15220TIP3    H167075   2.084   0.299  12.739  2.8210 -1.7613  0.1958
15220TIP3    H267076   2.145   0.294  12.601 -0.0977 -0.3699 -1.2345
15221TIP3   OH267077   6.153   0.864  16.664 -0.2838  0.2904 -0.2667
15221TIP3    H167078   6.209   0.858  16.587  0.5257  1.5534  0.1796
15221TIP3    H267079   6.089   0.932  16.642 -1.8274 -1.2856 -0.8502
15222TIP3   OH267080   1.747   1.989  12.371 -0.0004 -0.1369  0.2559
15222TIP3    H167081   1.685   1.926  12.409 -1.9635  3.0512  2.9792
15222TIP3    H267082   1.831   1.943  12.370 -1.3459 -2.8664  1.8413
15223TIP3   OH267083   6.598   2.679   5.376 -0.5810 -0.7108  0.4614
15223TIP3    H167084   6.688   2.689   5.406 -0.1085  2.0245 -1.4598
15223TIP3    H267085   6.545   2.718   5.446  0.0298  0.5379  0.2566
15224TIP3   OH267086   6.526   5.379  15.091 -0.3777 -0.3019 -0.0027
15224TIP3    H167087   6.487   5.312  15.035 -1.1813 -0.0669  0.2605
15224TIP3    H267088   6.543   5.453  15.032  2.8750 -1.5630 -0.8522
15225TIP3   OH267089   0.664   6.255  11.274  0.8036 -0.1526  0.0074
15225TIP3    H167090   0.699   6.331  11.226 -0.8910  1.2186  0.8148
15225TIP3    H267091   0.637   6.194  11.205  3.6021 -0.7933 -0.6448
15226TIP3   OH267092   6.070   2.205  13.304 -0.3184 -0.5893 -0.3439
15226TIP3    H167093   6.009   2.163  13.365 -0.9385  0.0668 -0.5043
15226TIP3    H267094   6.117   2.269  13.358  0.0446 -0.9114 -0.2775
15227TIP3   OH267095   3.591   1.354   1.550 -0.0353  0.0800 -0.4399
15227TIP3    H167096   3.656   1.292   1.585  0.2654 -0.5265 -2.0029
15227TIP3    H267097   3.639   1.436   1.543  0.2239 -0.0735 -0.4970
15228TIP3   OH267098   3.112   0.968   1.947  0.0900 -0.1531  0.2460
15228TIP3    H167099   3.148   0.961   2.035 -0.4963 -0.6494  0.4507
15228TIP3    H267100   3.188   0.964   1.889  0.4291 -0.3404  0.7041
15229TIP3   OH267101   2.525   0.074  13.517 -0.4469 -0.5504  0.5310
15229TIP3    H167102   2.614   0.097  13.491 -0.1913 -0.0278  1.7591
15229TIP3    H267103   2.494   0.014  13.449  0.2557  0.5016 -0.7599
15230TIP3   OH267104   2.664   3.966   5.373  0.5122 -0.7509  0.1714
15230TIP3    H167105   2.642   3.997   5.285  1.6143  1.2674  0.5344
15230TIP3    H267106   2.754   3.936   5.366  0.5918 -0.6208  0.5843
15231TIP3   OH267107   5.012   2.151  11.784 -0.0762 -0.3055 -0.1102
15231TIP3    H167108   4.932   2.192  11.817  0.6059  0.9657  0.0288
15231TIP3    H267109   5.069   2.145  11.861  0.9675  1.3111 -0.7081
15232TIP3   OH267110   3.706   4.762  16.694 -0.1253 -0.4949 -0.2099
15232TIP3    H167111   3.697   4.797  16.783 -0.9289 -0.9364 -0.1087
15232TIP3    H267112   3.761   4.826  16.648 -1.4969  0.8745 -0.0052
15233TIP3   OH267113   1.856   1.319  12.249 -0.3951 -0.4775  0.1122
15233TIP3    H167114   1.884   1.286  12.164  0.7523 -0.1792  0.3596
15233TIP3    H267115   1.845   1.413  12.237 -0.0079 -0.3986  0.3373
15234TIP3   OH267116   2.699   3.808   1.953 -0.7728  0.0642  0.1657
15234TIP3    H167117   2.715   3.720   1.917  2.7728  0.8959 -0.6471
15234TIP3    H267118   2.629   3.843   1.898 -1.6618 -1.8851 -0.0630
15235TIP3   OH267119   1.984   2.133   4.759  0.0694 -0.4070 -0.0539
15235TIP3    H167120   2.067   2.148   4.713 -0.4650  1.6919 -0.4653
15235TIP3    H267121   1.960   2.043   4.738  1.7217 -0.7209 -0.7648
15236TIP3   OH267122   1.649   4.019  14.395  0.1992 -0.3093  0.2652
15236TIP3    H167123   1.730   4.011  14.344 -0.2450 -0.0117 -0.5172
15236TIP3    H267124   1.614   3.930  14.399 -0.0475 -0.2491 -0.4427
15237TIP3   OH267125   2.019   4.943   4.645  0.4209 -0.0910 -0.0971
15237TIP3    H167126   1.974   5.014   4.691 -1.3621  0.1317 -2.0623
15237TIP3    H267127   2.042   4.980   4.560  2.0303 -1.0434 -0.1256
15238TIP3   OH267128   2.775   5.364  11.451  0.3315  0.0706 -0.3983
15238TIP3    H167129   2.823   5.439  11.485 -2.0092  1.8258 -0.6516
15238TIP3    H267130   2.731   5.398  11.372 -1.0254 -1.4671 -0.3644
15239TIP3   OH267131   2.341   5.928  13.288 -0.5578  0.3985  0.1272
15239TIP3    H167132   2.367   5.854  13.232 -2.5471  0.5016 -1.0207
15239TIP3    H267133   2.291   5.887  13.359  0.9528  0.3882  1.2297
15240TIP3   OH267134   3.542   3.407  13.421 -0.0225  0.2714 -0.4811
15240TIP3    H167135   3.574   3.489  13.457  0.5638  0.2928 -1.0283
15240TIP3    H267136   3.588   3.398  13.338 -1.5785  0.3716 -1.3801
15241TIP3   OH267137   1.663   0.600  14.425  0.5355 -0.5361 -0.0738
15241TIP3    H167138   1.703   0.687  14.418 -1.6905  0.4248 -4.4416
15241TIP3    H267139   1.581   0.615  14.472 -0.4181  0.0925 -1.8453
15242TIP3   OH267140   5.795   6.566   2.499  0.3314  0.2923 -0.3225
15242TIP3    H167141   5.842   6.606   2.426 -0.0414 -0.9427 -1.2859
15242TIP3    H267142   5.863   6.519   2.548  0.5952  1.1917  0.1963
15243TIP3   OH267143   1.624   1.461  16.887  0.4274 -0.2083 -0.2016
15243TIP3    H167144   1.699   1.403  16.870  1.1634  0.6258  0.1585
15243TIP3    H267145   1.657   1.549  16.871 -1.2531  0.0608 -2.8493
15244TIP3   OH267146   0.793   0.340  13.687  0.3233 -0.2167  0.8210
15244TIP3    H167147   0.856   0.324  13.617 -0.4863 -0.6128  0.1663
15244TIP3    H267148   0.843   0.388  13.754  1.2965 -0.4718  0.3004
15245TIP3   OH267149   2.482   2.571  12.864  0.1023 -0.2495 -0.4027
15245TIP3    H167150   2.464   2.600  12.954  2.6319  0.4318 -0.0233
15245TIP3    H267151   2.523   2.647  12.823  1.7184 -1.4916 -1.1783
15246TIP3   OH267152   0.658   1.281   2.475 -0.1300 -0.3419  0.1321
15246TIP3    H167153   0.584   1.248   2.526 -1.4610  1.8103 -0.2802
15246TIP3    H267154   0.682   1.363   2.517 -0.2653  0.7280 -1.7808
15247TIP3   OH267155   0.098   4.350  12.034 -0.4151 -0.0238 -0.2959
15247TIP3    H167156   0.108   4.261  11.999  1.2825 -0.5735  1.4369
15247TIP3    H267157   0.032   4.341  12.103 -1.2955  0.3994 -1.0452
15248TIP3   OH267158   3.288   5.748   2.927 -0.2969 -0.2793 -0.1329
15248TIP3    H167159   3.196   5.776   2.932 -0.0867  0.2435  1.2099
15248TIP3    H267160   3.284   5.653   2.939 -0.7170 -0.3812 -0.9695
15249TIP3   OH267161   6.079   0.603  16.106  0.1398 -0.1309  0.4784
15249TIP3    H167162   6.029   0.675  16.145 -0.5128 -0.2517 -0.1202
15249TIP3    H267163   6.170   0.632  16.110 -0.0075  0.2460  1.2633
15250TIP3   OH267164   2.040   2.800  15.734  0.0456  0.0300 -0.0237
15250TIP3    H167165   2.120   2.844  15.706  0.0167  0.4822  0.5769
15250TIP3    H267166   1.990   2.868  15.779 -0.8039 -0.1792 -0.6278
15251TIP3   OH267167   4.703   4.940  10.466 -0.0562 -1.0209  0.7708
15251TIP3    H167168   4.662   4.898  10.542  1.1291 -0.6198  1.6540
15251TIP3    H267169   4.782   4.981  10.501 -0.4652  0.7825 -0.3287
15252TIP3   OH267170   2.150   6.196  15.343 -0.1745 -0.1115  0.1047
15252TIP3    H167171   2.067   6.150  15.328 -0.8383  1.3539 -0.9056
15252TIP3    H267172   2.175   6.171  15.432 -0.7907 -1.9388 -0.1841
15253TIP3   OH267173   4.814   0.461  12.042  0.1807  0.2829  0.4557
15253TIP3    H167174   4.765   0.498  11.968 -1.2379  0.2767  1.3510
15253TIP3    H267175   4.905   0.463  12.013 -0.2502  0.9888 -0.9914
15254TIP3   OH267176   0.626   3.153   5.351  0.3977 -0.0515  0.7303
15254TIP3    H167177   0.650   3.210   5.278  1.8659 -0.8959  0.4980
15254TIP3    H267178   0.576   3.082   5.311  2.6187 -1.4191  0.1783
15255TIP3   OH267179   0.440   3.375   4.220 -0.6644 -0.1587  0.6040
15255TIP3    H167180   0.384   3.438   4.175 -1.5472 -2.3130 -1.5161
15255TIP3    H267181   0.392   3.292   4.215  1.7747 -1.6691  0.5428
15256TIP3   OH267182   5.555   0.903  10.778  0.0114 -0.0638 -0.4378
15256TIP3    H167183   5.604   0.980  10.806  0.1853 -0.1794 -0.4180
15256TIP3    H267184   5.502   0.933  10.704 -0.6620  0.3159  0.1815
15257TIP3   OH267185   1.955   5.150  16.532  0.1171  0.4098 -0.4035
15257TIP3    H167186   1.985   5.168  16.443 -2.2025  3.0605 -0.7651
15257TIP3    H267187   1.981   5.226  16.583  0.9282 -0.8277  1.1462
15258TIP3   OH267188   5.456   6.660  11.961  0.5909 -0.4661  0.0877
15258TIP3    H167189   5.505   6.723  11.908 -1.7243  0.9456 -0.4895
15258TIP3    H267190   5.397   6.617  11.899 -0.4513 -0.5283  1.0842
15259TIP3   OH267191   3.845   0.513  12.956  0.0268  0.5652  0.6141
15259TIP3    H167192   3.779   0.517  13.025 -0.2472 -1.0677  0.4942
15259TIP3    H267193   3.798   0.476  12.881  0.1021  3.0733 -0.7727
15260TIP3   OH267194   4.162   5.105   1.916  0.4101  0.3171  0.1141
15260TIP3    H167195   4.212   5.032   1.953 -0.6002 -0.4775 -0.0484
15260TIP3    H267196   4.120   5.068   1.838 -1.7748  0.4656  1.1573
15261TIP3   OH267197   0.184   1.116   1.597  0.4433 -0.0288  0.5534
15261TIP3    H167198   0.125   1.138   1.669  1.1509 -0.8875  1.4263
15261TIP3    H267199   0.263   1.083   1.640  0.7377 -0.9327 -0.6297
15262TIP3   OH267200   3.470   2.798   4.391 -0.1406 -0.1306 -0.1052
15262TIP3    H167201   3.480   2.887   4.425 -2.1931  0.0489  0.1759
15262TIP3    H267202   3.445   2.746   4.467  1.8270 -1.1453 -0.1146
15263TIP3   OH267203   5.819   3.121  14.129 -0.1020  0.1271  0.8365
15263TIP3    H167204   5.751   3.058  14.154 -1.8253  1.3808 -0.3894
15263TIP3    H267205   5.878   3.072  14.072 -0.5430 -0.7523  1.1156
15264TIP3   OH267206   1.569   4.098  11.489  0.3296 -0.4299 -0.3182
15264TIP3    H167207   1.563   4.103  11.584 -1.5278  1.4415 -0.4499
15264TIP3    H267208   1.478   4.106  11.458  1.0342  1.1171 -2.2500
15265TIP3   OH267209   3.473   2.230   5.214 -0.0544  0.1322 -0.2285
15265TIP3    H167210   3.471   2.151   5.159  2.3250 -0.2963  0.1819
15265TIP3    H267211   3.522   2.203   5.292  1.3672  2.1358 -0.3506
15266TIP3   OH267212   0.362   0.601  17.042  0.1219 -0.1628  0.3715
15266TIP3    H167213   0.404   0.520  17.071 -0.4246 -0.7721 -0.4758
15266TIP3    H267214   0.285   0.571  16.993 -1.2187  0.9072  1.7268
15267TIP3   OH267215   1.035   6.494   0.968 -0.3665  0.5435  0.4014
15267TIP3    H167216   0.974   6.430   1.006  0.5719 -0.4403  0.2979
15267TIP3    H267217   1.088   6.522   1.042 -0.3009  0.6496  0.3126
15268TIP3   OH267218   0.670   1.453  14.286 -0.4770  0.3831  0.0372
15268TIP3    H167219   0.723   1.380  14.318 -0.3820  1.0410  1.4935
15268TIP3    H267220   0.589   1.412  14.257  0.4404 -0.5321 -1.3282
15269TIP3   OH267221   2.453   3.503  13.293  0.3050  0.5839 -0.4184
15269TIP3    H167222   2.371   3.512  13.244 -0.0271 -0.1159 -0.0114
15269TIP3    H267223   2.484   3.415  13.272  1.2397  1.0270 -0.9839
15270TIP3   OH267224   3.396   4.868  14.316  0.3689  0.2082  0.0480
15270TIP3    H167225   3.336   4.818  14.370  0.1221 -0.1564 -0.5615
15270TIP3    H267226   3.349   4.949  14.296  0.6833  0.5983  0.8501
15271TIP3   OH267227   0.770   6.359  11.487  0.5188 -0.1998 -0.1886
15271TIP3    H167228   0.713   6.343  11.562 -2.1400  0.5514 -1.8686
15271TIP3    H267229   0.716   6.335  11.411  3.2249 -1.4094 -1.9018
15272TIP3   OH267230   5.326   6.525  16.873 -0.3005 -0.2130  0.6163
15272TIP3    H167231   5.397   6.531  16.937 -1.8204  0.8917  2.2702
15272TIP3    H267232   5.247   6.546  16.922 -1.5968  0.2440 -1.5398
15273TIP3   OH267233   3.467   4.175  16.926  0.1507 -0.2319  0.9916
15273TIP3    H167234   3.449   4.151  17.018  1.0182  0.0291  1.2429
15273TIP3    H267235   3.552   4.219  16.930 -0.9817  2.1272  0.4114
15274TIP3   OH267236   2.591   5.511  12.567 -0.2365  0.1850 -0.6238
15274TIP3    H167237   2.672   5.490  12.614  0.0451  1.3139 -0.5741
15274TIP3    H267238   2.542   5.429  12.566  1.6849 -1.0598 -2.2200
15275TIP3   OH267239   4.217   5.326   1.760 -0.1089  0.0271 -0.0699
15275TIP3    H167240   4.196   5.250   1.813 -1.0259  0.5967  0.4128
15275TIP3    H267241   4.137   5.344   1.710  1.1553 -1.4029 -2.8806
15276TIP3   OH267242   2.030   2.996   0.873 -0.1178 -0.0260  0.3348
15276TIP3    H167243   2.072   3.056   0.934 -1.6676  0.6582  0.7579
15276TIP3    H267244   2.026   2.913   0.920  2.8057 -0.7924 -0.5609
15277TIP3   OH267245   5.192   1.660  12.900  0.2002  0.2508  0.0753
15277TIP3    H167246   5.216   1.746  12.865 -2.2269  0.3967 -1.4247
15277TIP3    H267247   5.120   1.678  12.960  0.7014 -0.6026  0.9575
15278TIP3   OH267248   5.686   3.223  13.665 -0.3360 -0.6063  0.1740
15278TIP3    H167249   5.643   3.308  13.671  1.1629  0.2058 -0.0037
15278TIP3    H267250   5.723   3.221  13.577  0.8665 -0.8065  0.6675
15279TIP3   OH267251   0.746   0.626  13.862 -0.1261 -0.4436  0.3467
15279TIP3    H167252   0.759   0.694  13.795  0.5930 -2.0445 -1.2298
15279TIP3    H267253   0.822   0.635  13.920  0.1297 -0.0966 -0.0337
15280TIP3   OH267254   1.644   0.631  14.141 -0.1040 -0.0352  0.2230
15280TIP3    H167255   1.562   0.677  14.159  0.2185  0.0176  1.6450
15280TIP3    H267256   1.660   0.578  14.219  1.7127  0.7216  0.4192
15281TIP3   OH267257   0.512   5.339  13.045  1.1743 -0.2430 -0.3474
15281TIP3    H167258   0.528   5.258  13.093  1.7120  0.6439  1.0318
15281TIP3    H267259   0.430   5.373  13.082  2.5649  1.4253  1.4441
15282TIP3   OH267260   3.377   4.775   6.029  0.1259  0.7631  0.2438
15282TIP3    H167261   3.365   4.709   6.097 -0.8105 -0.7694 -1.3313
15282TIP3    H267262   3.345   4.856   6.068  0.7940  0.2093  2.0420
15283TIP3   OH267263   0.482   2.608   2.671 -0.3872 -0.2192 -0.4958
15283TIP3    H167264   0.577   2.613   2.677 -0.4351  1.4942 -0.6899
15283TIP3    H267265   0.464   2.573   2.584  0.0892  3.2263 -2.1158
15284TIP3   OH267266   3.228   2.023   2.595  0.3580  0.2061  0.5857
15284TIP3    H167267   3.272   1.952   2.548  0.2086 -0.0533  0.8289
15284TIP3    H267268   3.189   1.980   2.671 -0.7672  0.3235  0.1028
15285TIP3   OH267269   0.706   3.003   1.786 -0.3454 -0.0053 -0.0135
15285TIP3    H167270   0.733   3.010   1.877 -2.6682 -1.2875  0.8657
15285TIP3    H267271   0.738   2.917   1.758 -0.8112 -0.2068  0.0586
15286TIP3   OH267272   1.514   4.521   4.357 -0.2581 -0.4877 -0.2618
15286TIP3    H167273   1.506   4.487   4.268  0.5157  0.1012 -0.5615
15286TIP3    H267274   1.461   4.461   4.410 -0.3302 -1.1276 -1.0396
15287TIP3   OH267275   6.224   2.295   3.151  0.1045 -0.2897 -0.3201
15287TIP3    H167276   6.163   2.222   3.147 -1.3824  0.8774 -0.0264
15287TIP3    H267277   6.264   2.298   3.064 -0.3545 -0.9850 -0.5625
15288TIP3   OH267278   4.599   4.084  14.881 -0.4391 -0.3477 -0.6235
15288TIP3    H167279   4.507   4.077  14.855 -0.5839  0.2467 -0.2896
15288TIP3    H267280   4.606   4.171  14.919 -0.0664 -0.9044  0.6303
15289TIP3   OH267281   6.005   1.239   2.570 -0.6808  0.5460 -0.0322
15289TIP3    H167282   5.944   1.305   2.604 -0.5561  0.3722  0.5444
15289TIP3    H267283   5.996   1.165   2.631 -0.2285  0.3467 -0.2078
15290TIP3   OH267284   5.685   1.168   7.059  0.5103  0.4735  0.8211
15290TIP3    H167285   5.601   1.121   7.062  0.3484  0.3667 -2.1927
15290TIP3    H267286   5.726   1.137   6.978  2.2294  2.5875  0.8129
15291TIP3   OH267287   4.569   2.178   2.398  0.8073 -0.1044  0.1146
15291TIP3    H167288   4.655   2.146   2.370  0.6692  0.4596 -1.0190
15291TIP3    H267289   4.540   2.114   2.463  2.2071 -0.1392  0.7379
15292TIP3   OH267290   2.102   5.479   0.114  0.3379  0.9164 -0.4402
15292TIP3    H167291   2.030   5.433   0.071 -1.1783  1.0657  1.8076
15292TIP3    H267292   2.136   5.416   0.177  0.7122  1.6155  0.0722
15293TIP3   OH267293   5.236   4.513  15.499  0.3171 -0.9396 -0.6144
15293TIP3    H167294   5.216   4.587  15.557  0.4718 -2.7722  1.9229
15293TIP3    H267295   5.160   4.455  15.508  1.1235 -2.0619 -0.8559
15294TIP3   OH267296   2.214   3.666   5.723  0.4046 -0.2225 -0.3499
15294TIP3    H167297   2.303   3.638   5.702  0.8269 -0.2330  1.3178
15294TIP3    H267298   2.225   3.741   5.781 -0.6958  0.0663 -0.4836
15295TIP3   OH267299   6.322   2.700   0.643 -0.1328  0.6854  0.0926
15295TIP3    H167300   6.327   2.642   0.719  1.1745  0.2646 -0.2923
15295TIP3    H267301   6.401   2.681   0.594 -0.6851  1.3711 -1.0861
15296TIP3   OH267302   5.237   0.466  16.546  0.1337 -0.2199  0.0253
15296TIP3    H167303   5.324   0.502  16.531 -0.1148  0.1384 -0.5999
15296TIP3    H267304   5.181   0.543  16.558 -0.2160 -0.4290 -0.2688
15297TIP3   OH267305   1.722   0.221   1.106 -0.5172  0.5236 -0.0653
15297TIP3    H167306   1.730   0.304   1.059  1.0216  0.4057 -0.0579
15297TIP3    H267307   1.760   0.156   1.046 -1.1902 -0.0982  0.1659
15298TIP3   OH267308   1.183   1.381  16.841  0.5218  0.4765  0.0472
15298TIP3    H167309   1.223   1.405  16.758 -1.1301 -0.1975 -0.9973
15298TIP3    H267310   1.166   1.465  16.884 -0.0594  0.9248 -1.0212
15299TIP3   OH267311   5.567   2.275  16.539  0.1289  0.3331 -0.1232
15299TIP3    H167312   5.520   2.282  16.455 -1.0278 -0.3137  0.4516
15299TIP3    H267313   5.573   2.365  16.571 -1.3917  0.3689  0.1328
15300TIP3   OH267314   2.039   3.901  10.776  0.1479  0.2244 -0.3172
15300TIP3    H167315   2.106   3.914  10.843  2.1075 -0.8117 -1.9896
15300TIP3    H267316   1.966   3.860  10.823  1.3150 -0.1835  1.2247
15301TIP3   OH267317   5.753   0.211   4.305 -0.7047  0.4530  0.8658
15301TIP3    H167318   5.693   0.140   4.282 -1.4321  1.2453  0.2262
15301TIP3    H267319   5.830   0.167   4.341  0.0053 -0.8535 -1.9489
15302TIP3   OH267320   5.521   6.661   5.157 -0.2721 -0.1333 -0.0425
15302TIP3    H167321   5.533   6.730   5.091  1.7523 -1.0000 -0.6661
15302TIP3    H267322   5.590   6.678   5.222 -1.3480 -0.1304  1.1509
15303TIP3   OH267323   0.924   0.224   4.316  0.0544 -0.2193 -0.4313
15303TIP3    H167324   0.980   0.189   4.386 -0.9607  1.3964  1.2993
15303TIP3    H267325   0.979   0.289   4.273 -0.2801  1.0221  0.9486
15304TIP3   OH267326   1.369   4.705   2.357  0.1139 -0.3320  0.0727
15304TIP3    H167327   1.464   4.690   2.353 -0.2540 -2.9540 -1.1447
15304TIP3    H267328   1.360   4.789   2.402  2.9904 -0.1558  0.5362
15305TIP3   OH267329   3.438   6.731  17.279  0.0816  0.5517  0.0086
15305TIP3    H167330   3.343   6.747  17.284  0.0898  0.7380 -0.3875
15305TIP3    H267331   3.476   6.794  17.340  0.2707  3.6240 -2.9394
15306TIP3   OH267332   0.564   0.417   4.953 -0.3988  0.1560 -0.3327
15306TIP3    H167333   0.627   0.484   4.925 -1.5104  1.2344 -0.3142
15306TIP3    H267334   0.514   0.396   4.874 -2.4323  1.9977  0.3835
15307TIP3   OH267335   1.914   1.054  15.971 -0.0837 -0.3617 -0.5191
15307TIP3    H167336   1.966   0.999  15.912  0.6715 -1.1021  0.7987
15307TIP3    H267337   1.906   1.003  16.051 -0.5521  0.8737  0.2527
15308TIP3   OH267338   1.911   2.908   0.239  0.1440 -0.3504 -0.1005
15308TIP3    H167339   1.965   2.829   0.244 -2.2782 -2.0767  1.0843
15308TIP3    H267340   1.843   2.886   0.175 -0.4423  0.8844  0.0818
15309TIP3   OH267341   1.416   3.055  11.163 -0.1736 -0.6963  0.0636
15309TIP3    H167342   1.329   3.045  11.124 -0.0319 -0.4294 -0.3246
15309TIP3    H267343   1.474   3.071  11.089  0.2981 -1.4133  0.2650
15310TIP3   OH267344   4.375   3.997   1.227 -0.2293 -0.2057  0.5895
15310TIP3    H167345   4.291   3.952   1.215 -0.8117  0.8957  0.3717
15310TIP3    H267346   4.365   4.079   1.179  0.4523  0.5762  1.7384
15311TIP3   OH267347   1.308   3.086  10.718  0.1275 -0.4366  0.2905
15311TIP3    H167348   1.224   3.045  10.740 -0.6158  2.2118  3.0694
15311TIP3    H267349   1.284   3.165  10.670  1.2891 -1.1217 -1.5137
15312TIP3   OH267350   2.829   0.427  12.366  0.2392 -0.2471 -0.0284
15312TIP3    H167351   2.749   0.448  12.318  0.4564 -1.4131 -0.9495
15312TIP3    H267352   2.881   0.376  12.305  2.5768  2.0750 -0.1465
15313TIP3   OH267353   6.442   3.887  14.358  0.0130 -0.1620  0.7041
15313TIP3    H167354   6.387   3.904  14.281 -0.0389 -0.4480  0.6738
15313TIP3    H267355   6.384   3.843  14.420  0.4640 -1.4887  0.2400
15314TIP3   OH267356   0.751   5.293  14.956 -0.6336 -0.0625 -0.3951
15314TIP3    H167357   0.844   5.285  14.974 -0.3006  0.3809 -1.8052
15314TIP3    H267358   0.734   5.387  14.958 -1.4940 -0.2205  1.8236
15315TIP3   OH267359   0.016   4.600  16.739  0.0310  0.0030 -0.2956
15315TIP3    H167360  -0.043   4.572  16.669  0.2498 -0.4574 -0.3065
15315TIP3    H267361   0.031   4.693  16.722  1.0997 -0.3661 -1.6409
15316TIP3   OH267362   3.132   6.096   5.669 -0.2434 -0.2283  0.5550
15316TIP3    H167363   3.153   6.060   5.756 -0.9909 -1.3352  0.3043
15316TIP3    H267364   3.192   6.050   5.610  2.3012  2.5578  0.7220
15317TIP3   OH267365   0.890   4.771  15.323  0.0936 -0.4334  0.1373
15317TIP3    H167366   0.923   4.710  15.257  0.6985 -0.0552  0.0828
15317TIP3    H267367   0.961   4.779  15.386  0.6621  1.3929 -0.6618
15318TIP3   OH267368   3.578   4.644   4.956 -0.4652  0.3781 -0.5953
15318TIP3    H167369   3.485   4.665   4.958 -0.1786  1.8826 -1.6411
15318TIP3    H267370   3.606   4.648   5.048 -1.2778  0.5440 -0.3495
15319TIP3   OH267371   0.685   0.043   3.636 -0.1427 -0.3383  0.2272
15319TIP3    H167372   0.667   0.066   3.727  0.2126 -0.3946  0.3152
15319TIP3    H267373   0.603   0.006   3.603 -1.4389  2.8547 -0.5173
15320TIP3   OH267374   0.691   5.238  11.921  0.3734  0.6465 -0.3101
15320TIP3    H167375   0.644   5.308  11.967  0.0539 -0.4596  1.1271
15320TIP3    H267376   0.649   5.234  11.835  1.3896  3.1684 -1.0220
15321TIP3   OH267377   1.000   2.038  17.105 -0.2282  0.1976 -0.1091
15321TIP3    H167378   1.003   1.946  17.132 -0.5496  0.1206 -0.3328
15321TIP3    H267379   1.090   2.070  17.119 -0.6513  0.5336  2.3524
15322TIP3   OH267380   6.624   5.956   4.904  0.4996  0.2169  0.4630
15322TIP3    H167381   6.607   5.979   4.995  0.8973  0.8369  0.3871
15322TIP3    H267382   6.707   5.908   4.907 -0.4242 -1.4451  0.6457
15323TIP3   OH267383   3.864   4.612  11.287 -0.2767 -0.1850  0.3029
15323TIP3    H167384   3.792   4.675  11.293  0.1241  0.1945  1.4383
15323TIP3    H267385   3.943   4.666  11.281 -0.0303 -0.5959 -0.1980
15324TIP3   OH267386   0.198   5.616   3.613  0.0373 -0.8555 -0.2080
15324TIP3    H167387   0.225   5.532   3.575  0.6665 -0.5696 -0.3986
15324TIP3    H267388   0.106   5.625   3.587 -0.6912 -2.4728  1.5539
15325TIP3   OH267389   5.154   4.660  13.853  0.3395 -0.5231  0.3631
15325TIP3    H167390   5.203   4.578  13.847  1.1903 -0.0465  0.5925
15325TIP3    H267391   5.062   4.634  13.852  0.5566 -1.3310 -1.7647
15326TIP3   OH267392   6.226   5.666  12.993  0.0775  0.2619 -0.1562
15326TIP3    H167393   6.245   5.692  12.903  1.6952 -1.5697 -0.4361
15326TIP3    H267394   6.134   5.642  12.992 -0.7399  3.0506 -0.5274
15327TIP3   OH267395   3.724   6.712  16.916 -0.0918 -0.3742  1.0439
15327TIP3    H167396   3.639   6.723  16.959 -2.0488 -0.7139 -2.4349
15327TIP3    H267397   3.722   6.622  16.882  0.9878  0.1121 -0.4046
15328TIP3   OH267398   6.529   2.504   0.847  0.4866 -0.0188 -0.5040
15328TIP3    H167399   6.507   2.587   0.889  1.6472  0.5192 -0.9059
15328TIP3    H267400   6.625   2.504   0.843  0.8743 -3.0871  2.9765
15329TIP3   OH267401   3.518   6.128   3.261 -0.1833  0.3321 -0.3988
15329TIP3    H167402   3.591   6.132   3.200  1.1931 -1.7269  1.0024
15329TIP3    H267403   3.482   6.040   3.251 -0.7302  0.3837  0.8657
15330TIP3   OH267404   0.665   4.195   0.723 -0.0842  0.0545 -0.4002
15330TIP3    H167405   0.673   4.139   0.646 -1.8886 -1.1211  0.2264
15330TIP3    H267406   0.661   4.135   0.797  2.5360  1.1680  0.8011
15331TIP3   OH267407   1.020   2.821   2.970  0.3383 -0.5584  0.7199
15331TIP3    H167408   0.970   2.754   3.018 -0.6642  0.3932  1.0324
15331TIP3    H267409   0.997   2.903   3.013 -0.4224  0.3075 -1.2451
15332TIP3   OH267410   0.794   2.690  16.844 -0.2438 -0.2728  0.3848
15332TIP3    H167411   0.824   2.772  16.884 -1.5761  0.7288 -0.5847
15332TIP3    H267412   0.861   2.669  16.779  1.4681 -1.4258  2.3911
15333TIP3   OH267413   5.764   3.691  16.856 -0.2612 -0.6362 -0.3921
15333TIP3    H167414   5.695   3.665  16.794 -1.3458  0.0484  0.4911
15333TIP3    H267415   5.735   3.655  16.940  0.9858 -1.2021 -0.1752
15334TIP3   OH267416   3.090   2.768  11.188  0.2702  0.1723 -0.3430
15334TIP3    H167417   3.071   2.715  11.111  1.9539 -1.8560  0.5259
15334TIP3    H267418   3.012   2.758  11.243  0.0189 -0.3116 -0.7801
15335TIP3   OH267419   0.514   0.769  13.945 -0.4585 -0.1694  0.0708
15335TIP3    H167420   0.447   0.713  13.907 -1.5169  1.6572 -0.8511
15335TIP3    H267421   0.596   0.737  13.907 -1.0839 -0.8277 -0.7586
15336TIP3   OH267422   5.495   2.349   5.974  0.0374  0.1998  0.1740
15336TIP3    H167423   5.577   2.398   5.960 -0.0303  1.4454  3.3505
15336TIP3    H267424   5.427   2.416   5.974 -0.9454 -0.7409 -1.6612
15337TIP3   OH267425   4.668   6.083  14.368  0.9512  0.3112  0.4250
15337TIP3    H167426   4.701   6.023  14.436  0.5405 -0.6930 -0.2311
15337TIP3    H267427   4.669   6.169  14.410 -0.5791 -0.4465  2.1949
15338TIP3   OH267428   5.574   5.954   4.084  0.0585  0.5421  0.0782
15338TIP3    H167429   5.638   5.885   4.067 -0.6059 -0.0017 -0.2569
15338TIP3    H267430   5.571   6.004   4.003 -0.0664  0.4633  0.0343
15339TIP3   OH267431   5.144   4.418  12.282 -0.3819  0.1976 -0.5476
15339TIP3    H167432   5.228   4.426  12.328 -0.4435 -0.6802 -0.2655
15339TIP3    H267433   5.082   4.466  12.337 -0.0827  0.7996 -0.7255
15340TIP3   OH267434   1.580   6.599   3.863  0.7569  0.2513  0.2917
15340TIP3    H167435   1.618   6.516   3.890 -1.2344 -1.1138 -0.8329
15340TIP3    H267436   1.616   6.616   3.777  2.0666  1.2052  1.0008
15341TIP3   OH267437   2.781   1.452  15.578  0.4985  0.0039 -0.8421
15341TIP3    H167438   2.783   1.422  15.487  1.5716  0.6194 -1.0359
15341TIP3    H267439   2.872   1.448  15.607  0.7500  3.0524 -0.9030
15342TIP3   OH267440   5.194   3.979   5.085  0.1131 -0.3973 -0.4388
15342TIP3    H167441   5.268   3.920   5.074  1.9410  1.7702 -0.4838
15342TIP3    H267442   5.144   3.941   5.157  1.7997 -1.4235  0.2481
15343TIP3   OH267443   4.836   6.176   5.911 -0.3624 -0.2200 -0.0207
15343TIP3    H167444   4.802   6.259   5.877  0.0073  0.9283  2.2595
15343TIP3    H267445   4.764   6.139   5.961 -0.2773 -0.9298 -0.4120
15344TIP3   OH267446   2.068   2.186  16.859 -0.1873  0.3041 -0.0708
15344TIP3    H167447   2.102   2.241  16.788  1.3776 -0.6291 -0.0632
15344TIP3    H267448   2.115   2.216  16.937  0.5964 -0.9511 -0.0456
15345TIP3   OH267449   0.925   3.534   6.450 -0.4122  0.2729 -0.0966
15345TIP3    H167450   0.944   3.530   6.356  0.2518  1.9277 -0.0693
15345TIP3    H267451   0.844   3.483   6.460  0.5121 -1.5430 -1.2447
15346TIP3   OH267452   0.794   5.203  13.065  0.0683  0.6739  0.6030
15346TIP3    H167453   0.764   5.115  13.043 -1.2448  0.9761  1.0748
15346TIP3    H267454   0.834   5.194  13.152  0.4592  0.4534  0.4057
15347TIP3   OH267455   4.659   0.159  13.857  0.1104 -0.2426  0.3394
15347TIP3    H167456   4.608   0.080  13.839 -1.8674  0.7807  1.1464
15347TIP3    H267457   4.696   0.144  13.944  2.8912 -1.7674 -0.9730
15348TIP3   OH267458   0.952   2.485  15.619  0.1501  0.1481 -0.0383
15348TIP3    H167459   0.913   2.520  15.699 -0.2919  2.6676 -1.2716
15348TIP3    H267460   1.043   2.513  15.621  0.0790  0.4252 -0.5201
15349TIP3   OH267461   2.652   3.554  14.332 -0.0706 -0.2160  0.1402
15349TIP3    H167462   2.586   3.507  14.281 -1.0502  0.0661  1.1059
15349TIP3    H267463   2.618   3.553  14.421  1.5483 -0.6074  0.7945
15350TIP3   OH267464   3.131   5.364   1.107 -0.5263  0.0228  1.1054
15350TIP3    H167465   3.116   5.422   1.032 -0.9031  0.6927  1.6875
15350TIP3    H267466   3.064   5.296   1.097 -1.1836  0.6258  1.3351
15351TIP3   OH267467   3.766   4.051  13.286  0.0813  0.2271 -0.9698
15351TIP3    H167468   3.673   4.074  13.282  0.5686  2.3933 -1.3911
15351TIP3    H267469   3.791   4.070  13.377 -0.0240 -0.9937 -0.6789
15352TIP3   OH267470   4.444   2.737  14.579  0.0752  0.3533 -0.0997
15352TIP3    H167471   4.528   2.773  14.549 -0.7300  1.6661 -0.8664
15352TIP3    H267472   4.425   2.785  14.660 -0.3343  0.6758 -0.3837
15353TIP3   OH267473   5.105   0.105  12.977  0.4435  0.3275 -0.1525
15353TIP3    H167474   5.145   0.130  13.060  0.3497  2.6120 -0.7306
15353TIP3    H267475   5.136   0.171  12.915 -1.4078  0.1109 -1.3828
15354TIP3   OH267476   3.148   2.405   0.119 -0.1737 -0.2835 -0.8837
15354TIP3    H167477   3.153   2.396   0.023 -0.2835  0.3593 -0.9533
15354TIP3    H267478   3.235   2.380   0.150 -0.3778 -1.2926 -1.0807
15355TIP3   OH267479   5.381   2.871   0.948 -0.1568 -0.0661  0.7353
15355TIP3    H167480   5.370   2.966   0.950  0.0704 -0.0436  1.7818
15355TIP3    H267481   5.305   2.837   0.995 -0.5341 -0.4419 -0.1316
15356TIP3   OH267482   4.813   5.066  16.259  0.2754  0.5593 -0.0632
15356TIP3    H167483   4.848   5.147  16.221  1.2253  0.7404  1.1457
15356TIP3    H267484   4.891   5.014  16.280 -0.3001 -0.3341 -0.0968
15357TIP3   OH267485   1.660   3.781   2.625 -0.3331 -0.6622 -0.0682
15357TIP3    H167486   1.609   3.727   2.686 -0.4531 -0.1478  0.2948
15357TIP3    H267487   1.600   3.852   2.600 -0.8301 -1.6848 -1.9927
15358TIP3   OH267488   5.914   2.388   5.873 -0.1979 -0.7922 -0.0570
15358TIP3    H167489   5.877   2.359   5.790 -2.6060  0.5265  0.4703
15358TIP3    H267490   5.851   2.451   5.907  1.9285  0.5689  1.6263
15359TIP3   OH267491   3.353   1.053   4.892  0.5816  0.8407 -0.5360
15359TIP3    H167492   3.393   1.015   4.970  1.6427  1.1938 -0.8997
15359TIP3    H267493   3.339   1.145   4.914 -0.2835  0.6749 -0.3259
15360TIP3   OH267494   1.918   0.911   1.363  0.1236  0.3284 -0.2364
15360TIP3    H167495   1.858   0.865   1.305  2.4492 -0.7407 -1.9751
15360TIP3    H267496   1.952   0.984   1.310 -1.0995  2.2033  1.4063
15361TIP3   OH267497   4.996   5.072  12.889 -0.6747 -0.0136 -0.2391
15361TIP3    H167498   5.066   5.092  12.952 -0.3998 -1.2573 -0.1183
15361TIP3    H267499   5.028   4.995  12.841 -1.2337  0.4293 -1.3521
15362TIP3   OH267500   4.816   3.304   0.633 -0.0413  0.3037  0.4348
15362TIP3    H167501   4.770   3.233   0.589 -0.8874  1.0061  0.1603
15362TIP3    H267502   4.889   3.325   0.576  1.2792 -1.5181  1.3697
15363TIP3   OH267503   3.593   6.525   0.325 -0.4720 -0.0540  0.2904
15363TIP3    H167504   3.610   6.555   0.236  0.3815 -1.4250 -0.0455
15363TIP3    H267505   3.527   6.457   0.315  0.4660 -1.0293  0.5404
15364TIP3   OH267506   3.757   1.225   3.800  0.3665 -0.6359  0.2960
15364TIP3    H167507   3.737   1.233   3.707  1.2082 -0.4610  0.1190
15364TIP3    H267508   3.774   1.132   3.813  0.4005 -0.6375  0.2399
15365TIP3   OH267509   0.911   3.026   1.408 -0.0561 -0.3453  0.1404
15365TIP3    H167510   0.998   2.986   1.405  1.0511  1.9075  0.0762
15365TIP3    H267511   0.901   3.054   1.499 -1.0330 -1.1783  0.3099
15366TIP3   OH267512   4.077   4.575  16.945 -0.3085  0.0005  0.4139
15366TIP3    H167513   4.093   4.518  16.870 -1.7838  0.4036 -0.2419
15366TIP3    H267514   3.988   4.553  16.973 -0.1859  0.6386  1.3558
15367TIP3   OH267515   6.258   3.581   1.365  0.3574  0.0749 -0.2510
15367TIP3    H167516   6.171   3.545   1.348  0.9159 -1.4098 -0.1357
15367TIP3    H267517   6.303   3.575   1.281  0.4984  0.3879 -0.1970
15368TIP3   OH267518   6.671   5.053   2.416  1.1656 -0.6452 -0.3373
15368TIP3    H167519   6.603   5.081   2.477  1.2167 -0.9871 -0.1189
15368TIP3    H267520   6.743   5.114   2.430 -0.0068  1.3692 -2.3799
15369TIP3   OH267521   0.480   1.509   2.158 -0.5162 -0.3907 -0.0549
15369TIP3    H167522   0.563   1.463   2.174 -0.3535 -0.3987 -0.9022
15369TIP3    H267523   0.439   1.514   2.245  1.7861  2.4445  1.0141
15370TIP3   OH267524   1.580   3.801   2.143 -0.1461 -0.4515 -0.0712
15370TIP3    H167525   1.674   3.789   2.136  0.0273  1.0831 -0.6550
15370TIP3    H267526   1.569   3.891   2.172 -1.4040 -1.2116  2.0724
15371TIP3   OH267527   4.624   5.410  12.680  0.0881 -0.3319 -0.0407
15371TIP3    H167528   4.534   5.406  12.713 -0.4951 -0.5347 -1.5687
15371TIP3    H267529   4.668   5.336  12.723  0.0768  0.8543  2.1527
15372TIP3   OH267530   4.894   6.066  11.360 -0.2545 -0.7742  0.6063
15372TIP3    H167531   4.870   6.055  11.268  0.4539 -1.2308  0.4677
15372TIP3    H267532   4.951   6.143  11.362 -1.2910  0.0110  0.8631
15373TIP3   OH267533   0.982   2.972  11.149 -0.2928  0.8317 -0.2857
15373TIP3    H167534   0.983   3.063  11.121  1.8749  0.8468 -0.3173
15373TIP3    H267535   1.055   2.931  11.102 -1.6242 -1.1089 -0.8027
15374TIP3   OH267536   4.153   4.395   1.111 -0.1084  0.4743  0.2518
15374TIP3    H167537   4.071   4.430   1.074  1.2340  2.3023 -1.1846
15374TIP3    H267538   4.154   4.428   1.200 -0.5137  1.2484 -0.0167
15375TIP3   OH267539   3.326   0.125   3.184  0.3888  0.2112 -0.0716
15375TIP3    H167540   3.276   0.205   3.166  0.2904  0.2549  0.3785
15375TIP3    H267541   3.279   0.056   3.138 -1.2322 -0.0915  1.8921
15376TIP3   OH267542   6.269   5.522   4.184  0.0343 -0.2388 -0.3074
15376TIP3    H167543   6.364   5.519   4.176  0.3068  0.3939  1.9024
15376TIP3    H267544   6.237   5.481   4.104  2.1231  0.5971 -1.6627
15377TIP3   OH267545   1.879   4.459  13.899 -0.1644  0.3899 -0.0574
15377TIP3    H167546   1.961   4.478  13.945  1.3200 -0.3856 -2.2248
15377TIP3    H267547   1.826   4.413  13.964  2.6401 -2.5832  0.4182
15378TIP3   OH267548   4.777   2.273  17.100  0.2868  0.0015  0.3515
15378TIP3    H167549   4.727   2.267  17.018  0.2700 -0.3376  0.3855
15378TIP3    H267550   4.794   2.367  17.110  0.2937  0.0467 -0.0438
15379TIP3   OH267551   6.622   4.567  10.586  0.3586 -0.0603 -0.0520
15379TIP3    H167552   6.605   4.488  10.535  1.8959 -1.0557  0.9020
15379TIP3    H267553   6.714   4.587  10.569  0.6800  0.0645  1.6190
15380TIP3   OH267554   0.438   0.594  11.629 -0.2177  0.3447 -0.4989
15380TIP3    H167555   0.450   0.499  11.626 -1.8277  0.0968  0.2096
15380TIP3    H267556   0.350   0.608  11.595 -0.9112  1.3683  1.5932
15381TIP3   OH267557   5.287   6.765   3.982  0.6478  0.0623 -0.2730
15381TIP3    H167558   5.297   6.684   3.931  0.9010 -0.2528  0.2642
15381TIP3    H267559   5.208   6.806   3.947  0.3733 -0.5478 -0.3802
15382TIP3   OH267560   1.050   4.219  16.289  0.5256 -0.2445  0.4516
15382TIP3    H167561   1.131   4.261  16.318  1.0931 -0.5726 -0.6053
15382TIP3    H267562   1.066   4.126  16.298  0.0729 -0.3022  0.7122
15383TIP3   OH267563   5.546   0.029  14.192  0.6439  0.6822  0.2313
15383TIP3    H167564   5.565   0.049  14.100  0.2889 -0.9029 -0.2148
15383TIP3    H267565   5.454   0.005  14.193  0.8505 -0.1471  0.8419
15384TIP3   OH267566   0.238   0.277   0.951 -0.8339 -0.2135  0.0672
15384TIP3    H167567   0.189   0.334   1.010 -1.7271 -1.3911  0.5052
15384TIP3    H267568   0.218   0.310   0.863 -0.6744  0.6394  0.3434
15385TIP3   OH267569   3.033   1.293  10.958  0.4013  0.1983  0.5320
15385TIP3    H167570   2.998   1.235  10.890  0.6347  0.1239  0.4741
15385TIP3    H267571   2.961   1.303  11.020  0.0845  0.5028  0.1210
15386TIP3   OH267572   2.455   6.241   3.136 -0.0408 -0.1145 -0.0090
15386TIP3    H167573   2.413   6.327   3.137  0.8412  0.3205  0.2666
15386TIP3    H267574   2.391   6.184   3.094 -0.6245  0.6828 -0.2258
15387TIP3   OH267575   6.153   5.761   1.455  0.2629 -0.4465 -0.3153
15387TIP3    H167576   6.170   5.856   1.454  1.4591 -0.6223  0.7538
15387TIP3    H267577   6.201   5.728   1.378  1.4718 -0.4114  0.4031
15388TIP3   OH267578   0.381   1.977   2.242  0.5890 -0.1131 -0.5701
15388TIP3    H167579   0.354   2.037   2.312  1.8922  0.5349 -0.5992
15388TIP3    H267580   0.467   1.945   2.269  0.2993 -1.3282 -0.9819
15389TIP3   OH267581   2.935   2.490   0.303  0.4034  0.1893  0.8012
15389TIP3    H167582   2.960   2.544   0.378  1.2251  1.0466 -0.0557
15389TIP3    H267583   3.010   2.495   0.243  1.0334 -2.8681  1.1612
15390TIP3   OH267584   0.074   4.356   5.774  0.5192  0.0588 -0.1829
15390TIP3    H167585   0.098   4.363   5.866  0.1207 -1.4802  0.0792
15390TIP3    H267586   0.099   4.439   5.735  0.0344  1.0093  1.4643
15391TIP3   OH267587   3.350   4.871   1.172 -0.1630 -0.5084  0.5842
15391TIP3    H167588   3.293   4.885   1.248 -1.4131  0.1145 -0.4234
15391TIP3    H267589   3.293   4.835   1.105  0.6903 -0.1240 -0.3841
15392TIP3   OH267590   3.249   4.209   4.193 -0.5724 -0.2994  0.2105
15392TIP3    H167591   3.292   4.290   4.222 -2.3612  0.4177  1.0473
15392TIP3    H267592   3.305   4.139   4.226 -0.1208  0.5847  1.4093
15393TIP3   OH267593   0.168   2.056  16.673 -0.0282  0.1541 -0.6052
15393TIP3    H167594   0.254   2.046  16.633  0.0011  0.1962 -0.5523
15393TIP3    H267595   0.175   2.135  16.727 -0.2939  0.5408 -1.1226
15394TIP3   OH267596   5.461   3.080  11.823  0.3590  0.0485  0.1773
15394TIP3    H167597   5.468   3.068  11.728  0.5482 -0.7762  0.2829
15394TIP3    H267598   5.521   3.015  11.859  1.5463  1.4677  0.8413
15395TIP3   OH267599   3.518   5.368   0.443 -0.2403 -0.6599 -0.1164
15395TIP3    H167600   3.561   5.341   0.524 -0.1014 -0.7710 -0.2275
15395TIP3    H267601   3.589   5.395   0.386 -0.3546 -0.3824 -0.1276
15396TIP3   OH267602   5.641   2.082   1.495  0.0491  0.4344  0.1807
15396TIP3    H167603   5.591   2.022   1.551  1.2680 -0.4030  0.4111
15396TIP3    H267604   5.672   2.150   1.554  1.4785 -0.5404  0.6009
15397TIP3   OH267605   1.172   1.105  15.740  0.9471 -0.1365 -0.6284
15397TIP3    H167606   1.102   1.128  15.678 -0.1040  0.8007  0.8166
15397TIP3    H267607   1.160   1.011  15.756 -1.6617  0.3983  1.4066
15398TIP3   OH267608   6.265   6.148  12.504  0.1733 -0.8980 -0.3504
15398TIP3    H167609   6.255   6.240  12.528 -1.0207 -0.7969 -1.1453
15398TIP3    H267610   6.247   6.146  12.410  1.4232 -1.7718 -0.5997
15399TIP3   OH267611   2.417   2.867   4.899 -0.3677  0.3804  0.5715
15399TIP3    H167612   2.352   2.850   4.968  0.3728 -3.3464  0.5548
15399TIP3    H267613   2.465   2.944   4.930 -0.7488 -0.5194  3.7511
15400TIP3   OH267614   1.121   4.642   5.760  0.0474 -0.4708  0.1342
15400TIP3    H167615   1.162   4.659   5.844  3.1168  1.9066 -1.6332
15400TIP3    H267616   1.178   4.577   5.718 -1.1387 -1.2252 -0.3700
15401TIP3   OH267617   0.346   5.874  16.804  0.0782  0.0087  0.3502
15401TIP3    H167618   0.269   5.861  16.750  0.2157 -1.9804  0.5675
15401TIP3    H267619   0.312   5.910  16.886 -0.5655 -0.4254  0.2819
15402TIP3   OH267620   2.109   2.611  14.758  0.0736 -0.1835 -0.1934
15402TIP3    H167621   2.018   2.581  14.757 -0.2153  0.5990  0.8833
15402TIP3    H267622   2.139   2.594  14.847  0.1651  1.9084  0.2171
15403TIP3   OH267623   2.479   5.236  11.874  0.1677 -0.0534  0.3748
15403TIP3    H167624   2.388   5.217  11.853  0.1984 -0.1258  0.3082
15403TIP3    H267625   2.529   5.201  11.800  0.0050  3.1693 -1.4774
15404TIP3   OH267626   4.704   4.552   4.085 -0.2436  0.4851  0.0229
15404TIP3    H167627   4.744   4.480   4.036 -0.4675  0.0156  0.5155
15404TIP3    H267628   4.775   4.616   4.096  0.0665  0.1610 -0.0724
15405TIP3   OH267629   5.041   6.689  16.128 -0.2608 -0.3405  0.2376
15405TIP3    H167630   5.013   6.631  16.200  0.7781 -0.7111  0.3709
15405TIP3    H267631   5.021   6.777  16.159  1.6197 -0.3608  1.7288
15406TIP3   OH267632   0.320   0.277   5.542 -0.5294 -0.0879 -0.9479
15406TIP3    H167633   0.258   0.267   5.614  0.3353 -1.4434 -0.3666
15406TIP3    H267634   0.269   0.253   5.464 -1.5743  1.7427 -0.8824
15407TIP3   OH267635   0.775   0.183  11.435 -0.0924  0.0068  0.1440
15407TIP3    H167636   0.699   0.146  11.481  0.4531  0.6230  1.5886
15407TIP3    H267637   0.741   0.208  11.349 -1.6083  0.5439  0.8588
15408TIP3   OH267638   3.151   5.072   2.959  0.7273  0.1156 -0.2525
15408TIP3    H167639   3.185   5.059   2.870  1.8111 -1.5861  0.3714
15408TIP3    H267640   3.063   5.034   2.957  1.6529 -2.1926 -0.0200
15409TIP3   OH267641   0.456   0.128   4.194 -0.2820  0.3025 -0.0287
15409TIP3    H167642   0.438   0.221   4.204 -3.1344 -0.1303 -0.3466
15409TIP3    H267643   0.467   0.115   4.100 -0.4476  0.2264 -0.0371
15410TIP3   OH267644   4.046   2.076   3.324 -0.0749 -0.1872 -0.3998
15410TIP3    H167645   4.071   2.013   3.391  1.5956  0.7184 -0.1199
15410TIP3    H267646   4.045   2.025   3.243 -2.5261 -1.3882  0.2720
15411TIP3   OH267647   3.711   2.758  12.667  0.5299 -0.3470 -0.0068
15411TIP3    H167648   3.762   2.706  12.729  0.2752  0.7391  1.1641
15411TIP3    H267649   3.764   2.837  12.653  0.4290 -0.4349 -0.9325
15412TIP3   OH267650   5.999   0.491   5.712 -0.1593 -0.1119  0.1906
15412TIP3    H167651   6.033   0.561   5.657  0.7118 -0.3169  0.4529
15412TIP3    H267652   5.963   0.427   5.651  0.4891 -0.1776 -0.1276
15413TIP3   OH267653   4.328   2.961   6.138 -0.7169 -0.4284  0.0108
15413TIP3    H167654   4.360   3.040   6.094  0.6986 -1.3771 -0.7380
15413TIP3    H267655   4.234   2.960   6.119 -0.6032  0.6330 -0.6868
15414TIP3   OH267656   5.387   1.433   1.849 -0.0141 -0.0203 -0.4734
15414TIP3    H167657   5.376   1.340   1.829  0.3270 -0.2256  0.3026
15414TIP3    H267658   5.297   1.464   1.863 -0.0049 -0.6754  1.2253
15415TIP3   OH267659   0.054   1.772  11.099 -0.9068  0.2311  0.0817
15415TIP3    H167660   0.070   1.678  11.108 -1.0225  0.3224  1.4308
15415TIP3    H267661   0.046   1.786  11.004  1.8208 -0.6431 -0.3498
15416TIP3   OH267662   0.198   5.223  16.939  0.1452  0.1272 -0.2555
15416TIP3    H167663   0.149   5.142  16.956 -0.0969 -0.6743 -3.9493
15416TIP3    H267664   0.281   5.193  16.903  1.7213  1.5712  1.9464
15417TIP3   OH267665   1.899   4.776  14.960  0.5229  0.7784  0.3607
15417TIP3    H167666   1.987   4.808  14.980  0.6016  0.1077  1.1501
15417TIP3    H267667   1.883   4.804  14.870  1.1298  1.8107  0.5551
15418TIP3   OH267668   1.375   2.562   1.627 -0.1867 -0.1516  0.3945
15418TIP3    H167669   1.299   2.586   1.573 -0.1298  1.5769  0.9980
15418TIP3    H267670   1.421   2.496   1.576 -1.0951  0.1366 -0.8568
15419TIP3   OH267671   0.774   4.347  12.592  0.0790  0.0053 -0.2185
15419TIP3    H167672   0.743   4.415  12.651 -0.2728 -0.4050  0.0769
15419TIP3    H267673   0.838   4.297  12.643 -3.3283 -3.1262  1.5052
15420TIP3   OH267674   2.344   2.277  14.411  0.2565  0.0169  0.5125
15420TIP3    H167675   2.346   2.206  14.475 -2.7173  0.6765  1.5019
15420TIP3    H267676   2.340   2.357  14.464 -0.4132  0.6816 -0.5135
15421TIP3   OH267677   2.019   5.460   0.583  0.1772 -0.0525  0.1272
15421TIP3    H167678   1.949   5.462   0.648 -0.0795  1.6236 -0.1430
15421TIP3    H267679   1.992   5.524   0.517  2.2734  1.1713  0.3708
15422TIP3   OH267680   1.900   0.696  15.683 -0.0818 -0.3218  0.7176
15422TIP3    H167681   1.968   0.647  15.638  0.8241  0.8520  0.7455
15422TIP3    H267682   1.947   0.769  15.724 -1.0940 -0.4877  2.2691
15423TIP3   OH267683   5.554   4.962  11.730  0.0666 -0.3066  0.6104
15423TIP3    H167684   5.624   4.962  11.795  0.1343 -0.9352  0.5508
15423TIP3    H267685   5.474   4.951  11.781 -0.1405  1.6740  0.7948
15424TIP3   OH267686   4.743   4.791   2.031  0.6839  0.3275 -0.1521
15424TIP3    H167687   4.710   4.834   1.953  0.4715 -0.0312 -0.2622
15424TIP3    H267688   4.837   4.806   2.029  0.8036 -0.4292 -0.9488
15425TIP3   OH267689   4.360   5.862  11.969  0.6369  0.6725 -0.2845
15425TIP3    H167690   4.404   5.889  12.050  0.1879  0.1758  0.1277
15425TIP3    H267691   4.409   5.907  11.900  0.7387  1.4657  0.2909
15426TIP3   OH267692   5.640   6.483  12.051  0.4480 -0.0107 -0.1853
15426TIP3    H167693   5.711   6.547  12.059 -0.4009  0.9018  0.1839
15426TIP3    H267694   5.573   6.527  11.999 -0.6935 -0.0834  1.1520
15427TIP3   OH267695   3.528   6.299  12.913  0.4087  0.5153 -0.0033
15427TIP3    H167696   3.485   6.228  12.865 -0.2055  0.2867  0.8555
15427TIP3    H267697   3.461   6.331  12.973  0.9434  1.2661  0.2128
15428TIP3   OH267698   1.283   1.346  15.797  0.7315  0.2264  0.2748
15428TIP3    H167699   1.242   1.264  15.770  0.9218 -0.1603  1.0972
15428TIP3    H267700   1.232   1.374  15.874  0.3787  1.1292 -0.2773
15429TIP3   OH267701   1.568   3.398  16.144  0.1205  0.8309  0.2811
15429TIP3    H167702   1.525   3.441  16.071 -1.2543  0.9326  1.1172
15429TIP3    H267703   1.497   3.363  16.197  1.0716  0.8166  1.6090
15430TIP3   OH267704   0.612   6.354  15.790  0.2896  0.1211 -0.4817
15430TIP3    H167705   0.706   6.369  15.795  0.1701  0.5139  1.1469
15430TIP3    H267706   0.603   6.261  15.772  0.9895 -0.0172 -0.1346
15431TIP3   OH267707   2.833   6.689  15.010  0.0544 -0.1544 -0.2675
15431TIP3    H167708   2.817   6.715  14.919 -0.9158 -0.8955 -0.3135
15431TIP3    H267709   2.929   6.686  15.016  0.1348 -0.5808 -1.3972
15432TIP3   OH267710   3.584   3.344   6.080 -0.0550 -0.5860 -0.1057
15432TIP3    H167711   3.509   3.398   6.106  0.2265 -0.3808  0.2969
15432TIP3    H267712   3.603   3.290   6.156  2.1718  1.5713  1.0374
15433TIP3   OH267713   0.237   3.097  15.454 -0.3724 -0.0877  0.1539
15433TIP3    H167714   0.313   3.041  15.471 -0.0043 -0.0906 -1.3950
15433TIP3    H267715   0.188   3.051  15.385 -1.1699  0.4866  0.3159
15434TIP3   OH267716   4.890   3.982   0.400 -0.4841 -0.3606  0.7357
15434TIP3    H167717   4.883   3.903   0.346  0.0708 -0.7574  1.2298
15434TIP3    H267718   4.862   3.954   0.487 -2.2003  0.4802  0.5091
15435TIP3   OH267719   0.904   5.070   6.008  0.3056 -0.0674  0.7969
15435TIP3    H167720   0.868   5.029   5.929  2.3726  2.1255 -1.4800
15435TIP3    H267721   0.837   5.131   6.036  0.1076  0.2163 -0.2340
15436TIP3   OH267722   3.855   5.966  15.836 -0.4514  0.1541 -0.2920
15436TIP3    H167723   3.783   5.968  15.773 -0.1928  0.0993 -0.5871
15436TIP3    H267724   3.930   5.999  15.788 -0.4547  0.9810  0.2453
15437TIP3   OH267725   3.448   1.045   3.319  0.0252  0.2483  0.1382
15437TIP3    H167726   3.362   1.006   3.304  0.1296  0.2859 -0.6249
15437TIP3    H267727   3.432   1.139   3.318 -0.1836  0.2443  1.7068
15438TIP3   OH267728   1.553   5.714   6.643 -0.0192 -0.0365  0.6599
15438TIP3    H167729   1.505   5.648   6.694  0.7383 -0.7867  0.4147
15438TIP3    H267730   1.566   5.673   6.558 -0.4171  0.8335  0.1661
15439TIP3   OH267731   6.496   3.047  13.207 -0.1998 -0.7624  0.4754
15439TIP3    H167732   6.503   3.076  13.297  0.4210 -0.7422  0.4235
15439TIP3    H267733   6.575   3.080  13.164 -1.2038  0.5595 -0.4624
15440TIP3   OH267734   1.542   6.370   3.245 -0.0796  0.0467 -0.1716
15440TIP3    H167735   1.621   6.354   3.296  0.1487 -0.7955 -0.7566
15440TIP3    H267736   1.571   6.424   3.172 -0.4578  1.4812  0.7030
15441TIP3   OH267737   0.193   0.689  11.900  0.0289  0.4454  0.4099
15441TIP3    H167738   0.233   0.640  11.972 -0.1886 -0.3518 -0.0026
15441TIP3    H267739   0.267   0.724  11.850  0.1868  1.7821  1.5186
15442TIP3   OH267740   6.699   1.679   2.266 -0.2123 -1.1399 -0.0189
15442TIP3    H167741   6.764   1.749   2.275 -0.4577 -1.0788  1.3995
15442TIP3    H267742   6.639   1.711   2.198 -1.4777  0.9782  1.9590
15443TIP3   OH267743   6.365   3.180   1.737  0.0464  0.1646 -0.4113
15443TIP3    H167744   6.305   3.106   1.744  1.3484 -0.9452 -0.5566
15443TIP3    H267745   6.436   3.159   1.799  0.4767  1.2540 -0.5072
15444TIP3   OH267746   3.186   0.745  13.875  0.3053 -0.1921  0.0779
15444TIP3    H167747   3.257   0.796  13.836 -0.6354  0.1293 -1.2896
15444TIP3    H267748   3.186   0.663  13.826  1.0433 -1.0598  1.4725
15445TIP3   OH267749   2.565   0.559  16.566  0.0279  0.7315  0.1071
15445TIP3    H167750   2.626   0.490  16.543  0.6164  1.0132  0.7805
15445TIP3    H267751   2.553   0.551  16.661 -0.4147  1.1273  0.0917
15446TIP3   OH267752   6.241   4.687  14.929 -0.2184  0.4368 -0.3095
15446TIP3    H167753   6.328   4.665  14.896 -0.1289  2.3436 -1.4926
15446TIP3    H267754   6.234   4.641  15.012  2.4173  1.1877  0.4107
15447TIP3   OH267755   3.507   6.168   4.091 -0.0791 -0.1332 -0.1283
15447TIP3    H167756   3.600   6.173   4.066  0.0121 -0.4289  0.1443
15447TIP3    H267757   3.480   6.260   4.098  1.2385  0.1337  3.5566
15448TIP3   OH267758   2.881   6.172   0.897 -0.4120  0.1089  0.1928
15448TIP3    H167759   2.788   6.153   0.909 -0.5291 -1.2785 -2.2821
15448TIP3    H267760   2.892   6.179   0.802  2.2607 -1.1385  0.3305
15449TIP3   OH267761   3.709   0.963  12.489  0.2425  0.6248  0.0153
15449TIP3    H167762   3.679   1.049  12.461 -0.2244  0.0132 -1.5065
15449TIP3    H267763   3.636   0.926  12.538  1.1393  1.7862  2.3718
15450TIP3   OH267764   6.057   2.255   5.091  0.3967  0.6318 -0.2748
15450TIP3    H167765   6.043   2.302   5.174  1.7853  0.8937 -0.1605
15450TIP3    H267766   5.980   2.276   5.039 -0.3199  0.7907  0.8042
15451TIP3   OH267767   6.636   3.037   5.448  0.4527  0.4745 -0.4351
15451TIP3    H167768   6.705   3.080   5.398  0.5894  0.9779  0.1847
15451TIP3    H267769   6.679   3.001   5.525 -0.0774  1.3475  0.2816
15452TIP3   OH267770   2.972   5.124  12.067 -0.2317 -0.1836  0.9034
15452TIP3    H167771   2.888   5.169  12.080 -1.5027 -1.7383 -1.2877
15452TIP3    H267772   3.019   5.179  12.004 -0.8340 -0.7483 -0.0529
15453TIP3   OH267773   3.782   5.705  15.147 -0.2601  0.2866 -0.5838
15453TIP3    H167774   3.769   5.749  15.231 -0.9384 -0.2528 -0.4064
15453TIP3    H267775   3.815   5.618  15.170  1.8759  0.9365 -0.9587
15454TIP3   OH267776   3.748   1.878   6.506  0.0295  0.2477  0.2319
15454TIP3    H167777   3.743   1.807   6.442 -3.3078  1.0923 -0.6506
15454TIP3    H267778   3.750   1.833   6.591  2.3684 -0.8612 -0.3323
15455TIP3   OH267779   0.309   3.817  15.046 -0.4997  0.0756  0.3894
15455TIP3    H167780   0.385   3.864  15.013 -0.1138 -1.9735 -1.9765
15455TIP3    H267781   0.239   3.882  15.050  0.5880  1.3303 -0.4818
15456TIP3   OH267782   3.164   0.174  16.993  0.0515 -0.3029  0.3026
15456TIP3    H167783   3.227   0.202  16.927  0.0340 -1.1199 -0.0697
15456TIP3    H267784   3.083   0.159  16.945 -0.4409  0.7380  0.7835
15457TIP3   OH267785   1.876   6.039   1.109 -0.2839  0.6123 -0.2853
15457TIP3    H167786   1.836   6.126   1.114  0.0661  0.8190 -0.9592
15457TIP3    H267787   1.807   5.979   1.138 -0.7985  1.0434 -0.5875
15458TIP3   OH267788   0.923   3.294   4.236 -0.4523 -0.0291  0.0918
15458TIP3    H167789   0.943   3.369   4.180 -1.6292  0.0961 -0.1897
15458TIP3    H267790   0.982   3.304   4.311 -2.4291  2.8224  1.4696
15459TIP3   OH267791   1.692   6.408   4.233  0.0630 -0.8313  0.3885
15459TIP3    H167792   1.598   6.389   4.224 -0.3645  1.1999  0.1235
15459TIP3    H267793   1.719   6.436   4.146  0.1055  1.7492  1.1558
15460TIP3   OH267794   1.681   1.499   1.864 -0.7725 -0.1808  0.2920
15460TIP3    H167795   1.754   1.555   1.835 -0.3709 -0.7360  0.2265
15460TIP3    H267796   1.722   1.420   1.897 -1.2156  0.4071  2.4043
15461TIP3   OH267797   4.747   2.232   4.608 -0.2078  0.2669  0.0283
15461TIP3    H167798   4.737   2.299   4.676  0.3452 -0.1891  0.5655
15461TIP3    H267799   4.666   2.182   4.611 -0.1441  0.1874  0.4208
15462TIP3   OH267800   3.971   5.472   2.939 -0.2848 -0.1523 -0.2029
15462TIP3    H167801   3.926   5.508   2.863  1.9372 -0.5252 -1.8001
15462TIP3    H267802   3.962   5.377   2.930  0.5936 -0.2215 -0.4178
15463TIP3   OH267803   6.423   5.364  10.528  0.3150  0.5189 -0.7684
15463TIP3    H167804   6.358   5.294  10.529  0.1364  0.6291  2.0874
15463TIP3    H267805   6.372   5.444  10.512  0.2128  0.2731 -1.7165
15464TIP3   OH267806   3.212   1.164  11.875 -0.4815 -0.0326 -0.1067
15464TIP3    H167807   3.181   1.134  11.960  0.5286  0.2614  0.3878
15464TIP3    H267808   3.133   1.173  11.822 -1.2121  0.4538  1.0208
15465TIP3   OH267809   6.145   5.146  11.460  0.5980 -0.3014 -0.2024
15465TIP3    H167810   6.142   5.239  11.481 -2.4219 -0.2275 -0.5779
15465TIP3    H267811   6.102   5.103  11.534  1.3506 -1.3536 -0.3535
15466TIP3   OH267812   6.761   1.723  12.816 -0.8490  0.0182 -0.3718
15466TIP3    H167813   6.820   1.743  12.743  1.1622  2.4037  1.7199
15466TIP3    H267814   6.684   1.778  12.800 -1.4212 -1.1164 -1.7452
15467TIP3   OH267815   5.615   0.800  14.329  0.6500  0.1928 -0.3797
15467TIP3    H167816   5.586   0.867  14.267 -0.2096  0.2304  0.0471
15467TIP3    H267817   5.605   0.841  14.415  1.2914 -0.0577 -0.1819
15468TIP3   OH267818   4.139   3.141  14.879 -0.3349 -0.4235 -0.3912
15468TIP3    H167819   4.094   3.218  14.913 -1.1991 -1.4735  0.9457
15468TIP3    H267820   4.232   3.158  14.894 -0.4698  0.5951 -0.6613
15469TIP3   OH267821   0.541   0.451   1.494 -0.1245 -0.0602  0.7499
15469TIP3    H167822   0.460   0.500   1.475  0.1467  0.2490  0.3722
15469TIP3    H267823   0.511   0.362   1.513 -0.5047 -0.1269 -0.0879
15470TIP3   OH267824   3.467   3.737  12.713  0.1378  0.3224 -0.4310
15470TIP3    H167825   3.438   3.822  12.745  0.3581  0.9967 -1.9378
15470TIP3    H267826   3.386   3.685  12.706 -0.0964  0.6545 -0.2042
15471TIP3   OH267827   5.958   1.813   4.279 -0.5377  0.8013  0.0966
15471TIP3    H167828   5.987   1.722   4.284  1.3670  1.0037 -3.6282
15471TIP3    H267829   6.037   1.864   4.295 -1.0011  1.7029 -0.3958
15472TIP3   OH267830   1.958   1.144   1.238  0.3191  0.0039  0.0902
15472TIP3    H167831   1.878   1.196   1.235  0.6574  0.5038 -0.6098
15472TIP3    H267832   2.018   1.197   1.292  0.6595  0.3478 -0.6128
15473TIP3   OH267833   6.727   3.568  11.361 -0.3284 -0.2240 -0.0687
15473TIP3    H167834   6.636   3.566  11.330  0.0865 -0.8343 -1.3502
15473TIP3    H267835   6.740   3.483  11.403 -0.2951 -0.2280 -0.0868
15474TIP3   OH267836   4.795   2.852  10.920 -0.2292  0.2750 -0.0114
15474TIP3    H167837   4.713   2.851  10.871  0.1017  1.6106 -0.6535
15474TIP3    H267838   4.851   2.911  10.870  1.0042 -0.3382  0.6139
15475TIP3   OH267839   5.794   5.521   5.742 -0.6323 -0.2974  0.1778
15475TIP3    H167840   5.748   5.547   5.663 -1.9760 -0.5972  0.8411
15475TIP3    H267841   5.823   5.432   5.725  0.4634  0.1774 -0.5550
15476TIP3   OH267842   3.087   4.511   2.154 -0.1663  0.4393 -0.4814
15476TIP3    H167843   3.143   4.551   2.221 -2.7244  1.8281  0.9579
15476TIP3    H267844   3.010   4.481   2.202 -1.3351 -0.0756 -2.5726
15477TIP3   OH267845   1.560   2.026  13.087  0.1551  0.0808  0.8682
15477TIP3    H167846   1.625   2.076  13.136  0.8321  0.5930 -0.4906
15477TIP3    H267847   1.549   2.075  13.005 -2.6288  0.4974  1.4173
15478TIP3   OH267848   1.301   2.067  14.191  0.1453 -0.3858 -0.0083
15478TIP3    H167849   1.311   2.054  14.097 -0.3815 -1.2735  0.0476
15478TIP3    H267850   1.299   2.162  14.202  0.2615 -0.2765 -0.8857
15479TIP3   OH267851   4.932   6.736   6.439 -0.1883  0.4616 -0.7469
15479TIP3    H167852   4.902   6.785   6.362 -1.7451 -0.6417 -0.9013
15479TIP3    H267853   4.944   6.647   6.407  1.2303  0.4139 -0.1571
15480TIP3   OH267854   4.729   3.498   1.077 -0.1854  0.1579 -0.0370
15480TIP3    H167855   4.681   3.572   1.115 -3.2855 -1.0567 -1.2234
15480TIP3    H267856   4.701   3.496   0.986  1.6740 -1.1032 -0.6343
15481TIP3   OH267857   6.188   5.139   2.506  0.1313 -0.7539  0.4659
15481TIP3    H167858   6.219   5.093   2.428 -0.8364 -2.3665  0.9929
15481TIP3    H267859   6.093   5.128   2.504 -0.2054  1.5727  0.4391
15482TIP3   OH267860   2.295   3.933  12.278 -0.3158  0.1175 -0.2712
15482TIP3    H167861   2.356   3.931  12.352  1.0371  2.7314 -1.1883
15482TIP3    H267862   2.307   3.848  12.235  0.4582 -0.5894  1.2465
15483TIP3   OH267863   3.543   1.940   3.620  0.2167  0.2988 -0.2645
15483TIP3    H167864   3.568   2.029   3.647 -0.2266  0.7131 -1.1465
15483TIP3    H267865   3.552   1.887   3.699  0.2559  1.1805  0.3374
15484TIP3   OH267866   3.904   0.509   0.817 -0.6281  0.2815 -0.5275
15484TIP3    H167867   3.863   0.532   0.900 -0.8202 -0.7063 -0.3260
15484TIP3    H267868   3.844   0.446   0.777  0.4961 -0.9374 -0.3785
15485TIP3   OH267869   1.954   4.285  13.667 -0.1267 -0.5792 -0.3619
15485TIP3    H167870   1.899   4.360  13.687 -1.2725 -1.2108 -1.0167
15485TIP3    H267871   1.993   4.260  13.751  0.8208  1.1425 -0.2592
15486TIP3   OH267872   5.531   0.061   4.930 -0.0119  0.1846  0.2312
15486TIP3    H167873   5.472   0.123   4.886 -1.6425 -0.1640  1.8133
15486TIP3    H267874   5.512  -0.023   4.887  1.1242  0.4903 -0.9057
15487TIP3   OH267875   4.036   1.383   0.450 -0.4559 -0.0323  0.3424
15487TIP3    H167876   4.022   1.351   0.539  0.2183 -1.8303 -0.1587
15487TIP3    H267877   4.039   1.304   0.396  0.2508  0.9495 -1.1214
15488TIP3   OH267878   3.371   4.345   4.924 -0.7531  0.3569 -0.1184
15488TIP3    H167879   3.410   4.433   4.927 -0.1102  0.0530  1.5522
15488TIP3    H267880   3.444   4.288   4.899 -0.8164  0.1269  0.2216
15489TIP3   OH267881   2.688   1.716   4.902 -0.1457 -0.0138 -0.3225
15489TIP3    H167882   2.659   1.703   4.812 -1.0458 -0.0092 -0.0461
15489TIP3    H267883   2.732   1.634   4.926 -1.1715 -0.5745 -0.3039
15490TIP3   OH267884   2.208   1.092   0.267  0.4196 -0.3822  0.3078
15490TIP3    H167885   2.289   1.108   0.316  0.8668 -1.1019 -0.1912
15490TIP3    H267886   2.175   1.010   0.303 -0.2114  0.0175  0.6596
15491TIP3   OH267887   0.265   6.316  13.351 -0.1699  0.5300 -0.2609
15491TIP3    H167888   0.310   6.329  13.267  0.6588 -1.4664 -0.1784
15491TIP3    H267889   0.302   6.235  13.385 -1.1365  0.8458  1.6407
15492TIP3   OH267890   1.347   4.547  12.308 -0.1903 -0.2107  0.1221
15492TIP3    H167891   1.375   4.606  12.238 -0.6609  0.6916  0.6641
15492TIP3    H267892   1.300   4.477  12.263 -1.0262  0.6793 -0.4427
15493TIP3   OH267893   0.435   3.705  16.458  0.4260  0.2795 -0.2170
15493TIP3    H167894   0.448   3.765  16.384  0.4161  0.2154 -0.2715
15493TIP3    H267895   0.487   3.627  16.435 -1.7672 -0.9057 -1.4940
15494TIP3   OH267896   3.086   3.015  12.092  0.0393  0.0478 -0.3966
15494TIP3    H167897   3.098   2.936  12.040  1.2433  1.1936 -1.9498
15494TIP3    H267898   3.173   3.032  12.130 -0.2901  0.4374  0.1942
15495TIP3   OH267899   1.804   5.836  12.858 -0.3823  0.2402 -0.3411
15495TIP3    H167900   1.823   5.773  12.789 -1.4815 -0.2580 -0.2155
15495TIP3    H267901   1.859   5.912  12.837  1.2004 -0.8555 -0.3048
15496TIP3   OH267902   5.137   1.349   3.769  0.0742  0.1595  0.7208
15496TIP3    H167903   5.211   1.294   3.793 -0.7804 -1.1294  0.5072
15496TIP3    H267904   5.063   1.289   3.763 -0.4025  0.8530 -2.0468
15497TIP3   OH267905   4.067   1.743  15.558 -0.3123 -0.0617  0.0543
15497TIP3    H167906   4.159   1.764  15.541 -0.3140  0.0554  0.1814
15497TIP3    H267907   4.070   1.664  15.612 -0.1532  1.5564  2.5797
15498TIP3   OH267908   1.661   6.145   2.898  0.4023  0.3082 -0.5264
15498TIP3    H167909   1.710   6.110   2.972 -0.5447 -0.0022 -0.0176
15498TIP3    H267910   1.645   6.237   2.921  0.2543  0.2556 -0.4089
15499TIP3   OH267911   3.397   4.661  12.180 -0.0305 -0.3376  0.2532
15499TIP3    H167912   3.418   4.744  12.223  0.9784 -0.4455 -0.0076
15499TIP3    H267913   3.306   4.670  12.153  0.6433  1.4817 -1.5943
15500TIP3   OH267914   0.573   3.677  14.682  0.2532 -0.6856  0.3971
15500TIP3    H167915   0.533   3.650  14.764 -0.5395 -0.2867  0.1545
15500TIP3    H267916   0.656   3.628  14.678  0.8136  0.0621  1.9266
15501TIP3   OH267917   4.068   5.227  16.315 -0.2545 -0.0463  0.1085
15501TIP3    H167918   4.121   5.274  16.379  0.5411  0.8622 -1.1595
15501TIP3    H267919   4.069   5.283  16.237 -1.5084 -0.9236 -0.5833
15502TIP3   OH267920   5.473   0.096  14.504 -0.4955 -0.3173  0.1625
15502TIP3    H167921   5.455   0.180  14.547 -0.6919  0.3014 -1.0964
15502TIP3    H267922   5.569   0.092  14.497 -0.5263  0.3913 -0.8769
15503TIP3   OH267923   6.758   0.896   2.965  0.7356 -0.1624  0.3480
15503TIP3    H167924   6.750   0.803   2.942  1.4787 -0.4130  1.0448
15503TIP3    H267925   6.701   0.906   3.041 -0.8476  0.4108 -0.8568
15504TIP3   OH267926   1.950   1.015  13.730 -0.4261 -0.0466 -0.0767
15504TIP3    H167927   1.966   1.044  13.640 -0.5100 -1.1973 -0.4848
15504TIP3    H267928   1.950   0.919  13.724 -1.4378 -0.1330  0.9756
15505TIP3   OH267929   1.895   4.598   0.979 -0.1148 -0.2901 -0.1907
15505TIP3    H167930   1.852   4.560   1.055  1.1453  0.2295  0.8117
15505TIP3    H267931   1.973   4.641   1.014  0.2051  0.4375 -1.7020
15506TIP3   OH267932   1.468   0.891  14.827  0.1341  0.2877  0.4400
15506TIP3    H167933   1.522   0.965  14.801 -1.0622  0.7411 -0.9242
15506TIP3    H267934   1.527   0.832  14.873  2.4863 -0.5084 -3.2081
15507TIP3   OH267935   0.762   4.984  16.088  0.3630 -1.3416 -0.3929
15507TIP3    H167936   0.693   4.980  16.022  1.3608 -1.1740 -1.4784
15507TIP3    H267937   0.718   4.963  16.170 -1.4499  0.9881 -0.6749
15508TIP3   OH267938   1.624   0.320  13.574 -0.1452  0.4990  0.3519
15508TIP3    H167939   1.596   0.232  13.549  0.3826  0.5302 -0.3950
15508TIP3    H267940   1.555   0.351  13.633  0.2173 -0.8175  1.5223
15509TIP3   OH267941   3.987   3.952  14.639 -0.4084  0.4359 -0.1967
15509TIP3    H167942   4.060   3.913  14.686  1.6877  1.6997 -2.1775
15509TIP3    H267943   3.976   4.039  14.679 -1.6539 -0.1541  0.8334
15510TIP3   OH267944   3.954   3.784   6.738 -0.2276  0.4825  0.1012
15510TIP3    H167945   3.958   3.719   6.668 -3.2510  0.9702 -0.6946
15510TIP3    H267946   4.019   3.849   6.715  1.2556 -1.0762 -0.3168
15511TIP3   OH267947   5.198   4.272  16.224 -0.9987  0.0660 -0.5797
15511TIP3    H167948   5.270   4.332  16.209  0.7528 -1.7144  0.2515
15511TIP3    H267949   5.122   4.314  16.184  0.0832  2.8547  0.0986
15512TIP3   OH267950   4.770   0.621  13.964  0.1444 -0.3088  0.0700
15512TIP3    H167951   4.691   0.615  13.911  0.3704  1.0215 -0.4488
15512TIP3    H267952   4.804   0.709  13.948  0.6192 -0.1179  1.8627
15513TIP3   OH267953   0.514   4.351   2.343  0.0282  0.4464  0.0243
15513TIP3    H167954   0.480   4.299   2.415 -0.3921  3.1039  1.8682
15513TIP3    H267955   0.438   4.368   2.288 -0.0667  0.1874  0.0713
15514TIP3   OH267956   2.403   3.986   1.163 -0.3323  0.0871  0.2603
15514TIP3    H167957   2.434   3.903   1.126  0.0518  0.7457 -0.9547
15514TIP3    H267958   2.477   4.045   1.155 -0.6973  0.6395  0.8449
15515TIP3   OH267959   5.216   6.576  15.952 -0.9512 -0.1251  0.1736
15515TIP3    H167960   5.156   6.561  15.878 -1.4293 -1.6292  0.8365
15515TIP3    H267961   5.179   6.652  15.997  0.1077  1.7093 -1.8553
15516TIP3   OH267962   3.276   3.411  13.458  0.6789  0.7937  0.3175
15516TIP3    H167963   3.363   3.383  13.430  0.5998  1.7397 -1.0211
15516TIP3    H267964   3.284   3.506  13.469 -0.5012  1.1184 -1.2404
15517TIP3   OH267965   0.153   4.448   1.013 -0.1002 -0.1660 -0.3321
15517TIP3    H167966   0.200   4.418   0.935  0.3639  0.8259 -0.4464
15517TIP3    H267967   0.179   4.540   1.023 -1.6078  0.2629 -0.0985
15518TIP3   OH267968   3.484   6.347  15.103 -0.4002  0.2902 -0.5722
15518TIP3    H167969   3.531   6.289  15.162 -2.1766 -2.3291 -1.5252
15518TIP3    H267970   3.539   6.352  15.025 -0.1957 -0.0584 -0.4519
15519TIP3   OH267971   3.069   5.062   3.592  0.1159 -0.0731 -0.1777
15519TIP3    H167972   3.022   5.006   3.654  0.1050  0.1775  0.0416
15519TIP3    H267973   3.013   5.063   3.514 -1.3754  1.9570  0.8104
15520TIP3   OH267974   5.449   6.251   0.820 -0.1426  0.1609  0.2144
15520TIP3    H167975   5.458   6.345   0.803  0.2636 -0.0448 -0.7436
15520TIP3    H267976   5.480   6.240   0.910  1.7700  0.6452 -0.3365
15521TIP3   OH267977   0.663   6.303  12.424 -0.0337 -0.0171  1.1053
15521TIP3    H167978   0.748   6.259  12.419 -0.4730 -0.8708  0.9432
15521TIP3    H267979   0.680   6.391  12.392 -0.2129 -1.5895 -4.2671
15522TIP3   OH267980   5.975   0.169  15.315 -0.0614  0.1473 -0.2861
15522TIP3    H167981   6.013   0.155  15.402  2.2248 -1.0240 -1.3787
15522TIP3    H267982   5.996   0.260  15.295  1.5327 -0.2477 -0.5286
15523TIP3   OH267983   6.433   1.579   6.407  0.6380  0.2523 -0.0508
15523TIP3    H167984   6.410   1.625   6.488  3.0059 -1.5426  1.7991
15523TIP3    H267985   6.505   1.631   6.370  0.1497  0.5897 -0.5315
15524TIP3   OH267986   1.865   3.364  14.802  0.0745  0.3143  0.7425
15524TIP3    H167987   1.928   3.319  14.745 -0.0797  0.3340  0.5554
15524TIP3    H267988   1.873   3.456  14.779 -0.0662  0.3100  0.6744
15525TIP3   OH267989   2.295   3.724  15.600 -0.5969 -0.2992  0.2959
15525TIP3    H167990   2.319   3.816  15.606 -0.4352 -0.3536  0.5114
15525TIP3    H267991   2.284   3.707  15.507  1.9089 -0.7048 -0.0010
15526TIP3   OH267992   1.019   0.193  12.618 -0.4800  0.4900 -0.1758
15526TIP3    H167993   1.004   0.284  12.642  0.0419  0.3929  0.5621
15526TIP3    H267994   1.089   0.164  12.676  0.9438  0.2606 -1.9347
15527TIP3   OH267995   4.237   2.372  11.373  0.0247 -0.6507 -0.2484
15527TIP3    H167996   4.211   2.380  11.281  0.2782 -1.7167 -0.4309
15527TIP3    H267997   4.289   2.450  11.390 -2.5809  1.1510 -0.0786
15528TIP3   OH267998   1.243   1.928   6.023 -0.1775 -0.2816 -0.1477
15528TIP3    H167999   1.227   1.908   6.115  0.3325 -1.1138 -0.2208
15528TIP3    H268000   1.242   2.023   6.018  0.0836 -0.2214  0.7782
15529TIP3   OH268001   3.923   2.771   1.532  0.5878  0.5145  0.0567
15529TIP3    H168002   3.998   2.735   1.484  0.2620  1.3588 -1.1495
15529TIP3    H268003   3.846   2.733   1.489  0.3100 -0.1563  1.1284
15530TIP3   OH268004   1.066   4.138   3.391 -0.0503 -0.9771 -0.2331
15530TIP3    H168005   1.036   4.154   3.302  1.0657 -0.9356 -0.6111
15530TIP3    H268006   1.007   4.070   3.424  0.4758 -2.1150 -1.5380
15531TIP3   OH268007   0.051   1.436  14.708  0.2212 -0.5659 -0.0262
15531TIP3    H168008  -0.013   1.496  14.744 -0.3464 -0.6256 -0.8977
15531TIP3    H268009   0.091   1.483  14.635  1.0138 -0.6140  0.3633
15532TIP3   OH268010   0.053   3.703  15.650 -0.3548 -0.1039  0.0702
15532TIP3    H168011   0.003   3.625  15.628 -0.7609 -0.5911  2.4216
15532TIP3    H268012   0.131   3.698  15.596 -1.9672 -0.2605 -2.3733
15533TIP3   OH268013   2.862   3.400   1.184 -0.2670 -0.1309 -0.4862
15533TIP3    H168014   2.869   3.434   1.095 -0.0045 -0.3807 -0.5622
15533TIP3    H268015   2.929   3.446   1.234 -0.8850  0.5308 -0.2490
15534TIP3   OH268016   1.116   3.129   1.723 -0.1448  0.0670 -0.1551
15534TIP3    H168017   1.172   3.190   1.675  1.2101 -0.7939  0.2560
15534TIP3    H268018   1.028   3.147   1.691  0.3851  1.3297 -0.9925
15535TIP3   OH268019   5.290   1.086   1.494 -0.5378 -0.2789 -0.4031
15535TIP3    H168020   5.328   1.136   1.422 -0.0371 -1.6355 -1.1238
15535TIP3    H268021   5.254   1.152   1.553 -1.6043  0.8396 -2.2321
15536TIP3   OH268022   2.121   4.137   4.643  0.7266 -0.1363  0.9748
15536TIP3    H168023   2.080   4.208   4.593 -1.0660 -0.4975  1.8300
15536TIP3    H268024   2.209   4.167   4.661 -0.5749  2.8499  3.1033
15537TIP3   OH268025   0.227   1.370  16.328  0.4463  0.3051 -0.0651
15537TIP3    H168026   0.281   1.304  16.372 -2.1353 -2.4380 -0.6521
15537TIP3    H268027   0.212   1.436  16.395  2.1906 -0.2400  0.9453
15538TIP3   OH268028   6.564   3.811  16.094  0.3830 -0.1673  0.5519
15538TIP3    H168029   6.532   3.769  16.174  0.4067  0.9547  1.1786
15538TIP3    H268030   6.582   3.739  16.034 -3.2619 -0.9280  0.1468
15539TIP3   OH268031   1.376   5.976   1.755  1.1275  0.4201 -0.6174
15539TIP3    H168032   1.421   5.997   1.837  0.2474  2.6596 -0.6239
15539TIP3    H268033   1.284   5.971   1.779  1.0151 -0.5707 -1.2098
15540TIP3   OH268034   4.402   4.489   1.595  0.1313 -0.0202 -0.2398
15540TIP3    H168035   4.445   4.418   1.549 -0.8038 -0.7312 -0.0485
15540TIP3    H268036   4.322   4.450   1.630  0.5296  0.6429  1.5022
15541TIP3   OH268037   5.650   1.021  15.958 -0.3529 -0.2135 -0.0453
15541TIP3    H168038   5.620   0.934  15.934 -1.7280  0.7615 -2.2654
15541TIP3    H268039   5.745   1.019  15.942 -0.0033 -1.8248  1.9291
15542TIP3   OH268040   6.041   2.169  16.702  0.2753  0.5309 -0.4449
15542TIP3    H168041   5.956   2.145  16.666  0.1348  0.8500 -0.3359
15542TIP3    H268042   6.048   2.263  16.685  0.2143  0.6884  0.3371
15543TIP3   OH268043   2.424   0.320   0.331 -0.2724 -0.2842  0.3810
15543TIP3    H168044   2.496   0.335   0.393 -0.4118 -0.2395  0.5312
15543TIP3    H268045   2.346   0.312   0.386 -0.5512  0.7552  0.1581
15544TIP3   OH268046   3.239   5.692  15.488  0.1311 -0.1275 -0.5289
15544TIP3    H168047   3.310   5.641  15.527 -0.8830 -1.1940 -0.0499
15544TIP3    H268048   3.283   5.751  15.426  1.2788 -1.9241 -1.4808
15545TIP3   OH268049   4.067   0.518   6.822  0.3406 -0.9034 -0.0151
15545TIP3    H168050   4.094   0.597   6.775 -1.6090 -1.3092 -1.9947
15545TIP3    H268051   4.032   0.550   6.906  3.5345 -0.1279  1.1549
15546TIP3   OH268052   5.372   4.277   0.067 -0.0743  0.0193 -0.1357
15546TIP3    H168053   5.302   4.301   0.007  0.7256  2.3751 -0.2569
15546TIP3    H268054   5.403   4.192   0.036 -2.7555 -1.0654 -0.1258
15547TIP3   OH268055   5.799   3.722  11.395  0.2267 -0.0151  0.0735
15547TIP3    H168056   5.829   3.678  11.315 -2.1789 -0.5213 -0.6298
15547TIP3    H268057   5.839   3.809  11.391  1.0972 -0.4436 -1.0722
15548TIP3   OH268058   1.621   6.763  16.147 -0.0097  0.3844  0.6831
15548TIP3    H168059   1.659   6.799  16.228  2.1903  1.5681 -0.7485
15548TIP3    H268060   1.677   6.688  16.126  1.4377  1.9157 -1.2727
15549TIP3   OH268061   4.053   1.354   2.197  0.0347  0.8492 -0.0363
15549TIP3    H168062   4.046   1.420   2.266  1.2145  0.8937  0.0619
15549TIP3    H268063   3.967   1.312   2.195  0.2263  0.2189  2.0916
15550TIP3   OH268064   4.443   2.353   5.794 -0.3370  0.4424  0.6442
15550TIP3    H168065   4.398   2.410   5.733 -1.0976  1.0971  1.7696
15550TIP3    H268066   4.536   2.375   5.784 -0.3902  0.1122 -0.6683
15551TIP3   OH268067   2.003   3.925   1.779 -0.3897 -0.0695 -0.0777
15551TIP3    H168068   2.071   3.991   1.768  1.5877 -1.7672  1.2591
15551TIP3    H268069   1.967   3.942   1.866 -0.3378 -0.3386 -0.0032
15552TIP3   OH268070   0.014   3.282   2.717  0.6008 -0.1574 -0.1346
15552TIP3    H168071  -0.015   3.198   2.679  0.1566 -0.6629  1.2438
15552TIP3    H268072  -0.034   3.348   2.668 -0.5925 -0.8378  0.0467
15553TIP3   OH268073   3.205   0.828   1.362 -0.2617 -0.0642  0.3621
15553TIP3    H168074   3.273   0.882   1.402 -0.0022 -0.6727  0.7566
15553TIP3    H268075   3.124   0.857   1.403 -0.1814  0.3148  0.2602
15554TIP3   OH268076   0.123   0.366  11.007  0.2787  0.6227  0.0964
15554TIP3    H168077   0.150   0.279  10.980  1.9639  0.3126  2.4619
15554TIP3    H268078   0.187   0.425  10.967 -0.9789  0.8541 -1.6691
15555TIP3   OH268079   2.618   5.765   4.770 -0.1401  0.5745 -0.2109
15555TIP3    H168080   2.571   5.753   4.853 -0.1948  0.4205 -0.2641
15555TIP3    H268081   2.672   5.687   4.761 -0.0621  0.6360 -0.2728
15556TIP3   OH268082   5.445   2.585   2.436  0.4062  0.0086 -0.3170
15556TIP3    H168083   5.487   2.668   2.458 -0.1446  0.1789  0.1083
15556TIP3    H268084   5.351   2.602   2.445  0.2754 -0.5833 -0.4938
15557TIP3   OH268085   1.591   6.530  13.255  0.0009 -0.0481 -0.2246
15557TIP3    H168086   1.517   6.493  13.303 -0.1832  1.5650  0.8365
15557TIP3    H268087   1.646   6.569  13.324  0.5514  0.9411 -1.1976
15558TIP3   OH268088   5.796   1.488  13.800 -0.0793 -0.1745  0.9872
15558TIP3    H168089   5.743   1.412  13.772  1.5557 -0.5800 -1.2561
15558TIP3    H268090   5.779   1.495  13.894 -1.7842 -2.1148  0.9059
15559TIP3   OH268091   5.373   2.661  12.027  0.1952 -0.1297 -0.0912
15559TIP3    H168092   5.450   2.693  12.074 -0.7706  1.0481  0.7546
15559TIP3    H268093   5.354   2.576  12.067  0.5948 -0.0718  0.2262
15560TIP3   OH268094   2.061   0.306  13.774 -0.2465 -0.2562  0.1192
15560TIP3    H168095   1.984   0.271  13.819 -0.0369  0.3557  0.9774
15560TIP3    H268096   2.127   0.315  13.842 -0.6091  2.7891  0.2394
15561TIP3   OH268097   4.411   1.588   0.060  0.1800  0.3084 -0.0961
15561TIP3    H168098   4.385   1.577   0.152 -0.9102 -0.5793 -0.4863
15561TIP3    H268099   4.409   1.499   0.024 -0.9521  0.8111 -1.3577
15562TIP3   OH268100   0.654   0.090  11.866 -0.3516  0.2983 -0.1797
15562TIP3    H168101   0.669   0.038  11.944 -1.8722  1.7321  1.1511
15562TIP3    H268102   0.740   0.127  11.844 -0.1016  0.7991  1.5217
15563TIP3   OH268103   2.009   2.373  15.945  0.0885  0.1897 -0.6973
15563TIP3    H168104   1.983   2.349  16.034 -1.5124 -0.4197 -1.2975
15563TIP3    H268105   2.058   2.454  15.956 -0.2376  0.2247  0.7226
15564TIP3   OH268106   1.207   1.015  14.805 -0.7075 -0.0493 -0.2613
15564TIP3    H168107   1.274   0.953  14.777  1.1147  0.8575  1.7947
15564TIP3    H268108   1.203   1.004  14.900 -1.8473  1.5183 -0.0881
15565TIP3   OH268109   2.466   4.447  16.153 -0.2179 -0.0237  0.7036
15565TIP3    H168110   2.376   4.416  16.143 -0.0755 -0.4875  0.8482
15565TIP3    H268111   2.460   4.513  16.222 -0.0851 -1.7108  2.4148
15566TIP3   OH268112   4.926   2.956  11.799  0.0629 -0.2173 -0.3537
15566TIP3    H168113   4.863   2.928  11.733  0.5570 -2.9980  0.2207
15566TIP3    H268114   4.953   2.875  11.843  4.2740  0.7089 -0.7531
15567TIP3   OH268115   1.765   3.672   6.220  0.3199  0.5959  0.5669
15567TIP3    H168116   1.821   3.667   6.143  0.6522  1.0925  0.7697
15567TIP3    H268117   1.741   3.581   6.238  1.9677  0.2360  1.1197
15568TIP3   OH268118   1.631   1.436   5.183  0.0999 -0.4218 -0.0595
15568TIP3    H168119   1.691   1.451   5.256  1.1493  0.4311 -1.0556
15568TIP3    H268120   1.688   1.415   5.109 -0.8225  0.2371 -0.9855
15569TIP3   OH268121   6.482   5.330  12.873 -0.3736 -0.1455  0.3191
15569TIP3    H168122   6.543   5.305  12.803 -0.6967 -0.9540  0.3077
15569TIP3    H268123   6.406   5.366  12.828 -0.7823 -1.1102  0.2174
15570TIP3   OH268124   2.144   3.917   3.533 -0.6396  0.4688 -0.2041
15570TIP3    H168125   2.111   3.909   3.623  0.9121 -1.4235  0.2577
15570TIP3    H268126   2.154   3.827   3.503 -0.0558  1.0559 -1.8872
15571TIP3   OH268127   3.760   4.826   1.663  0.4410 -0.0047  0.2987
15571TIP3    H168128   3.687   4.885   1.677  0.6322  0.2800  0.1044
15571TIP3    H268129   3.758   4.766   1.738 -0.3529 -0.3836 -0.0118
15572TIP3   OH268130   0.053   3.916   6.298  0.5848 -0.2735 -0.0352
15572TIP3    H168131  -0.043   3.920   6.300  0.5290 -1.3264  2.2752
15572TIP3    H268132   0.081   4.007   6.293 -0.5265  0.1023  0.3432
15573TIP3   OH268133   0.667   5.821  12.035 -0.5219 -0.3921  0.4548
15573TIP3    H168134   0.671   5.747  12.095 -1.1625  1.1598  2.5034
15573TIP3    H268135   0.759   5.837  12.012 -0.1588 -0.4128  1.8029
15574TIP3   OH268136   5.722   5.073   3.783  0.5482  0.0390 -0.6097
15574TIP3    H168137   5.713   5.111   3.695 -0.7785  1.8025  0.2200
15574TIP3    H268138   5.812   5.091   3.808  0.0801  2.5205 -0.3939
15575TIP3   OH268139   5.936   4.665   2.434  0.5181  0.0308 -0.1312
15575TIP3    H168140   5.859   4.623   2.397  1.1190 -0.3831 -0.9254
15575TIP3    H268141   5.900   4.734   2.491 -0.4191  0.4149 -1.1620
15576TIP3   OH268142   4.167   2.934  12.067  0.1073 -0.0669  0.1981
15576TIP3    H168143   4.128   3.020  12.051  2.0093  0.5865 -1.2173
15576TIP3    H268144   4.141   2.882  11.991  0.5360 -0.1605  0.1169
15577TIP3   OH268145   1.483   0.658   5.220 -0.1726 -0.2809  0.1031
15577TIP3    H168146   1.457   0.566   5.213  0.0503 -0.3944  0.7373
15577TIP3    H268147   1.577   0.656   5.236 -0.1748  0.0542  0.1751
15578TIP3   OH268148   0.687   5.602   0.499  0.4256 -0.2581 -0.8338
15578TIP3    H168149   0.608   5.563   0.536  0.0726  1.1114 -0.0931
15578TIP3    H268150   0.657   5.683   0.458  1.3784  0.0620 -0.9242
15579TIP3   OH268151   3.533   5.658   5.241 -0.7107 -0.7076  0.0604
15579TIP3    H168152   3.619   5.700   5.245  0.1558 -2.1990 -1.5761
15579TIP3    H268153   3.521   5.619   5.327 -1.4904  2.5804  1.6155
15580TIP3   OH268154   2.250   1.847  12.469  0.2513 -0.3404 -1.5466
15580TIP3    H168155   2.252   1.751  12.477  1.3295 -0.1916  0.9106
15580TIP3    H268156   2.163   1.872  12.501  1.3309 -0.3545  1.7470
15581TIP3   OH268157   1.803   1.890  14.040  0.2743 -0.2673 -0.1945
15581TIP3    H168158   1.709   1.873  14.029  0.1350  0.1862  0.2516
15581TIP3    H268159   1.807   1.954  14.111  0.7733  1.4409 -1.6797
15582TIP3   OH268160   2.376   3.076   1.360  0.2076 -0.2840  0.8030
15582TIP3    H168161   2.300   3.021   1.377  0.7637 -1.0572  0.8303
15582TIP3    H268162   2.339   3.159   1.329 -0.6233 -0.8529  0.2261
15583TIP3   OH268163   4.690   6.602   3.164 -0.1909 -0.1324 -0.0292
15583TIP3    H168164   4.705   6.535   3.097  0.5113  1.1427 -1.1950
15583TIP3    H268165   4.620   6.656   3.128  0.9049  1.1912 -0.2712
15584TIP3   OH268166   3.349   3.045  13.782 -0.1750 -0.1398  0.1595
15584TIP3    H168167   3.411   3.115  13.803  0.0554 -0.0298 -0.8427
15584TIP3    H268168   3.349   3.040  13.686 -1.1235 -0.6766  0.1732
15585TIP3   OH268169   3.058   2.055  17.094 -0.0098  0.4905  0.1565
15585TIP3    H168170   3.106   2.038  17.175  1.3895 -0.3437 -0.8106
15585TIP3    H268171   2.969   2.076  17.123 -0.1699 -2.0283  1.8338
15586TIP3   OH268172   3.150   6.309  12.238 -0.1464 -0.5088 -0.2214
15586TIP3    H168173   3.197   6.247  12.294 -0.3125 -0.1026  0.3724
15586TIP3    H268174   3.061   6.311  12.272 -0.0937  0.1995 -0.1120
15587TIP3   OH268175   2.020   4.233   6.123 -0.0716  0.1534 -0.5082
15587TIP3    H168176   1.940   4.217   6.173  0.0550 -0.7582 -0.5760
15587TIP3    H268177   2.058   4.146   6.110  0.5398  0.5020 -1.1276
15588TIP3   OH268178   1.912   3.578   1.262 -0.4948  0.0767 -0.2438
15588TIP3    H168179   1.907   3.618   1.175  1.7777  1.2719  0.1153
15588TIP3    H268180   1.853   3.631   1.316 -2.8403 -1.3773 -1.2124
15589TIP3   OH268181   4.213   3.679   1.840 -0.2729  0.2561 -0.2085
15589TIP3    H168182   4.193   3.588   1.818  1.8694 -0.5542  0.8798
15589TIP3    H268183   4.282   3.673   1.906  2.3112  2.6513 -2.4587
15590TIP3   OH268184   2.961   6.108  16.501 -0.0763 -0.0693  0.0365
15590TIP3    H168185   2.996   6.024  16.532  1.1734 -0.2164 -1.6353
15590TIP3    H268186   3.038   6.158  16.475 -0.9367 -0.3042 -3.5413
15591TIP3   OH268187   5.400   0.537   0.530  0.5987 -0.1501  0.2453
15591TIP3    H168188   5.417   0.443   0.531  0.6341 -0.1425  0.8855
15591TIP3    H268189   5.447   0.570   0.606 -0.4287  0.1998  0.7377
15592TIP3   OH268190   3.232   3.596  15.361  0.0114  0.5803  0.1001
15592TIP3    H168191   3.319   3.599  15.399  0.1811  0.6195 -0.2823
15592TIP3    H268192   3.177   3.647  15.421 -0.2430 -1.3249  1.5633
15593TIP3   OH268193   3.238   5.137  16.775 -0.4370 -0.1875  0.2139
15593TIP3    H168194   3.184   5.083  16.717  1.2394 -1.9301  0.1482
15593TIP3    H268195   3.256   5.080  16.850  0.8181  0.5205  0.4819
15594TIP3   OH268196   6.612   6.429   4.258  0.7106  0.0027  0.4302
15594TIP3    H168197   6.699   6.403   4.227  0.6046  0.5600 -0.3696
15594TIP3    H268198   6.622   6.521   4.281  0.0558  0.3946 -0.7840
15595TIP3   OH268199   1.981   3.718   1.021 -0.5749 -0.1088 -0.4134
15595TIP3    H168200   2.047   3.727   1.090 -1.0124 -2.0290  0.3433
15595TIP3    H268201   1.944   3.806   1.011  1.5566  0.8467 -0.3372
15596TIP3   OH268202   0.963   5.953   1.584 -0.1813 -0.0868 -0.2856
15596TIP3    H168203   0.909   5.876   1.569 -0.2692 -0.3124  1.0776
15596TIP3    H268204   0.974   5.957   1.679 -0.7432  1.9415 -0.2561
15597TIP3   OH268205   1.127   0.510  14.362 -0.0596  0.0187  0.6325
15597TIP3    H168206   1.141   0.475  14.450 -0.1226 -3.3705 -0.5353
15597TIP3    H268207   1.035   0.536  14.361 -0.0125  0.2498  1.6246
15598TIP3   OH268208   0.802   2.838  17.322  0.1846 -0.3196  0.4018
15598TIP3    H168209   0.784   2.767  17.260  0.4877 -1.7789  1.9038
15598TIP3    H268210   0.722   2.891  17.322  1.3513  1.8698 -3.7734
15599TIP3   OH268211   3.762   0.097  15.169 -0.5382  0.2411 -0.0247
15599TIP3    H168212   3.733   0.089  15.260  0.1939 -0.4626  0.1544
15599TIP3    H268213   3.857   0.103  15.175 -0.5766  1.9640 -0.6376
15600TIP3   OH268214   3.383   6.490   1.103  0.5822 -0.3405 -0.0658
15600TIP3    H168215   3.448   6.440   1.152 -0.3720 -1.4670  0.0949
15600TIP3    H268216   3.398   6.466   1.011  0.7005 -0.2259 -0.0767
15601TIP3   OH268217   3.454   3.015   2.138  0.2828  0.2914  0.1386
15601TIP3    H168218   3.506   3.010   2.057 -1.1561 -0.3855 -0.7941
15601TIP3    H268219   3.518   3.003   2.208  1.4468 -0.0311 -0.9293
15602TIP3   OH268220   5.131   5.799   0.884  0.0555 -0.2368 -0.5689
15602TIP3    H168221   5.194   5.853   0.837 -0.7018  0.9581 -0.2335
15602TIP3    H268222   5.168   5.711   0.880  1.4163  0.3273 -0.9362
15603TIP3   OH268223   4.928   4.692   2.889 -0.0612 -1.0893 -0.3209
15603TIP3    H168224   5.023   4.682   2.888  0.1965  0.7454  0.8024
15603TIP3    H268225   4.902   4.688   2.797  0.8960 -2.9054 -0.5651
15604TIP3   OH268226   0.719   1.249   0.392  0.0955  0.1201 -0.1226
15604TIP3    H168227   0.634   1.234   0.433  0.7038  0.5507  1.3456
15604TIP3    H268228   0.737   1.341   0.407  0.2884  0.3246 -1.4980
15605TIP3   OH268229   4.728   4.931  14.847  0.6615  0.2130  0.6869
15605TIP3    H168230   4.736   4.934  14.942  0.1107  0.3696  0.7312
15605TIP3    H268231   4.642   4.891  14.831  0.1230  1.4778  0.2749
15606TIP3   OH268232   0.407   0.365  13.071  0.1849 -0.2805  0.5738
15606TIP3    H168233   0.405   0.428  13.000 -1.4066 -0.2914  0.5902
15606TIP3    H268234   0.500   0.341  13.079  0.6013  0.9274 -0.3990
15607TIP3   OH268235   2.426   4.781   1.128 -0.6965 -0.5743  0.0893
15607TIP3    H168236   2.420   4.818   1.040 -1.0221 -0.4179  0.1742
15607TIP3    H268237   2.390   4.849   1.185  0.9029 -0.0309  0.5212
15608TIP3   OH268238   4.861   4.609  16.323 -0.2363  0.3314 -0.5388
15608TIP3    H168239   4.917   4.670  16.275  0.3890  0.3098  0.1517
15608TIP3    H268240   4.873   4.633  16.415 -0.8547 -0.1086 -0.3398
15609TIP3   OH268241   1.767   6.272  14.818 -0.0322  0.5835  0.4852
15609TIP3    H168242   1.858   6.300  14.818 -0.0532  0.6466  0.2726
15609TIP3    H268243   1.750   6.242  14.729 -0.8531  2.5793 -0.0822
15610TIP3   OH268244   0.222   1.721  15.459  0.5865  0.2122  0.2941
15610TIP3    H168245   0.153   1.778  15.491  0.2266 -0.2824  0.4125
15610TIP3    H268246   0.184   1.678  15.382  1.1810  0.8315 -0.3599
15611TIP3   OH268247   4.370   0.208  10.705  0.2813  0.1650  0.5726
15611TIP3    H168248   4.461   0.191  10.682  0.2524  0.5962  0.1148
15611TIP3    H268249   4.373   0.287  10.759  0.1113  0.6453 -0.1063
15612TIP3   OH268250   2.066   6.626  16.074 -0.9159 -0.7967 -0.4535
15612TIP3    H168251   1.975   6.598  16.064 -1.0477 -0.7939  0.6752
15612TIP3    H268252   2.062   6.709  16.121 -0.3426 -0.6259 -0.6919
15613TIP3   OH268253   4.829   1.930  13.341 -0.2517 -0.4707  0.0743
15613TIP3    H168254   4.883   1.975  13.275 -0.6698 -0.7914 -0.4862
15613TIP3    H268255   4.886   1.925  13.417  0.3806 -0.4516 -0.3862
15614TIP3   OH268256   5.907   0.474  15.934 -0.1725  0.2723  0.0373
15614TIP3    H168257   5.976   0.522  15.980  0.4331  0.8579 -1.4250
15614TIP3    H268258   5.922   0.382  15.956  0.3811  0.4923  0.6114
15615TIP3   OH268259   2.447   0.441  15.080 -0.5724  0.4905 -0.3528
15615TIP3    H168260   2.483   0.420  15.165  0.3285  1.1139 -0.5637
15615TIP3    H268261   2.461   0.363  15.027 -0.4815  0.3574 -0.1298
15616TIP3   OH268262   2.589   0.420   1.085  0.0971 -0.3699 -0.4082
15616TIP3    H168263   2.572   0.484   1.154 -0.0191 -0.5829 -0.2378
15616TIP3    H268264   2.514   0.427   1.026  0.2194 -0.1543 -0.5395
15617TIP3   OH268265   6.368   4.267   0.802  0.4162  0.4687 -0.5721
15617TIP3    H168266   6.415   4.332   0.854 -1.0085  0.4988  0.7485
15617TIP3    H268267   6.301   4.317   0.755  0.9457  0.2793 -1.5552
15618TIP3   OH268268   0.035   5.134   4.393  0.4526  0.1286  0.4978
15618TIP3    H168269  -0.031   5.194   4.427  0.3724  0.0413  0.4985
15618TIP3    H268270   0.088   5.109   4.469  0.4003  0.0922  0.5227
15619TIP3   OH268271   5.981   4.917  15.392 -0.1292  0.7992 -0.2064
15619TIP3    H168272   5.968   4.845  15.330 -0.0389  0.9990 -0.4604
15619TIP3    H268273   5.911   4.979  15.371 -0.4269  0.6225  0.2509
15620TIP3   OH268274   4.128   3.876   3.966 -0.0327  0.2658  0.0171
15620TIP3    H168275   4.074   3.859   3.889 -1.6463 -0.7352  1.3026
15620TIP3    H268276   4.214   3.898   3.930 -0.6002 -0.6122 -2.0611
15621TIP3   OH268277   3.183   5.707   6.104  0.6004  0.0543  0.2228
15621TIP3    H168278   3.091   5.729   6.112  0.4112 -1.1279  1.7510
15621TIP3    H268279   3.198   5.641   6.172  2.4587 -0.1230 -0.3043
15622TIP3   OH268280   5.546   5.497  12.347 -0.2196  0.4374  0.2385
15622TIP3    H168281   5.551   5.413  12.300  1.0161  0.7450 -0.2309
15622TIP3    H268282   5.455   5.524  12.339 -0.8582 -1.2911  1.1634
15623TIP3   OH268283   2.996   1.626   2.497 -0.1639 -0.8668 -0.6736
15623TIP3    H168284   2.916   1.628   2.549 -0.7472 -0.9317 -1.5602
15623TIP3    H268285   3.057   1.575   2.550 -1.2351 -2.2734 -0.7442
15624TIP3   OH268286   6.689   3.122  16.551 -0.2362  0.3179 -0.0199
15624TIP3    H168287   6.648   3.051  16.602 -2.0653  1.9188  0.8598
15624TIP3    H268288   6.689   3.089  16.461  0.3212 -1.3705  0.5442
15625TIP3   OH268289   2.838   2.689   5.161  0.2445  0.1426 -0.2662
15625TIP3    H168290   2.914   2.667   5.215  0.1911 -1.0562 -0.6567
15625TIP3    H268291   2.763   2.661   5.213 -0.0090  2.0083  0.4464
15626TIP3   OH268292   1.576   6.713  16.860  0.0331 -0.4246 -0.2621
15626TIP3    H168293   1.485   6.702  16.834 -0.0829  0.8167 -0.4231
15626TIP3    H268294   1.592   6.641  16.921 -0.6102 -1.5182 -1.3304
15627TIP3   OH268295   4.097   4.528  14.339 -0.0472  0.1552 -0.1987
15627TIP3    H168296   4.060   4.603  14.386  0.7902  1.1592 -1.0841
15627TIP3    H268297   4.023   4.468  14.329 -1.0523  1.3827 -0.4826
15628TIP3   OH268298   6.438   2.999   5.238 -0.1340  0.3904 -0.0063
15628TIP3    H168299   6.408   3.087   5.213 -0.2661  0.0654 -1.0701
15628TIP3    H268300   6.495   3.013   5.313  1.9077  1.7053 -1.6705
15629TIP3   OH268301   2.740   3.579   0.267 -0.2121 -0.0791 -0.5395
15629TIP3    H168302   2.654   3.548   0.296 -0.0282  1.0352  1.3384
15629TIP3    H268303   2.801   3.543   0.332  0.4155  1.2741 -0.3617
15630TIP3   OH268304   4.728   6.485   1.264  0.2006 -0.2370 -0.2108
15630TIP3    H168305   4.653   6.427   1.275  0.0350  0.0300  0.0841
15630TIP3    H268306   4.735   6.498   1.169 -0.2981 -0.0351 -0.2186
15631TIP3   OH268307   1.938   1.815  12.482 -0.2054 -0.0203  0.8794
15631TIP3    H168308   1.897   1.738  12.443 -1.7034  1.9301 -1.7042
15631TIP3    H268309   1.896   1.825  12.567 -2.1703 -0.3971 -0.0109
15632TIP3   OH268310   1.715   6.018   4.439 -0.2298 -0.4994 -0.4411
15632TIP3    H168311   1.654   5.949   4.414 -1.9243  1.0404 -0.7685
15632TIP3    H268312   1.777   5.975   4.498 -1.4531 -2.2039 -0.3290
15633TIP3   OH268313   6.594   3.201   0.225  0.1108  0.4001  0.0070
15633TIP3    H168314   6.636   3.117   0.243 -0.8403 -0.4263 -1.4094
15633TIP3    H268315   6.666   3.264   0.225  1.0006 -0.5866  0.0148
15634TIP3   OH268316   5.386   0.792  13.866  0.2423  0.3621  0.1833
15634TIP3    H168317   5.365   0.882  13.890  0.1273  0.6137 -0.8129
15634TIP3    H268318   5.311   0.741  13.895  0.8077  0.3854  1.8100
15635TIP3   OH268319   6.179   2.784   4.544  0.0394  0.4651 -0.1123
15635TIP3    H168320   6.084   2.767   4.547 -0.0271  0.8703  0.1866
15635TIP3    H268321   6.218   2.698   4.528 -0.2402 -0.1454  2.1186
15636TIP3   OH268322   0.316   3.071   1.407 -0.3081  0.5203  0.0851
15636TIP3    H168323   0.250   3.122   1.453  0.1909  1.4864 -0.2400
15636TIP3    H268324   0.378   3.136   1.374  0.5801 -0.3286  0.0280
15637TIP3   OH268325   5.931   2.696  10.905  0.6358  0.3276 -0.3983
15637TIP3    H168326   5.985   2.763  10.862 -0.4016  2.5552  1.5480
15637TIP3    H268327   5.852   2.690  10.852  1.2758 -0.3807 -1.3085
15638TIP3   OH268328   1.521   3.523  16.901 -0.2590 -0.1150 -0.2680
15638TIP3    H168329   1.580   3.594  16.929 -0.3728  0.3643 -1.1844
15638TIP3    H268330   1.450   3.524  16.965 -0.3913  0.7880 -0.4091
15639TIP3   OH268331   1.762   5.855   6.475  0.0471 -0.6338  0.1903
15639TIP3    H168332   1.693   5.808   6.521 -0.2245 -1.9533 -1.4576
15639TIP3    H268333   1.842   5.831   6.521 -0.3251 -0.9785  0.6712
15640TIP3   OH268334   0.336   1.185  11.435 -0.4196  0.0884 -0.3996
15640TIP3    H168335   0.304   1.097  11.453 -1.9194  0.6616 -0.1442
15640TIP3    H268336   0.358   1.184  11.341 -0.1655 -0.6134 -0.3412
15641TIP3   OH268337   2.328   3.115   1.645 -0.0968 -0.7127 -0.3497
15641TIP3    H168338   2.358   3.101   1.555 -1.6911 -0.5654 -0.9414
15641TIP3    H268339   2.330   3.029   1.685 -0.7211 -1.0196 -0.9683
15642TIP3   OH268340   6.351   1.432   2.541  0.2927  0.5306  0.3713
15642TIP3    H168341   6.380   1.508   2.491  1.9019  0.8914  1.7667
15642TIP3    H268342   6.331   1.366   2.475  0.2766  1.6873 -0.8091
15643TIP3   OH268343   0.195   2.893   1.591 -0.4849  0.5918 -0.1402
15643TIP3    H168344   0.126   2.858   1.534 -1.5666  0.9856  0.8815
15643TIP3    H268345   0.258   2.933   1.531  0.0597 -1.7601 -1.2538
15644TIP3   OH268346   3.268   2.731   5.407 -0.0659 -0.1905 -0.4959
15644TIP3    H168347   3.277   2.741   5.502  0.8197  0.3049 -0.6165
15644TIP3    H268348   3.352   2.762   5.372 -0.7646  0.6254 -1.4966
15645TIP3   OH268349   3.010   4.961  13.834 -0.0744  0.3456 -0.2686
15645TIP3    H168350   3.002   4.886  13.893  0.8800  1.0677  0.8208
15645TIP3    H268351   2.931   5.012  13.852 -0.7428 -0.3973 -1.0365
15646TIP3   OH268352   0.277   6.632  11.211  0.2751  0.1270 -0.7946
15646TIP3    H168353   0.344   6.566  11.193 -1.2973 -2.0061  0.7900
15646TIP3    H268354   0.286   6.651  11.304  0.8775  2.4787 -1.2524
15647TIP3   OH268355   5.246   5.351   0.267  0.5989 -0.0730 -0.7235
15647TIP3    H168356   5.331   5.375   0.305  0.6057 -0.2544 -0.6200
15647TIP3    H268357   5.184   5.412   0.307  0.2875 -1.4817  1.1161
15648TIP3   OH268358   4.688   4.949   2.755  0.3201  0.4504 -0.1823
15648TIP3    H168359   4.774   4.981   2.784  1.0454 -1.9034  0.4885
15648TIP3    H268360   4.674   4.870   2.806 -2.4729  0.9730 -0.0093
15649TIP3   OH268361   5.095   5.127  15.075  0.3119  0.2149  0.0550
15649TIP3    H168362   5.085   5.217  15.107 -0.8237 -0.0541  0.5158
15649TIP3    H268363   5.080   5.135  14.980 -3.8297  0.0587  0.4984
15650TIP3   OH268364   1.217   5.112  13.127 -0.0858 -0.6036  0.3074
15650TIP3    H168365   1.195   5.044  13.191  0.0028 -0.5567  0.3874
15650TIP3    H268366   1.303   5.088  13.095 -0.2685 -0.8070 -0.0362
15651TIP3   OH268367   4.283   6.206  17.175  0.2088 -0.2612 -0.4642
15651TIP3    H168368   4.316   6.296  17.178 -0.1961 -0.1185 -0.1738
15651TIP3    H268369   4.211   6.208  17.111  0.4053 -0.4486 -0.6930
15652TIP3   OH268370   1.163   2.178   5.301  0.1371 -0.2394  0.6742
15652TIP3    H168371   1.086   2.179   5.357 -0.1527 -1.8657  0.3474
15652TIP3    H268372   1.130   2.153   5.215  0.9257 -0.2616  0.3723
15653TIP3   OH268373   1.230   6.301  16.955 -0.0127 -0.5006 -0.0013
15653TIP3    H168374   1.273   6.221  16.925 -1.3521 -1.6697  1.0416
15653TIP3    H268375   1.296   6.344  17.010  0.7974 -0.7739 -0.7431
15654TIP3   OH268376   4.638   5.133  16.466  0.0318 -0.1937 -0.1138
15654TIP3    H168377   4.696   5.137  16.390  2.7047 -1.8288  1.6718
15654TIP3    H268378   4.680   5.188  16.532 -0.9846 -0.6527  0.9621
15655TIP3   OH268379   2.913   3.510   5.673 -0.1684  0.1173 -1.0953
15655TIP3    H168380   2.890   3.495   5.765  1.2855 -2.5798 -1.0621
15655TIP3    H268381   2.977   3.581   5.676 -0.4015  0.3072 -0.0702
15656TIP3   OH268382   1.908   1.442   2.132  0.5111 -0.1146 -0.7441
15656TIP3    H168383   1.997   1.408   2.138  0.3918 -0.5053 -1.0877
15656TIP3    H268384   1.917   1.525   2.085  0.7115 -0.0741 -0.6346
15657TIP3   OH268385   1.535   5.212  16.667 -1.0854 -0.2947  0.2399
15657TIP3    H168386   1.565   5.300  16.647 -1.1287  0.0018  1.3719
15657TIP3    H268387   1.468   5.224  16.734 -2.2404 -1.0868 -0.7381
15658TIP3   OH268388   0.257   6.148  11.663  0.7286 -0.2387 -0.2696
15658TIP3    H168389   0.349   6.122  11.659  0.8345 -0.6550  2.5067
15658TIP3    H268390   0.236   6.145  11.757 -2.0154  0.2281 -0.7953
15659TIP3   OH268391   5.287   4.472  15.821 -0.2598  0.1988 -0.5122
15659TIP3    H168392   5.274   4.544  15.760  2.9690  2.9575  1.6518
15659TIP3    H268393   5.252   4.504  15.904 -0.2316 -1.4499  0.1766
15660TIP3   OH268394   5.442   1.375   3.698 -0.1109  0.2253 -0.2565
15660TIP3    H168395   5.360   1.393   3.651 -1.3397 -0.2684  1.5693
15660TIP3    H268396   5.472   1.461   3.727 -1.5841  0.2185  1.4952
15661TIP3   OH268397   2.145   4.947   1.052  0.2435 -0.1061 -0.1650
15661TIP3    H168398   2.177   4.876   0.997 -2.6765 -1.6099 -0.1416
15661TIP3    H268399   2.073   4.908   1.102 -0.2612  2.4138  1.2425
15662TIP3   OH268400   3.863   2.174  15.971  0.1857  0.2513 -0.0290
15662TIP3    H168401   3.889   2.137  15.886  1.8033  0.0894  0.4966
15662TIP3    H268402   3.913   2.255  15.977 -2.1290  1.8182 -0.4686
15663TIP3   OH268403   3.861   4.289  12.075  0.2156 -0.2760  0.1050
15663TIP3    H168404   3.950   4.276  12.108  0.0708 -0.4170  0.4490
15663TIP3    H268405   3.852   4.226  12.004  0.7314  0.4315 -0.6105
15664TIP3   OH268406   4.322   1.412   0.323  0.1505  0.1128  0.0777
15664TIP3    H168407   4.403   1.362   0.314  0.1737  0.1377  0.1475
15664TIP3    H268408   4.254   1.346   0.341  0.3780  0.2017  1.3647
15665TIP3   OH268409   3.836   0.719   4.705  0.3638  0.3008  0.8488
15665TIP3    H168410   3.801   0.630   4.701  1.0037  0.0515  0.5961
15665TIP3    H268411   3.776   0.766   4.762 -1.1501  0.2403 -0.6417
15666TIP3   OH268412   4.645   5.520   5.151 -0.0397 -0.2243  0.2005
15666TIP3    H168413   4.629   5.499   5.242  0.2227 -0.9136  0.0917
15666TIP3    H268414   4.731   5.563   5.151  0.4160 -1.1172  0.1635
15667TIP3   OH268415   0.848   5.381   0.551  0.1007 -0.6792 -0.0845
15667TIP3    H168416   0.805   5.457   0.513  0.9946  0.2947  0.8120
15667TIP3    H268417   0.784   5.346   0.613  0.9393  1.5091  2.1955
15668TIP3   OH268418   1.019   6.317   5.371 -0.5623 -0.3175  0.1490
15668TIP3    H168419   1.093   6.371   5.397  1.0420 -0.8591 -2.9492
15668TIP3    H268420   1.037   6.231   5.409  0.1618 -0.3247 -0.2108
15669TIP3   OH268421   0.153   1.061   6.035 -1.0598 -0.2191  0.1673
15669TIP3    H168422   0.060   1.044   6.020 -1.1874 -1.3534  1.9998
15669TIP3    H268423   0.156   1.148   6.074 -1.2476  0.2328 -0.8097
15670TIP3   OH268424   5.373   3.639  12.212 -0.0222  0.8133  0.1115
15670TIP3    H168425   5.282   3.668  12.205  0.0235  0.7534 -0.8023
15670TIP3    H268426   5.398   3.613  12.123  0.5227 -0.2781  0.5542
15671TIP3   OH268427   3.116   3.920  14.282 -0.0855  0.0747  0.1644
15671TIP3    H168428   3.166   3.850  14.322 -0.7070 -0.8236 -0.5834
15671TIP3    H268429   3.053   3.946  14.350  0.0249 -0.2264  0.3852
15672TIP3   OH268430   5.787   0.529   4.939  0.1553 -0.8055 -0.8691
15672TIP3    H168431   5.708   0.559   4.893  1.0547  0.4785 -1.6482
15672TIP3    H268432   5.801   0.594   5.007  0.8105 -0.7472 -1.0513
15673TIP3   OH268433   6.155   2.131  16.116  0.2296  0.2393  0.2251
15673TIP3    H168434   6.182   2.105  16.027 -0.6060 -0.1082  0.0605
15673TIP3    H268435   6.070   2.173  16.103 -0.2771 -0.5461  0.9490
15674TIP3   OH268436   5.893   0.934  13.148 -0.7003 -0.1276  0.4559
15674TIP3    H168437   5.841   1.013  13.132 -0.3894 -0.1466 -0.7065
15674TIP3    H268438   5.850   0.866  13.097 -0.4847 -0.5233  0.7948
15675TIP3   OH268439   0.313   6.353  15.353 -0.6087 -0.1848  0.2514
15675TIP3    H168440   0.252   6.282  15.334  0.6847 -1.2702  0.0032
15675TIP3    H268441   0.310   6.363  15.448  0.4846 -1.8357  0.5153
15676TIP3   OH268442   3.673   4.255  11.814 -0.0307 -0.0083  0.0997
15676TIP3    H168443   3.641   4.168  11.792 -0.8404  0.6874 -1.6325
15676TIP3    H268444   3.733   4.277  11.743 -1.7149  1.7943 -0.8600
15677TIP3   OH268445   5.189   2.055   4.147 -0.1552 -0.2858 -0.1773
15677TIP3    H168446   5.121   2.114   4.180 -0.8496 -0.4404 -1.2970
15677TIP3    H268447   5.160   2.032   4.059  1.2595 -0.5024 -0.6098
15678TIP3   OH268448   3.465   1.867  13.469 -0.3654  0.7925  0.1050
15678TIP3    H168449   3.547   1.884  13.515  0.8974  0.3923 -1.8684
15678TIP3    H268450   3.461   1.935  13.401  0.1355 -1.1734 -2.0157
15679TIP3   OH268451   3.057   1.242  13.480  0.0658  0.0148 -0.3092
15679TIP3    H168452   3.019   1.330  13.485 -1.2992 -0.5440 -0.5284
15679TIP3    H268453   3.028   1.208  13.396  0.2051 -0.8157 -0.0245
15680TIP3   OH268454   2.459   4.481   5.106  0.2885 -0.0138  0.0897
15680TIP3    H168455   2.500   4.568   5.105  0.7678 -0.2356  0.2043
15680TIP3    H268456   2.532   4.420   5.121  0.0842 -0.5104 -0.8814
15681TIP3   OH268457   3.476   2.350   5.850  0.2445  0.4750 -0.0299
15681TIP3    H168458   3.546   2.414   5.865 -0.1159  0.3193  2.8213
15681TIP3    H268459   3.488   2.285   5.919 -1.7757 -0.4179 -0.4537
15682TIP3   OH268460   3.518   5.549  12.210  0.4226  0.5546 -0.1144
15682TIP3    H168461   3.544   5.580  12.124 -1.0300 -0.4603 -0.9570
15682TIP3    H268462   3.600   5.533  12.256  1.2388  3.0196 -0.5644
15683TIP3   OH268463   0.895   1.386  16.640  0.8987 -0.2870  0.0274
15683TIP3    H168464   0.856   1.298  16.639  1.7938 -0.7024  0.6644
15683TIP3    H268465   0.868   1.424  16.723 -2.4564  1.4677 -1.6593
15684TIP3   OH268466   6.545   5.573  15.932 -0.1435  0.2448 -0.0837
15684TIP3    H168467   6.624   5.613  15.898 -0.5542  0.8942 -0.2811
15684TIP3    H268468   6.551   5.583  16.027 -0.9234  2.1172 -0.1840
15685TIP3   OH268469   2.117   3.813   5.476 -0.5714 -0.1550 -0.1136
15685TIP3    H168470   2.073   3.738   5.435 -0.3741  0.2175 -1.0441
15685TIP3    H268471   2.196   3.776   5.516 -1.7379 -0.8480  1.6737
15686TIP3   OH268472   3.212   2.215   3.199 -0.1118 -0.9445  0.2594
15686TIP3    H168473   3.306   2.231   3.193 -0.3418  1.5851  1.8378
15686TIP3    H268474   3.175   2.261   3.124 -0.2017 -0.3831  0.6403
15687TIP3   OH268475   1.320   4.198  11.045  0.4954 -0.2488 -0.0418
15687TIP3    H168476   1.236   4.162  11.016  0.0714 -1.3055  2.2065
15687TIP3    H268477   1.358   4.237  10.967 -0.4013 -2.9742 -2.0020
15688TIP3   OH268478   1.378   4.773  13.491  0.0334  0.1361 -0.1546
15688TIP3    H168479   1.437   4.725  13.549  0.1473 -0.1822 -0.5238
15688TIP3    H268480   1.435   4.810  13.424 -0.2276 -0.6668 -0.8485
15689TIP3   OH268481   4.074   2.071   0.654 -0.4793  0.3315 -0.3215
15689TIP3    H168482   4.101   2.013   0.583 -0.2516  0.1818 -0.1157
15689TIP3    H268483   4.030   2.145   0.611 -2.8505 -1.0703 -0.4817
15690TIP3   OH268484   6.101   4.792   2.016  0.1986 -0.3703 -0.8375
15690TIP3    H168485   6.188   4.779   1.979  0.0562 -0.1362 -1.2695
15690TIP3    H268486   6.075   4.879   1.986  0.3142  0.0792  0.3118
15691TIP3   OH268487   1.977   0.332   4.069  0.4433 -0.1701 -0.3056
15691TIP3    H168488   2.040   0.376   4.012  1.8739  0.0675  1.3688
15691TIP3    H268489   1.998   0.239   4.062 -0.7498 -0.3662 -1.7037
15692TIP3   OH268490   3.051   1.999   4.909 -0.3855 -0.1584  0.0666
15692TIP3    H168491   3.099   1.916   4.910  0.1390  0.1461  0.8805
15692TIP3    H268492   3.115   2.062   4.875  0.3165  0.5358  2.5026
15693TIP3   OH268493   4.880   3.920  12.510  0.7656 -0.4114  0.5757
15693TIP3    H168494   4.863   4.011  12.537  1.7645 -0.0313 -0.0253
15693TIP3    H268495   4.916   3.927  12.422 -1.0164 -1.5422 -0.3000
15694TIP3   OH268496   0.956   3.048  15.426 -0.5490  0.2054 -0.2620
15694TIP3    H168497   1.052   3.053  15.420 -0.6641  1.9410 -1.1103
15694TIP3    H268498   0.941   2.986  15.497  1.2094  0.1867  0.1567
15695TIP3   OH268499   5.191   4.813   3.709  0.0303  0.3488  0.1387
15695TIP3    H168500   5.168   4.731   3.754  1.4547 -0.5487 -0.6692
15695TIP3    H268501   5.107   4.850   3.683 -0.7792  0.2882  2.4282
15696TIP3   OH268502   3.899   5.160  14.245  0.1773  0.0187  0.3184
15696TIP3    H168503   3.990   5.165  14.273 -0.1203 -0.3407  1.3700
15696TIP3    H268504   3.878   5.249  14.215  1.1674 -0.1400 -0.9418
15697TIP3   OH268505   2.184   0.602  12.907 -0.0544  0.2542 -0.0418
15697TIP3    H168506   2.265   0.637  12.942 -0.0446  1.7577 -1.4722
15697TIP3    H268507   2.115   0.657  12.944 -0.2601  0.2122 -0.3538
15698TIP3   OH268508   2.337   3.478  15.367  0.0354  0.2922 -0.2743
15698TIP3    H168509   2.375   3.564  15.381 -0.9361  0.9251 -1.3627
15698TIP3    H268510   2.386   3.442  15.293 -0.3918  0.4386 -0.6311
15699TIP3   OH268511   6.773   4.015  15.868  0.2550 -0.1472 -0.3089
15699TIP3    H168512   6.857   4.011  15.914 -0.3644  1.1537  0.9893
15699TIP3    H268513   6.732   4.095  15.899 -1.3281 -0.5714 -1.2027
15700TIP3   OH268514   4.827   6.610   3.941  0.5627 -0.6049 -0.0557
15700TIP3    H168515   4.891   6.541   3.959 -0.3042 -1.4784 -0.2366
15700TIP3    H268516   4.838   6.631   3.849  1.3733  0.0759  0.1901
15701TIP3   OH268517   5.599   0.414  14.814  0.0298 -0.4510  0.2959
15701TIP3    H168518   5.538   0.344  14.838 -1.9131  0.8537 -0.5105
15701TIP3    H268519   5.614   0.401  14.720  0.8890 -0.6761  0.4616
15702TIP3   OH268520   3.797   1.025  11.534  0.9095  0.0815 -0.5138
15702TIP3    H168521   3.781   0.997  11.624  3.5649 -0.7392 -0.2069
15702TIP3    H268522   3.795   0.944  11.483  1.2176  0.2929 -0.8671
15703TIP3   OH268523   3.364   1.457  16.549  0.2750 -0.7633  0.0308
15703TIP3    H168524   3.369   1.540  16.501  0.9286 -1.3808 -0.9960
15703TIP3    H268525   3.282   1.463  16.598  0.4203  0.5821  0.1641
15704TIP3   OH268526   1.381   4.700  11.854  0.1796 -0.0396  0.2527
15704TIP3    H168527   1.332   4.763  11.800 -0.9407 -1.3974 -0.3821
15704TIP3    H268528   1.322   4.679  11.926  1.7476  1.9172  2.2488
15705TIP3   OH268529   2.174   2.612  16.641  0.0790 -0.8313  0.0163
15705TIP3    H168530   2.241   2.678  16.661  0.4468 -1.1973  0.0016
15705TIP3    H268531   2.137   2.641  16.557  0.0729 -0.5163  0.1254
15706TIP3   OH268532   4.844   4.474   1.927  0.5997  0.6181  0.4277
15706TIP3    H168533   4.755   4.505   1.910 -0.2441 -0.1070  2.9909
15706TIP3    H268534   4.898   4.522   1.865 -1.6295  0.4370 -1.8516
15707TIP3   OH268535   0.362   4.645  11.823  0.3415 -0.7457  0.5959
15707TIP3    H168536   0.388   4.597  11.745  1.4467 -0.7774  0.9597
15707TIP3    H268537   0.439   4.641  11.880  1.3622  3.1530 -0.1511
15708TIP3   OH268538   5.381   1.882  13.676  0.2600 -0.4111  0.0333
15708TIP3    H168539   5.436   1.936  13.734 -1.4702  1.9780 -0.3939
15708TIP3    H268540   5.291   1.905  13.700 -0.5371 -1.6169 -1.6008
15709TIP3   OH268541   1.509   4.219  15.247 -0.3534  0.0875 -0.2333
15709TIP3    H168542   1.483   4.178  15.330 -0.6956 -0.3513 -0.5502
15709TIP3    H268543   1.467   4.165  15.180  0.0602  0.3400 -0.6999
15710TIP3   OH268544   2.915   6.319  11.566 -0.2632  0.6868 -0.3160
15710TIP3    H168545   2.979   6.266  11.613  2.3718  2.2937 -1.8262
15710TIP3    H268546   2.846   6.258  11.541  2.7591 -2.1934 -2.3078
15711TIP3   OH268547   5.202   6.078  13.125  0.1375  0.0693 -0.5908
15711TIP3    H168548   5.146   6.148  13.158 -1.0589 -0.9697 -0.3297
15711TIP3    H268549   5.247   6.117  13.050  0.5411  1.5094  0.3578
15712TIP3   OH268550   0.265   1.885   4.627  0.2426 -0.0093  0.1664
15712TIP3    H168551   0.169   1.886   4.637  0.2484  0.7710  0.1901
15712TIP3    H268552   0.279   1.885   4.533  0.2250 -2.3368  0.0969
15713TIP3   OH268553   5.057   0.390   0.871 -0.2633 -0.2361  0.0990
15713TIP3    H168554   5.007   0.308   0.872 -0.9429  0.1823  0.0490
15713TIP3    H268555   4.993   0.458   0.852  0.2243  0.3719  0.6080
15714TIP3   OH268556   0.892   4.280   0.108 -0.0237  0.1486 -0.5576
15714TIP3    H168557   0.801   4.293   0.082 -0.7244 -1.0643  1.1155
15714TIP3    H268558   0.933   4.366   0.097 -1.9916  1.3820  1.0055
15715TIP3   OH268559   6.045   2.417   5.300  0.0294 -0.3017 -0.5160
15715TIP3    H168560   6.134   2.438   5.271 -0.1907 -0.7760 -1.5784
15715TIP3    H268561   6.055   2.394   5.392  1.0711 -0.7013 -0.7079
15716TIP3   OH268562   6.309   1.793  13.738 -0.0464 -0.4617  0.3472
15716TIP3    H168563   6.248   1.774  13.809  1.3078 -0.4320  1.5470
15716TIP3    H268564   6.385   1.832  13.781  0.8578 -0.5570 -1.1069
15717TIP3   OH268565   6.430   0.992  16.807  0.1165 -0.1061  0.1930
15717TIP3    H168566   6.370   1.000  16.732  0.5539 -1.0923 -0.2867
15717TIP3    H268567   6.394   1.051  16.873 -0.0636  1.0933 -0.9312
15718TIP3   OH268568   6.595   2.767   2.189 -0.5510  0.0673 -0.1256
15718TIP3    H168569   6.664   2.768   2.123  0.7534  0.5371  1.2011
15718TIP3    H268570   6.608   2.685   2.236 -1.7740 -0.4953 -0.7027
15719TIP3   OH268571   5.840   1.343  15.995  0.3697 -0.1429  0.3157
15719TIP3    H168572   5.787   1.289  16.054  0.3571  1.5844  2.0134
15719TIP3    H268573   5.856   1.423  16.045  1.0026  1.1282 -1.7904
15720TIP3   OH268574   0.469   6.694   1.179  0.5531  0.1214 -1.0398
15720TIP3    H168575   0.393   6.723   1.129  1.8401  1.1470 -2.5219
15720TIP3    H268576   0.445   6.707   1.270 -1.3100 -0.3293 -1.4275
15721TIP3   OH268577   1.080   1.442   0.491  0.3244  0.3844 -0.1101
15721TIP3    H168578   1.002   1.392   0.518 -0.3754  1.2415 -0.4772
15721TIP3    H268579   1.100   1.496   0.567  0.7982 -0.1047  0.1185
15722TIP3   OH268580   1.941   6.713   2.579 -0.3423  0.1197  0.3672
15722TIP3    H168581   1.850   6.726   2.553 -0.6570  0.2242  1.4864
15722TIP3    H268582   1.960   6.622   2.557  0.1416  0.7808 -2.3393
15723TIP3   OH268583   0.866   1.083  15.199  0.1127 -0.0271  0.0438
15723TIP3    H168584   0.856   0.988  15.212  2.3592 -0.6555 -1.9336
15723TIP3    H268585   0.960   1.095  15.185 -0.1236  2.5285  0.2169
15724TIP3   OH268586   6.541   5.521   4.234 -0.2042 -0.2113 -0.0615
15724TIP3    H168587   6.625   5.521   4.188  0.5537  0.0118  1.2737
15724TIP3    H268588   6.545   5.446   4.292 -1.0581 -0.3588 -0.1785
15725TIP3   OH268589   1.612   5.840  10.536  0.4491 -0.3528 -0.5470
15725TIP3    H168590   1.697   5.862  10.497  0.1608 -0.2012 -1.1085
15725TIP3    H268591   1.567   5.924  10.541  0.4880 -0.3666  0.1522
15726TIP3   OH268592   2.949   4.959   0.254  0.1689  0.4522  0.1167
15726TIP3    H168593   3.012   4.974   0.184 -0.5965  3.3871 -0.0573
15726TIP3    H268594   2.970   5.025   0.320 -1.3362  0.0581  1.0451
15727TIP3   OH268595   2.920   1.775   4.591 -0.0765  0.4245 -0.2472
15727TIP3    H168596   2.953   1.734   4.671  1.3706  1.8530 -0.0530
15727TIP3    H268597   2.994   1.772   4.530 -0.1732  1.9941 -0.4826
15728TIP3   OH268598   2.834   0.225  15.678 -0.0523  0.0855  0.3305
15728TIP3    H168599   2.921   0.247  15.645  0.3557  0.0865  1.3941
15728TIP3    H268600   2.789   0.189  15.601  0.9696 -0.1757 -0.1693
15729TIP3   OH268601   4.199   3.269   2.162  0.1721 -0.2132  0.0994
15729TIP3    H168602   4.133   3.207   2.192 -0.7027 -0.3775 -1.9588
15729TIP3    H268603   4.148   3.345   2.132  1.0378  0.3546  0.0399
15730TIP3   OH268604   1.252   6.297   1.712  0.7421  0.4078  0.2114
15730TIP3    H168605   1.244   6.231   1.781 -0.8689  2.4284  2.1114
15730TIP3    H268606   1.181   6.278   1.652 -0.5499  1.0918  1.4555
15731TIP3   OH268607   1.895   0.506   1.152 -0.0639 -0.3160  0.4392
15731TIP3    H168608   1.935   0.419   1.156 -2.2482 -1.4367 -0.5931
15731TIP3    H268609   1.840   0.504   1.074 -0.7817  1.7345  0.8340
15732TIP3   OH268610   4.325   2.050   3.858 -0.1622  0.2933  0.2015
15732TIP3    H168611   4.304   1.983   3.793 -1.3834 -1.1305  1.9529
15732TIP3    H268612   4.239   2.085   3.884  0.3088  0.9448  0.9096
15733TIP3   OH268613   2.952   4.977  14.643 -0.6728 -0.0342  0.0647
15733TIP3    H168614   3.028   4.984  14.586 -0.4111  4.3789  0.6039
15733TIP3    H268615   2.877   4.970  14.582 -0.0794 -2.2115 -0.5043
15734TIP3   OH268616   0.244   3.030   1.825 -0.6942  0.0631 -0.8953
15734TIP3    H168617   0.193   2.990   1.754  0.1554 -0.8029 -1.0383
15734TIP3    H268618   0.308   3.086   1.780 -1.0223  0.5660 -0.7465
15735TIP3   OH268619   1.174   4.187  16.684 -0.0457 -0.3537  0.0914
15735TIP3    H168620   1.225   4.253  16.730  0.1178 -0.2904 -0.1852
15735TIP3    H268621   1.083   4.219  16.689  0.0808  0.0733 -0.3666
15736TIP3   OH268622   1.411   0.338  12.808 -0.0870 -0.4927  0.5559
15736TIP3    H168623   1.428   0.295  12.724  2.5670  0.7003  0.3772
15736TIP3    H268624   1.318   0.359  12.807 -0.4062 -1.7889 -1.4406
15737TIP3   OH268625   4.475   0.739  15.077 -0.2353 -0.6448  0.1725
15737TIP3    H168626   4.539   0.670  15.060 -0.5675 -1.2270  1.1892
15737TIP3    H268627   4.406   0.696  15.127 -0.0577  0.5962  1.5509
15738TIP3   OH268628   4.054   2.410  15.709  0.0281 -0.3070 -0.5599
15738TIP3    H168629   4.146   2.423  15.683  0.1486  1.3469  0.5607
15738TIP3    H268630   4.059   2.375  15.798 -0.4457 -0.7241 -0.6919
15739TIP3   OH268631   0.592   5.349   5.486 -0.2842 -0.2474  0.1012
15739TIP3    H168632   0.616   5.335   5.395  0.0357  0.4044  0.0791
15739TIP3    H268633   0.676   5.348   5.533 -0.4502 -0.6217  0.3929
15740TIP3   OH268634   1.678   1.380  14.313  0.0296 -0.0382  0.3219
15740TIP3    H168635   1.631   1.338  14.241  0.5730 -1.2004  0.5991
15740TIP3    H268636   1.767   1.345  14.306  0.2074  0.1845  1.2782
15741TIP3   OH268637   2.026   2.040   2.889  0.1273  0.4287 -0.1311
15741TIP3    H168638   2.061   2.113   2.839 -1.6227  1.9118  0.7138
15741TIP3    H268639   1.931   2.051   2.886 -0.1252 -0.8654  1.3953
15742TIP3   OH268640   2.491   2.382   3.829  0.0816 -0.0478 -0.4705
15742TIP3    H168641   2.567   2.358   3.882 -0.6033 -1.2808 -0.0189
15742TIP3    H268642   2.417   2.379   3.889 -0.4104  0.6759 -1.0120
15743TIP3   OH268643   3.451   5.502  13.018 -0.8038  0.3925 -0.1647
15743TIP3    H168644   3.493   5.419  12.997 -0.3714  1.2756 -3.4618
15743TIP3    H268645   3.400   5.524  12.940 -1.7088  2.7547  0.9766
15744TIP3   OH268646   3.842   5.885   0.133  0.2643 -0.1997 -0.3603
15744TIP3    H168647   3.933   5.861   0.150  0.6408  0.7625 -0.9099
15744TIP3    H268648   3.797   5.802   0.118  0.5986 -0.8761  1.9136
15745TIP3   OH268649   1.674   2.876  14.429  0.8705  0.3263 -0.4477
15745TIP3    H168650   1.630   2.940  14.485 -0.0084  0.1740 -0.9429
15745TIP3    H268651   1.767   2.896  14.438  0.6932  0.7992  0.4567
15746TIP3   OH268652   6.474   1.513  16.482  0.1104 -0.3037 -0.1120
15746TIP3    H168653   6.554   1.475  16.519  1.2912  1.6504 -0.5207
15746TIP3    H268654   6.445   1.577  16.547  0.0224  0.4010 -0.8252
15747TIP3   OH268655   5.564   2.623   2.153 -0.2321  0.4020  0.5772
15747TIP3    H168656   5.561   2.533   2.119 -0.6486  0.4553  0.4582
15747TIP3    H268657   5.484   2.631   2.205  0.3681  0.3391  1.5331
15748TIP3   OH268658   1.364   0.514  16.655  0.0139  0.5834 -0.2394
15748TIP3    H168659   1.326   0.595  16.690  0.2852  0.6651 -0.1223
15748TIP3    H268660   1.458   0.535  16.646 -0.3304  1.3062 -3.0860
15749TIP3   OH268661   6.289   1.690   0.803  0.3841 -0.4679 -0.5320
15749TIP3    H168662   6.222   1.624   0.785  1.0928 -1.8451  1.4735
15749TIP3    H268663   6.266   1.725   0.889  0.3040  1.5998 -1.3495
15750TIP3   OH268664   5.684   4.201  14.519 -0.1097 -0.1979 -0.3076
15750TIP3    H168665   5.591   4.217  14.538 -0.3919 -0.1836 -1.5706
15750TIP3    H268666   5.692   4.219  14.425  1.1668 -0.2580 -0.2253
15751TIP3   OH268667   0.254   2.136   0.674  0.5035 -0.4992 -0.3149
15751TIP3    H168668   0.161   2.127   0.656  0.2437  1.6522 -0.2635
15751TIP3    H268669   0.259   2.169   0.763  1.2095  1.0928 -0.9128
15752TIP3   OH268670   5.258   1.612   0.171 -0.3671 -0.8757  0.2878
15752TIP3    H168671   5.243   1.674   0.100  0.8882 -1.0095 -0.1200
15752TIP3    H268672   5.170   1.586   0.199 -0.8980  0.2910 -0.2208
15753TIP3   OH268673   2.140   0.434   3.885  0.5326 -0.3899  0.2869
15753TIP3    H168674   2.137   0.530   3.888 -1.4308 -0.3356 -1.1965
15753TIP3    H268675   2.174   0.414   3.797 -0.6302 -1.0124 -0.0367
15754TIP3   OH268676   5.307   1.703   3.344 -0.5364  0.1012  0.1947
15754TIP3    H168677   5.354   1.620   3.346 -1.0249 -0.1596  1.4833
15754TIP3    H268678   5.218   1.679   3.315 -0.5964  0.2156  0.2851
15755TIP3   OH268679   0.421   2.764   0.136 -0.1662 -0.0093  0.5355
15755TIP3    H168680   0.493   2.726   0.187 -0.1590 -1.7060 -0.6310
15755TIP3    H268681   0.359   2.692   0.126 -1.4433  1.0695  0.4557
15756TIP3   OH268682   4.105   3.523   4.160 -0.1948 -0.5301  0.3252
15756TIP3    H168683   4.150   3.572   4.092 -0.8406  0.8630  0.8553
15756TIP3    H268684   4.155   3.442   4.169  1.5162  0.4575  0.1173
15757TIP3   OH268685   0.461   3.221  16.644  0.5354 -0.1168  0.6439
15757TIP3    H168686   0.408   3.173  16.581 -1.0696  1.9086  0.3309
15757TIP3    H268687   0.438   3.184  16.729 -0.8402  0.2171  0.4338
15758TIP3   OH268688   0.499   3.544   4.793 -0.5918 -0.0749 -0.3466
15758TIP3    H168689   0.560   3.475   4.766 -1.1723 -0.2613 -1.1989
15758TIP3    H268690   0.482   3.525   4.886  2.0496  1.0457  0.4912
15759TIP3   OH268691   1.914   6.618   2.254  0.0908 -0.1189  0.2184
15759TIP3    H168692   1.928   6.584   2.166 -0.8387 -0.2725  0.1294
15759TIP3    H268693   2.000   6.653   2.279 -0.0955  1.9022 -1.5857
15760TIP3   OH268694   2.572   2.403  13.537  0.2571 -0.3015 -0.1563
15760TIP3    H168695   2.515   2.328  13.516 -3.5477  1.7857  1.5508
15760TIP3    H268696   2.537   2.436  13.620  2.6531  2.5724 -0.1398
15761TIP3   OH268697   6.601   1.666  11.916 -0.2858  0.5547 -0.3165
15761TIP3    H168698   6.562   1.714  11.988 -1.0789 -2.2397  1.2762
15761TIP3    H268699   6.671   1.615  11.956 -0.9556 -1.3109 -1.3794
15762TIP3   OH268700   1.643   2.280  13.434  0.2680 -0.3538 -0.0743
15762TIP3    H168701   1.572   2.344  13.437 -0.8433 -1.5531 -0.1381
15762TIP3    H268702   1.603   2.197  13.459  1.5317 -1.1648 -0.6092
15763TIP3   OH268703   1.393   4.496   1.430 -0.0976 -0.0642  0.2336
15763TIP3    H168704   1.399   4.556   1.356 -0.7953  1.6815  1.5247
15763TIP3    H268705   1.378   4.552   1.506  0.1510 -1.8179  1.6605
15764TIP3   OH268706   6.647   4.398   1.441 -0.0892  0.1411 -0.4959
15764TIP3    H168707   6.587   4.327   1.419  0.2766 -0.5445  0.6270
15764TIP3    H268708   6.711   4.358   1.501 -1.0900  1.8710  1.8631
15765TIP3   OH268709   5.786   6.681   6.552  0.3401 -0.1969  0.2951
15765TIP3    H168710   5.823   6.603   6.593 -0.3234 -0.8502 -0.3187
15765TIP3    H268711   5.704   6.651   6.513  0.1528  0.7748 -0.0886
15766TIP3   OH268712   4.991   5.820   3.874  0.0016  0.1290 -0.3451
15766TIP3    H168713   5.009   5.744   3.931  0.0209 -0.2935 -0.9063
15766TIP3    H268714   4.940   5.783   3.802 -0.6253  0.7912 -0.2426
15767TIP3   OH268715   4.973   3.397   0.197  0.1230  0.0971 -0.0389
15767TIP3    H168716   4.923   3.372   0.119 -0.4096  2.6824 -0.6316
15767TIP3    H268717   5.041   3.456   0.164  0.7102  0.2075  1.3033
15768TIP3   OH268718   5.694   2.313  15.549 -0.0320  0.4273  0.6187
15768TIP3    H168719   5.786   2.329  15.526  0.0189 -2.0492 -1.1969
15768TIP3    H268720   5.698   2.274  15.637  0.6347  0.3553  0.5606
15769TIP3   OH268721   6.105   5.029   5.731 -0.6495  0.1310 -0.0268
15769TIP3    H168722   6.165   4.956   5.719 -0.6883  0.2283 -0.8528
15769TIP3    H268723   6.018   4.991   5.713 -0.5408  0.7076 -2.0308
15770TIP3   OH268724   2.735   2.162  13.244 -0.3108  0.0045  0.2066
15770TIP3    H168725   2.673   2.107  13.195  0.3260  0.8582 -1.6598
15770TIP3    H268726   2.764   2.227  13.180  2.9087 -0.6593  0.8268
15771TIP3   OH268727   5.188   4.302   5.143 -0.8725  0.0068 -0.0666
15771TIP3    H168728   5.275   4.289   5.180 -0.2522 -0.4865 -1.6223
15771TIP3    H268729   5.145   4.217   5.154  0.4120 -1.1913 -3.1330
15772TIP3   OH268730   5.073   1.607   3.746  0.2178  0.3598  0.2956
15772TIP3    H168731   5.085   1.515   3.768 -0.5834  0.2080  0.1354
15772TIP3    H268732   5.018   1.607   3.668 -0.5177  0.9791  0.7926
15773TIP3   OH268733   1.030   0.124  11.900 -0.5287 -0.6247 -0.2316
15773TIP3    H168734   1.102   0.068  11.931  0.8597  0.5365 -1.1905
15773TIP3    H268735   1.035   0.117  11.805 -0.2405  1.1694 -0.3827
15774TIP3   OH268736   5.796   1.657  12.289  0.3173  0.1019 -0.3291
15774TIP3    H168737   5.855   1.654  12.364  1.7707  2.9706 -1.1862
15774TIP3    H268738   5.835   1.597  12.225  1.4036  0.6800 -0.2415
15775TIP3   OH268739   4.410   0.053   2.086 -0.9032  0.9942  0.1100
15775TIP3    H168740   4.413   0.003   2.168 -1.8827  2.0276  0.8037
15775TIP3    H268741   4.337   0.015   2.037 -0.7903  0.8616  0.0447
15776TIP3   OH268742   5.346   2.335   2.153 -0.0196  0.3040  0.1447
15776TIP3    H168743   5.289   2.364   2.224  0.2489  0.2201  0.3971
15776TIP3    H268744   5.296   2.352   2.073  0.2730  1.8376  0.2535
15777TIP3   OH268745   1.919   2.827   4.846 -0.5089  0.4286 -0.5668
15777TIP3    H168746   1.862   2.885   4.795 -1.1626 -1.2259 -1.8217
15777TIP3    H268747   1.970   2.780   4.780 -1.0646 -1.4678  0.2887
15778TIP3   OH268748   3.774   1.155   0.355 -0.4568 -0.0157 -0.3304
15778TIP3    H168749   3.862   1.125   0.332 -0.6049 -0.8816  0.1742
15778TIP3    H268750   3.765   1.134   0.448 -1.2207  0.0000 -0.3927
15779TIP3   OH268751   5.858   3.144   3.528 -0.0441  0.7237 -0.1932
15779TIP3    H168752   5.866   3.160   3.434 -2.6024  0.3300 -0.5529
15779TIP3    H268753   5.781   3.194   3.555 -0.1405 -0.2126  1.4269
15780TIP3   OH268754   5.027   2.343  16.130 -0.0859  0.0508 -0.4844
15780TIP3    H168755   5.050   2.252  16.114  1.4819  0.4451 -0.6157
15780TIP3    H268756   4.954   2.361  16.070 -0.1536 -0.9971 -0.7262
15781TIP3   OH268757   4.634   1.188   1.804  0.0036 -0.7958 -0.1223
15781TIP3    H168758   4.647   1.100   1.841 -0.5381 -2.1282 -2.8818
15781TIP3    H268759   4.709   1.201   1.746  0.9476  1.3331  1.4269
15782TIP3   OH268760   2.984   1.010   5.779  0.0689  0.2260 -0.1682
15782TIP3    H168761   2.911   0.949   5.765  0.9023 -0.5279 -1.4742
15782TIP3    H268762   3.045   0.990   5.709  1.5749  0.8039  0.9278
15783TIP3   OH268763   2.313   5.664   0.315 -0.2694 -0.3136 -0.3467
15783TIP3    H168764   2.340   5.623   0.233 -0.1400 -1.4966  0.2531
15783TIP3    H268765   2.391   5.659   0.371 -0.1372  1.1194 -0.3662
15784TIP3   OH268766   3.698   4.567   0.462  0.2431  0.8308 -0.4895
15784TIP3    H168767   3.613   4.562   0.420 -0.0397  0.7853  0.0774
15784TIP3    H268768   3.761   4.573   0.390 -0.1298 -0.5177 -0.9422
15785TIP3   OH268769   1.232   6.315  16.503  0.0657 -0.3650 -0.4793
15785TIP3    H168770   1.141   6.303  16.476  0.2210 -0.0793 -1.1411
15785TIP3    H268771   1.226   6.371  16.581 -0.3427 -0.6537 -0.3003
15786TIP3   OH268772   6.199   0.500  12.392  0.4970  0.2035 -0.3159
15786TIP3    H168773   6.235   0.500  12.480 -0.0512  1.1464 -0.0809
15786TIP3    H268774   6.105   0.508  12.404  0.3930  0.0685 -0.9836
15787TIP3   OH268775   3.047   6.114   3.378 -0.2684  0.4922  0.1862
15787TIP3    H168776   2.984   6.182   3.404  1.6327  2.3169  0.2660
15787TIP3    H268777   3.081   6.143   3.294  0.5684 -0.3916  0.2052
15788TIP3   OH268778   1.691   3.063   4.757 -0.3969 -0.0889  0.4281
15788TIP3    H168779   1.654   3.151   4.772  1.6977  0.9918 -0.3049
15788TIP3    H268780   1.622   3.016   4.710 -1.5720  1.1469  0.8405
15789TIP3   OH268781   3.903   6.601  11.935 -0.1653 -0.0371  0.4400
15789TIP3    H168782   3.943   6.686  11.955  0.0642 -0.1202  0.3491
15789TIP3    H268783   3.913   6.551  12.015  0.9140 -0.4295  0.0843
15790TIP3   OH268784   6.055   4.768  14.499 -0.3094  0.6749 -0.1088
15790TIP3    H168785   5.995   4.733  14.433  1.4552  1.0782 -2.0295
15790TIP3    H268786   6.038   4.716  14.578 -1.7642 -0.5459 -1.1793
15791TIP3   OH268787   4.649   0.351   0.953 -0.0037  0.2931  0.6846
15791TIP3    H168788   4.595   0.430   0.955  0.5943  0.7047  1.1826
15791TIP3    H268789   4.590   0.280   0.979 -0.8633  0.3554 -0.9864
15792TIP3   OH268790   5.210   3.487  11.917 -0.3674  0.0661  0.5617
15792TIP3    H168791   5.235   3.559  11.975 -0.5933 -1.1844  2.2906
15792TIP3    H268792   5.119   3.506  11.894 -0.1021  0.8661  0.1406
15793TIP3   OH268793   5.490   6.266  11.789 -0.4061  0.2962 -0.1990
15793TIP3    H168794   5.515   6.354  11.762  0.8087  0.4043  1.1432
15793TIP3    H268795   5.463   6.276  11.880  0.5561 -0.8169  0.2400
15794TIP3   OH268796   0.574   3.208  11.907 -0.4205  0.6526 -0.6582
15794TIP3    H168797   0.616   3.225  11.823  0.1126  1.2456 -0.2868
15794TIP3    H268798   0.595   3.286  11.960  0.7916 -0.4687  0.6036
15795TIP3   OH268799   3.543   2.837   2.790  0.5217  0.3139  0.1730
15795TIP3    H168800   3.459   2.839   2.837  0.0301 -1.5658 -0.5227
15795TIP3    H268801   3.577   2.926   2.797 -2.5524  1.7541 -1.3522
15796TIP3   OH268802   1.209   1.839   4.367  0.1547  0.2013  0.3311
15796TIP3    H168803   1.251   1.766   4.322 -0.8284 -0.8164  1.0011
15796TIP3    H268804   1.281   1.898   4.390  0.6476  1.0885 -3.0230
15797TIP3   OH268805   3.638   1.344   5.442 -0.1646  0.0598  0.2124
15797TIP3    H168806   3.605   1.415   5.387 -0.5266 -0.6901 -0.5748
15797TIP3    H268807   3.718   1.315   5.398  0.3574  0.4182  0.9044
15798TIP3   OH268808   3.215   2.090  14.627  0.0939 -0.0938  0.3017
15798TIP3    H168809   3.171   2.096  14.542  1.2131 -1.8821 -0.4543
15798TIP3    H268810   3.302   2.127  14.612  0.7793 -1.6474  0.2641
15799TIP3   OH268811   6.061   3.941   6.075 -0.2269 -0.1655 -0.0631
15799TIP3    H168812   6.041   3.861   6.123  0.8634 -0.0451  0.6172
15799TIP3    H268813   6.031   3.923   5.985 -0.8851 -0.9567  0.3017
15800TIP3   OH268814   5.200   4.587  16.825 -0.6678 -0.6875  0.0603
15800TIP3    H168815   5.155   4.567  16.908  0.2434  3.1029  1.6795
15800TIP3    H268816   5.293   4.576  16.845 -0.3799  1.2522 -0.0868
15801TIP3   OH268817   4.614   2.628  14.163  0.1351  0.4117 -0.0805
15801TIP3    H168818   4.688   2.676  14.198 -1.1211  0.1560  3.3828
15801TIP3    H268819   4.633   2.536  14.184 -0.2446  0.1056 -1.0258
15802TIP3   OH268820   0.769   2.013   5.662 -0.5438 -0.0876  0.1647
15802TIP3    H168821   0.738   2.037   5.749 -1.9194  0.9391 -0.5572
15802TIP3    H268822   0.766   1.917   5.661 -0.6877 -0.1009  1.1828
15803TIP3   OH268823   4.417   0.296   4.655 -0.4661 -0.0715  0.1643
15803TIP3    H168824   4.465   0.233   4.601 -0.7758  1.5868 -2.1755
15803TIP3    H268825   4.326   0.266   4.653 -0.2171 -0.9725  1.2709
15804TIP3   OH268826   3.635   6.651   1.146 -0.1086  0.2706 -0.4458
15804TIP3    H168827   3.584   6.647   1.066 -1.3776 -0.2562  0.3659
15804TIP3    H268828   3.643   6.560   1.175  0.9386  0.3807 -0.3222
15805TIP3   OH268829   3.265   5.848  15.215 -0.2783 -0.0554 -0.3163
15805TIP3    H168830   3.178   5.860  15.253 -0.3536 -1.8753  0.1798
15805TIP3    H268831   3.322   5.907  15.265 -1.1886  1.1464 -0.6414
15806TIP3   OH268832   6.249   3.044  12.936  0.4378  0.8712 -0.0461
15806TIP3    H168833   6.248   3.062  12.842  1.2156 -0.8516 -0.4199
15806TIP3    H268834   6.342   3.037  12.959  0.2426 -0.3545  0.4769
15807TIP3   OH268835   4.121   3.677   3.726  0.1793 -0.3623 -0.5106
15807TIP3    H168836   4.084   3.763   3.706 -0.3047 -0.6500 -0.8786
15807TIP3    H268837   4.208   3.695   3.762  0.0030  0.2859 -0.4117
15808TIP3   OH268838   6.493   3.657  16.331 -0.5616  0.5574 -0.4591
15808TIP3    H168839   6.445   3.660  16.414  1.1063  0.9522  0.5464
15808TIP3    H268840   6.578   3.696  16.351  0.5214 -0.8977 -1.9273
15809TIP3   OH268841   1.639   5.006  17.325  0.0714  0.3522 -0.5103
15809TIP3    H168842   1.725   5.022  17.284  1.1634  1.1582  1.9113
15809TIP3    H268843   1.601   5.094  17.336 -0.4495  0.1082 -0.3355
15810TIP3   OH268844   4.894   4.476   3.067  0.0249  0.2796  0.2945
15810TIP3    H168845   4.821   4.440   3.016  0.9241  1.1440 -1.6726
15810TIP3    H268846   4.920   4.555   3.020  1.4947  0.6221  1.6080
15811TIP3   OH268847   4.399   6.597  13.415 -0.4475  0.1548 -0.2010
15811TIP3    H168848   4.441   6.521  13.374  0.8980  0.0293  1.2974
15811TIP3    H268849   4.385   6.571  13.506  0.5283  1.8621  0.4892
15812TIP3   OH268850   1.247   3.498   5.078  0.2281  0.4242 -0.5861
15812TIP3    H168851   1.333   3.523   5.112  0.0346  0.1114  0.1306
15812TIP3    H268852   1.260   3.495   4.983  1.4875 -1.3821 -0.4075
15813TIP3   OH268853   1.194   0.360  16.966 -0.4933 -0.1428 -0.0913
15813TIP3    H168854   1.280   0.357  16.924 -1.6049 -2.2412 -2.4635
15813TIP3    H268855   1.160   0.447  16.946  0.2495 -0.0304 -0.9359
15814TIP3   OH268856   2.159   4.372  17.258  0.6006  0.1167 -0.0893
15814TIP3    H168857   2.090   4.413  17.205  1.1727  0.3521 -0.6610
15814TIP3    H268858   2.151   4.414  17.343 -0.9679 -0.9495  0.3388
15815TIP3   OH268859   3.806   6.632   2.576 -0.1947  0.4329  0.5240
15815TIP3    H168860   3.816   6.597   2.488  1.0412 -1.5086  1.3700
15815TIP3    H268861   3.806   6.727   2.565 -4.1365  0.3554 -1.9687
15816TIP3   OH268862   3.698   6.537   4.943  0.2838  0.0747 -0.6363
15816TIP3    H168863   3.610   6.575   4.951 -0.4906 -1.7616 -0.0825
15816TIP3    H268864   3.725   6.520   5.033  0.9543  0.0510 -0.8387
15817TIP3   OH268865   6.589   6.043   4.473  0.6484 -0.4586 -0.8374
15817TIP3    H168866   6.546   6.047   4.388  0.1829 -1.3034 -0.6528
15817TIP3    H268867   6.560   5.960   4.511  0.4381  0.1436  0.3604
15818TIP3   OH268868   5.683   3.068   4.203 -0.3640 -0.1554 -0.4808
15818TIP3    H168869   5.685   3.118   4.285  0.8573  2.4393 -1.9605
15818TIP3    H268870   5.772   3.034   4.194 -1.5761 -4.4593  1.3890
15819TIP3   OH268871   5.840   1.923   6.551 -0.4221 -0.2311 -0.2226
15819TIP3    H168872   5.833   1.835   6.514  2.6040 -1.4101  1.6225
15819TIP3    H268873   5.929   1.951   6.529 -1.1456  2.1941 -0.3037
15820TIP3   OH268874   4.812   4.559   3.305 -0.4274 -0.0613 -1.1389
15820TIP3    H168875   4.721   4.562   3.276 -1.0868 -1.9418  0.4530
15820TIP3    H268876   4.857   4.510   3.236 -0.8662 -0.0874 -1.4134
15821TIP3   OH268877   3.839   3.571  13.570  0.3396 -0.5016 -0.2410
15821TIP3    H168878   3.855   3.600  13.480 -0.4363 -0.1741 -0.2794
15821TIP3    H268879   3.878   3.640  13.624  2.2840 -1.4896 -0.2845
15822TIP3   OH268880   0.798   6.087  15.431  0.0962 -0.3327 -0.2322
15822TIP3    H168881   0.847   6.162  15.463 -0.0373 -0.1984 -0.3358
15822TIP3    H268882   0.840   6.011  15.470 -2.1799 -0.0324  3.1724
15823TIP3   OH268883   5.213   5.031  13.453 -0.1736  0.2019  0.2321
15823TIP3    H168884   5.262   5.026  13.535  0.4610 -2.0395 -0.2022
15823TIP3    H268885   5.122   5.017  13.478  0.2540 -3.1525  0.4408
15824TIP3   OH268886   3.578   3.184  11.372 -0.0160  0.0448  0.0254
15824TIP3    H168887   3.575   3.091  11.393 -0.7774  0.0584 -0.0211
15824TIP3    H268888   3.607   3.186  11.280 -0.3638 -0.1599 -0.0894
15825TIP3   OH268889   0.144   2.186   4.457  1.1053  0.3775 -0.3306
15825TIP3    H168890   0.062   2.143   4.480  1.3522  0.1815  0.1808
15825TIP3    H268891   0.137   2.203   4.363  0.9985 -0.7446 -0.5290
15826TIP3   OH268892   6.546   4.702  13.890 -0.8165  0.0846 -0.3113
15826TIP3    H168893   6.514   4.774  13.835 -1.6534 -1.0823 -1.4076
15826TIP3    H268894   6.634   4.684  13.857 -0.8089  0.2522 -0.3851
15827TIP3   OH268895   0.104   5.708  16.801  0.3294  0.2993 -0.6051
15827TIP3    H168896   0.136   5.686  16.889  0.0270  0.5615 -0.4258
15827TIP3    H268897   0.061   5.793  16.812  0.6252  0.5200 -1.0876
15828TIP3   OH268898   3.089   2.899  14.896 -1.0992  0.2133  0.5584
15828TIP3    H168899   3.047   2.861  14.819 -0.2595 -1.7577  1.0107
15828TIP3    H268900   3.030   2.878  14.969 -0.3737 -0.7897  0.8908
15829TIP3   OH268901   3.773   5.577  13.013 -0.0592 -0.3461 -0.2050
15829TIP3    H168902   3.778   5.648  12.949 -1.1955 -0.7674 -0.7933
15829TIP3    H268903   3.827   5.606  13.087  1.1103  0.2364 -1.2599
15830TIP3   OH268904   5.701   1.665  17.186 -0.0941  0.7220  0.5041
15830TIP3    H168905   5.687   1.572  17.205 -0.7875  0.6610 -0.2670
15830TIP3    H268906   5.736   1.666  17.097 -1.8582  1.2783 -0.2368
15831TIP3   OH268907   3.840   4.759  13.364  0.1607  0.3043  0.1514
15831TIP3    H168908   3.823   4.822  13.434  1.8999  0.5062  0.4433
15831TIP3    H268909   3.908   4.702  13.399 -0.1721 -0.6874 -0.7530
15832TIP3   OH268910   5.277   2.975  16.744  0.2729  0.0035 -0.0361
15832TIP3    H168911   5.344   3.038  16.718 -0.3135  0.6568  0.0117
15832TIP3    H268912   5.262   2.992  16.837 -1.8621  1.7164 -0.6145
15833TIP3   OH268913   0.965   1.216  11.063  0.3669 -0.2543 -0.2458
15833TIP3    H168914   1.018   1.136  11.059  2.0464  0.7178  1.2448
15833TIP3    H268915   1.023   1.285  11.031 -0.7149  0.5450 -0.5301
15834TIP3   OH268916   4.877   0.928   3.852 -0.0416  0.5080 -0.8121
15834TIP3    H168917   4.817   0.855   3.843 -0.3444  0.5309  0.7195
15834TIP3    H268918   4.953   0.890   3.897 -0.9945  1.4624  1.7881
15835TIP3   OH268919   2.406   1.590  15.638  0.1933  0.3763 -0.0413
15835TIP3    H168920   2.457   1.560  15.713  1.6261 -2.2777 -1.9166
15835TIP3    H268921   2.329   1.533  15.635 -0.6904  1.5162  0.2792
15836TIP3   OH268922   0.638   3.862  14.121 -0.2226 -0.7027 -0.4142
15836TIP3    H168923   0.563   3.907  14.083 -1.7705 -0.9908  2.1022
15836TIP3    H268924   0.707   3.928  14.122 -0.7420 -0.1035 -1.8023
15837TIP3   OH268925   3.073   2.754   5.018  0.0139  0.4719 -0.1231
15837TIP3    H168926   3.082   2.797   4.933  1.4827  2.6491  1.0030
15837TIP3    H268927   2.979   2.738   5.028 -0.0723 -0.9046 -2.5783
15838TIP3   OH268928   6.624   5.847   4.163 -0.4331 -0.2317 -0.4775
15838TIP3    H168929   6.563   5.781   4.195  0.1473  0.9462  3.6640
15838TIP3    H268930   6.586   5.931   4.190  1.6128  0.6992 -0.2631
15839TIP3   OH268931   4.326   3.942  13.030  0.2623 -0.7266 -0.1276
15839TIP3    H168932   4.302   3.856  13.065  1.0247 -0.8232  0.1767
15839TIP3    H268933   4.323   3.931  12.935 -3.2020 -0.0777 -0.2006
15840TIP3   OH268934   4.152   4.577   5.226 -0.1238  0.4047 -0.3531
15840TIP3    H168935   4.211   4.648   5.251 -0.5639  0.4148  0.6938
15840TIP3    H268936   4.117   4.544   5.308  0.1089 -1.0752 -0.8158
15841TIP3   OH268937   6.048   3.817  16.987  0.4698 -0.5694 -0.3223
15841TIP3    H168938   6.085   3.889  16.935 -2.5132  2.0294  0.7970
15841TIP3    H268939   5.995   3.768  16.925  0.0862  0.1049 -0.5426
15842TIP3   OH268940   2.444   1.653   5.908 -0.0833  0.6622  0.9359
15842TIP3    H168941   2.506   1.723   5.924  0.4852  0.3619  0.1678
15842TIP3    H268942   2.481   1.577   5.953  0.3007  0.4041  0.2202
15843TIP3   OH268943   5.027   2.321  14.810  0.2469  0.6313  0.1200
15843TIP3    H168944   5.021   2.393  14.747 -1.2263  0.8904  0.5160
15843TIP3    H268945   5.114   2.284  14.796  0.8116  2.1164 -0.4970
15844TIP3   OH268946   6.030   5.931  11.984  0.1404  0.5972  0.1913
15844TIP3    H168947   6.044   6.026  11.984 -0.3249  0.6720  1.0298
15844TIP3    H268948   5.953   5.918  11.930  0.4126  0.6594 -0.2165
15845TIP3   OH268949   1.363   5.407   5.058  0.8059  0.0310 -0.2921
15845TIP3    H168950   1.289   5.358   5.022  0.3596  0.7882 -0.4163
15845TIP3    H268951   1.331   5.441   5.141  1.6233 -1.1758  0.5484
15846TIP3   OH268952   1.782   3.756  13.877  0.4262  0.5129 -0.2608
15846TIP3    H168953   1.853   3.744  13.814  0.0741  1.4738 -0.8564
15846TIP3    H268954   1.826   3.781  13.958  0.8292  0.0988 -0.3507
15847TIP3   OH268955   4.053   2.408  14.291  0.4800  0.6044  0.3111
15847TIP3    H168956   4.018   2.469  14.226  1.7731  1.1347  0.0940
15847TIP3    H268957   4.132   2.451  14.324  0.9905 -0.6150  0.7111
15848TIP3   OH268958   1.932   3.434  12.677 -0.0066 -0.2713 -0.1562
15848TIP3    H168959   1.884   3.384  12.743  0.1517  0.1599  0.2950
15848TIP3    H268960   1.874   3.437  12.602 -0.6446  0.1507  0.3480
15849TIP3   OH268961   1.951   6.333  15.855 -0.2436  0.9128 -0.3408
15849TIP3    H168962   1.959   6.242  15.826 -2.0628  1.1475 -1.7638
15849TIP3    H268963   1.935   6.326  15.949  0.7334 -0.1598 -0.2247
15850TIP3   OH268964   3.892   2.064  13.809  0.0986  0.1578 -0.3553
15850TIP3    H168965   3.927   1.977  13.786 -0.7699 -0.0025 -1.0936
15850TIP3    H268966   3.798   2.051  13.814  0.0985  0.5527  1.7660
15851TIP3   OH268967   0.036   4.955   5.254 -0.1242 -0.1523 -0.2414
15851TIP3    H168968   0.007   4.910   5.175 -0.8834  0.5832 -0.3901
15851TIP3    H268969   0.025   4.890   5.324  0.4030 -0.7552 -0.6961
15852TIP3   OH268970   1.597   3.252  13.394 -0.3216  0.6068  0.1850
15852TIP3    H168971   1.591   3.347  13.397 -0.2456  0.5956  0.8080
15852TIP3    H268972   1.662   3.230  13.461  0.0799  0.1546 -0.3452
15853TIP3   OH268973   1.193   6.220   0.815 -0.5701 -0.0743  0.9325
15853TIP3    H168974   1.149   6.298   0.850 -1.0089 -0.0698  0.3852
15853TIP3    H268975   1.245   6.188   0.888  1.2145  1.8686  0.6141
15854TIP3   OH268976   3.904   5.162   4.782 -0.7708 -0.5101  0.2037
15854TIP3    H168977   3.958   5.213   4.843 -0.0062 -0.0549 -0.8200
15854TIP3    H268978   3.820   5.152   4.827 -1.1154  2.0689  0.2718
15855TIP3   OH268979   5.592   2.540   3.888  0.9236  0.8070 -0.1824
15855TIP3    H168980   5.568   2.541   3.795  1.3242  0.3058 -0.2987
15855TIP3    H268981   5.628   2.627   3.905 -0.0036  1.2200 -0.2566
15856TIP3   OH268982   4.303   6.703   4.808 -0.3488 -0.3242 -0.5845
15856TIP3    H168983   4.378   6.738   4.857 -0.1063 -1.1141 -0.3867
15856TIP3    H268984   4.243   6.670   4.876 -1.3584  1.2057 -0.6791
15857TIP3   OH268985   5.826   4.571  12.226  0.2512 -0.0983  0.1995
15857TIP3    H168986   5.895   4.579  12.291 -0.3453 -0.3876  0.8854
15857TIP3    H268987   5.840   4.485  12.185 -0.0349 -0.4006  0.7320
15858TIP3   OH268988   2.219   1.123  13.604 -0.3771  0.0404  0.1271
15858TIP3    H168989   2.315   1.115  13.604 -0.4392 -0.8280  0.5498
15858TIP3    H268990   2.189   1.045  13.651 -1.2840  0.4539  0.2414
15859TIP3   OH268991   6.480   1.704  13.990 -0.0376 -0.0690 -0.3817
15859TIP3    H168992   6.439   1.617  13.999 -0.2952  0.1202  0.3516
15859TIP3    H268993   6.572   1.685  13.971 -0.1901 -0.5040 -0.7111
15860TIP3   OH268994   5.954   2.756   1.885  0.4642 -0.0605  0.7986
15860TIP3    H168995   5.899   2.697   1.834  1.0922  0.8530 -1.0363
15860TIP3    H268996   5.892   2.813   1.931 -0.1261 -0.4889  0.5513
15861TIP3   OH268997   3.293   0.705   5.366 -1.0604 -0.0106 -0.2330
15861TIP3    H168998   3.212   0.704   5.315 -0.8023 -2.5170 -0.7085
15861TIP3    H268999   3.271   0.661   5.448 -0.0613 -1.4147 -0.6727
15862TIP3   OH269000   4.519   6.399   5.125 -0.0833  0.6393  0.1629
15862TIP3    H169001   4.488   6.415   5.036 -2.2146 -0.1892  0.6961
15862TIP3    H269002   4.516   6.485   5.168  0.6868  0.9878 -0.4521
15863TIP3   OH269003   4.933   3.116  13.760  0.3079  0.7614  0.2092
15863TIP3    H169004   5.019   3.152  13.783  1.6275 -1.7789 -0.2975
15863TIP3    H269005   4.936   3.106  13.665 -0.3558  0.2395  0.2331
15864TIP3   OH269006   4.595   3.242   5.491 -0.4418 -0.5363 -0.1662
15864TIP3    H169007   4.627   3.151   5.488  1.0404 -0.0656  0.4717
15864TIP3    H269008   4.631   3.282   5.412  0.0321 -0.1566  0.2408
15865TIP3   OH269009   2.674   4.925  13.560 -0.3763  0.0320  0.0979
15865TIP3    H169010   2.758   4.970  13.550 -0.6387  1.9535  4.3861
15865TIP3    H269011   2.692   4.852  13.619 -1.6399  0.4450  1.0489
15866TIP3   OH269012   0.103   1.102  16.934 -0.2338  0.2322 -0.0024
15866TIP3    H169013   0.153   1.173  16.974 -0.4255  1.7270 -2.2290
15866TIP3    H269014   0.155   1.023  16.949  1.5613  1.3417 -0.1211
15867TIP3   OH269015   2.086   1.889  12.841  0.1900  1.0009  0.1923
15867TIP3    H169016   2.167   1.838  12.841  0.5370  1.5057  1.6817
15867TIP3    H269017   2.018   1.826  12.865  0.7625  1.3572  3.0711
15868TIP3   OH269018   1.707   3.134  16.643 -0.0195  0.0488  0.4541
15868TIP3    H169019   1.748   3.095  16.720 -1.1085 -0.2079  0.9114
15868TIP3    H269020   1.664   3.213  16.676  0.0316  0.2734 -0.0072
15869TIP3   OH269021   5.538   5.304  12.141  0.2731  0.0463  0.1859
15869TIP3    H169022   5.631   5.290  12.122  0.1904  0.0525 -0.2284
15869TIP3    H269023   5.494   5.287  12.058  0.0188  1.2580  0.0609
15870TIP3   OH269024   6.413   1.957   3.434 -0.6734 -0.0020  0.3879
15870TIP3    H169025   6.347   1.933   3.499 -0.4464 -0.6735  0.3768
15870TIP3    H269026   6.410   1.887   3.369 -0.6728  0.4969 -0.1659
15871TIP3   OH269027   3.171   6.525  13.996 -0.3802  0.1829 -0.5375
15871TIP3    H169028   3.250   6.477  13.973 -0.1085  0.6831 -0.6604
15871TIP3    H269029   3.099   6.464  13.978  0.0175 -0.5884  0.4078
15872TIP3   OH269030   2.939   1.688   3.387  0.0198  0.2341  0.1568
15872TIP3    H169031   2.950   1.700   3.293 -0.7335 -0.3874 -0.0211
15872TIP3    H269032   2.911   1.774   3.419  0.0086  0.3761 -0.2254
15873TIP3   OH269033   5.482   0.312  15.928 -0.6147 -0.5805  0.1691
15873TIP3    H169034   5.435   0.237  15.965  3.1130 -1.4634  3.9089
15873TIP3    H269035   5.539   0.274  15.861 -1.1467 -0.5217 -0.3132
15874TIP3   OH269036   3.507   0.725   5.831 -0.2408 -0.2207  0.2728
15874TIP3    H169037   3.585   0.710   5.884 -1.5205 -0.1781  2.2772
15874TIP3    H269038   3.480   0.638   5.802  1.5660 -0.0982 -2.1277
15875TIP3   OH269039   4.983   3.062  15.316 -0.1410  0.8178 -0.0424
15875TIP3    H169040   4.890   3.079  15.330 -0.2626  0.1473 -0.0201
15875TIP3    H269041   5.008   3.124  15.247 -1.4095 -1.2053 -2.4584
15876TIP3   OH269042   5.658   1.213   3.052  0.1058 -0.1422 -0.0538
15876TIP3    H169043   5.740   1.208   3.004  0.7915 -1.2147  1.1607
15876TIP3    H269044   5.641   1.306   3.061  0.2691  0.0853 -1.8044
15877TIP3   OH269045   2.655   0.780   4.606 -0.1638  0.2406  0.2023
15877TIP3    H169046   2.702   0.703   4.573 -0.3765 -0.2117  0.9343
15877TIP3    H269047   2.645   0.764   4.700  0.4988  1.5368  0.5321
15878TIP3   OH269048   5.012   5.208  14.121  0.8603 -0.5173 -0.4049
15878TIP3    H169049   5.065   5.164  14.188  0.7140  0.8084  0.6052
15878TIP3    H269050   5.057   5.290  14.104 -0.1896  0.0627 -0.4738
15879TIP3   OH269051   5.598   2.952  14.201  0.0295  0.5176 -0.0712
15879TIP3    H169052   5.560   2.866  14.220  0.5809 -0.2075 -1.9968
15879TIP3    H269053   5.540   3.014  14.246 -0.7834 -0.8107  0.7805
15880TIP3   OH269054   3.903   2.682  12.854 -0.3663  0.8953 -0.0412
15880TIP3    H169055   3.943   2.704  12.938 -1.0309  0.4054  0.4178
15880TIP3    H269056   3.913   2.587  12.848 -1.9426  0.6797  0.3607
15881TIP3   OH269057   4.831   2.123   0.006 -0.2693 -0.2079  0.1752
15881TIP3    H169058   4.808   2.175  -0.072  1.0987  1.1753  0.6539
15881TIP3    H269059   4.768   2.151   0.072 -1.2856 -1.2158 -0.3228
15882TIP3   OH269060   0.689   4.957  15.324  0.0217 -0.4483 -0.3527
15882TIP3    H169061   0.661   4.943  15.234 -1.2336 -1.0462  0.1014
15882TIP3    H269062   0.752   4.887  15.340 -0.4968 -0.9606 -0.4799
15883TIP3   OH269063   2.298   4.786   0.838  0.0590  0.1059 -0.4445
15883TIP3    H169064   2.377   4.734   0.853  0.4923  0.7600 -0.4366
15883TIP3    H269065   2.244   4.731   0.781 -1.0129 -1.8586  2.2532
15884TIP3   OH269066   1.298   0.736  16.834  0.3706  0.0767  0.3291
15884TIP3    H169067   1.305   0.785  16.916 -0.8693  0.3594  0.2948
15884TIP3    H269068   1.213   0.693  16.839  0.9845 -1.2286 -0.1126
15885TIP3   OH269069   4.850   0.568   4.822 -0.0247  0.2380 -0.2480
15885TIP3    H169070   4.832   0.607   4.908 -0.9653 -1.7229  0.4968
15885TIP3    H269071   4.942   0.540   4.828  0.3319  1.3423 -0.4054
15886TIP3   OH269072   1.190   1.838  15.872 -0.1756  0.2684 -0.1632
15886TIP3    H169073   1.202   1.750  15.836  0.2370  0.5030 -0.6102
15886TIP3    H269074   1.148   1.887  15.801  0.4374  0.6772 -0.2466
15887TIP3   OH269075   1.795   6.520  12.511 -0.1028  0.0091 -0.2995
15887TIP3    H169076   1.832   6.590  12.564 -1.0054  1.1973 -1.1774
15887TIP3    H269077   1.860   6.503  12.443 -0.9042  1.8406 -1.6247
15888TIP3   OH269078   2.952   5.999   6.236 -0.1147 -0.0358 -0.4901
15888TIP3    H169079   2.975   6.090   6.254 -0.2933  0.0713 -0.7839
15888TIP3    H269080   3.007   5.948   6.295  1.4427  0.1845 -1.6852
15889TIP3   OH269081   2.711   1.056   4.513 -0.2756  0.0928  0.6083
15889TIP3    H169082   2.677   0.968   4.533 -1.9021 -0.1370 -2.5108
15889TIP3    H269083   2.777   1.041   4.445 -1.9883  1.3151 -1.4398
15890TIP3   OH269084   3.533   4.423  15.281 -0.3788 -0.0363 -0.2090
15890TIP3    H169085   3.559   4.443  15.191 -1.8781  0.6519 -0.5334
15890TIP3    H269086   3.494   4.336  15.277 -0.3549 -0.0470 -0.2082
15891TIP3   OH269087   5.511   2.506  14.517  0.3505 -0.5822  0.3408
15891TIP3    H169088   5.496   2.581  14.575 -0.8064 -0.6459  0.1524
15891TIP3    H269089   5.552   2.440  14.573  1.7794  0.3302  0.4060
15892TIP3   OH269090   4.903   5.043   5.195  0.4750 -0.7360  0.3443
15892TIP3    H169091   4.860   5.091   5.266 -0.7220 -0.1506 -0.7400
15892TIP3    H269092   4.955   4.976   5.239 -1.2249 -1.1923  1.7495
15893TIP3   OH269093   0.948   0.258   5.964 -0.5537  0.1560 -0.0634
15893TIP3    H169094   0.935   0.340   6.011 -0.5426 -0.0797  0.3575
15893TIP3    H269095   0.908   0.191   6.020  0.0773 -0.2208 -0.0510
15894TIP3   OH269096   5.442   5.529   3.688  0.5450  0.0099 -0.4845
15894TIP3    H169097   5.512   5.497   3.632 -1.1748 -1.5160 -1.8651
15894TIP3    H269098   5.390   5.586   3.632 -0.1880 -0.0918  0.0686
15895TIP3   OH269099   0.224   0.135  16.969 -0.4547 -0.4963 -0.4269
15895TIP3    H169100   0.301   0.084  16.944 -1.7901 -2.0917 -1.5669
15895TIP3    H269101   0.232   0.217  16.920  1.1737 -0.0301  0.5593
15896TIP3   OH269102   0.881   6.121   3.390 -0.4605  0.8345  0.3111
15896TIP3    H169103   0.897   6.199   3.337 -1.2717 -0.6277 -2.2392
15896TIP3    H269104   0.818   6.070   3.339 -0.4869 -1.1770  2.2203
15897TIP3   OH269105   5.337   6.148  12.902  0.3216 -0.1131 -0.1961
15897TIP3    H169106   5.342   6.073  12.843  0.0476 -0.2316 -0.0713
15897TIP3    H269107   5.426   6.158  12.935  0.1433 -1.0926  0.6567
15898TIP3   OH269108   3.023   5.493  11.067  0.2541 -0.2052  0.1113
15898TIP3    H169109   3.000   5.564  11.006 -1.8639  0.8156  1.9713
15898TIP3    H269110   2.956   5.427  11.054 -0.2268  0.0335  1.3347
15899TIP3   OH269111   4.541   4.173  16.598 -0.3778 -0.3750  0.1162
15899TIP3    H169112   4.547   4.267  16.580 -0.0381  0.4082  3.6467
15899TIP3    H269113   4.447   4.155  16.599 -0.4329 -0.3626 -1.4663
15900TIP3   OH269114   5.167   2.727   2.415  0.2669  0.1594  0.3849
15900TIP3    H169115   5.080   2.707   2.450 -0.0417  0.5055 -0.1811
15900TIP3    H269116   5.192   2.809   2.458 -1.4055  2.2687 -2.3777
15901TIP3   OH269117   1.066   3.274  15.770  0.2803 -0.5011 -0.2254
15901TIP3    H169118   1.100   3.342  15.712 -0.9063  0.8954  0.6381
15901TIP3    H269119   1.035   3.322  15.847  1.3725 -2.2393  1.3856
15902TIP3   OH269120   6.525   0.806  17.185  0.4826 -0.0188 -0.3922
15902TIP3    H169121   6.607   0.805  17.136  0.8207 -0.6865  0.1881
15902TIP3    H269122   6.550   0.796  17.276 -0.1590  1.0942 -0.0678
15903TIP3   OH269123   1.778   2.920   0.524 -0.2381  0.1652  0.3730
15903TIP3    H169124   1.752   2.864   0.597  0.2315  0.7777  1.0411
15903TIP3    H269125   1.699   2.969   0.502 -0.3857 -0.0260  0.4750
15904TIP3   OH269126   1.111   0.273  17.232  0.4522 -0.1717 -0.3833
15904TIP3    H169127   1.170   0.255  17.158  0.7661 -0.0825 -0.1547
15904TIP3    H269128   1.024   0.258  17.196  0.6712 -1.5662 -0.3583
15905TIP3   OH269129   1.340   4.467   2.590 -0.1718  0.6377  0.3395
15905TIP3    H169130   1.279   4.517   2.536  0.8570  0.3211 -1.1766
15905TIP3    H269131   1.408   4.530   2.614  0.2341  0.4016 -0.1527
15906TIP3   OH269132   3.732   0.722   6.065 -0.0461  0.5809  0.0646
15906TIP3    H169133   3.815   0.695   6.105  0.1562  1.9764  0.6334
15906TIP3    H269134   3.757   0.791   6.003 -0.7595  0.8619  0.0825
15907TIP3   OH269135   1.210   5.855  13.269 -0.2164 -0.0716  0.0540
15907TIP3    H169136   1.143   5.912  13.232  0.2381  0.7210  0.4299
15907TIP3    H269137   1.288   5.873  13.217 -0.5611 -1.8547 -1.1567
15908TIP3   OH269138   2.926   5.914   1.428 -0.4948  0.0415  0.2873
15908TIP3    H169139   2.998   5.952   1.377 -1.5050 -1.6598 -2.6328
15908TIP3    H269140   2.961   5.830   1.459 -0.1026  0.7892  2.0114
15909TIP3   OH269141   3.062   2.542  15.280  0.2001 -0.2514  0.4272
15909TIP3    H169142   3.070   2.487  15.358 -0.3263 -0.4271  0.3600
15909TIP3    H269143   3.152   2.565  15.258  0.4267 -1.0417  0.4927
15910TIP3   OH269144   0.553   4.556   5.608 -0.0396 -0.5264  0.0704
15910TIP3    H169145   0.499   4.605   5.670  1.3587 -1.7521  2.3886
15910TIP3    H269146   0.643   4.572   5.636  0.5439 -3.1096 -0.0447
15911TIP3   OH269147   1.188   1.890   1.524  0.1083 -0.3020  0.0470
15911TIP3    H169148   1.096   1.895   1.500 -0.4469 -0.2994  1.9535
15911TIP3    H269149   1.187   1.889   1.620  2.0397 -1.2232  0.1073
15912TIP3   OH269150   4.285   1.177  10.764 -0.0211 -0.4585 -0.2034
15912TIP3    H169151   4.378   1.162  10.780  0.1451  1.3477  0.8221
15912TIP3    H269152   4.240   1.111  10.817  0.6811 -0.2663  0.6517
15913TIP3   OH269153   6.535   1.767   2.065 -0.2756  0.2946  0.0398
15913TIP3    H169154   6.453   1.721   2.050 -0.2233 -0.1038  0.9327
15913TIP3    H269155   6.514   1.860   2.053 -0.9193  0.2164  0.5586
15914TIP3   OH269156   6.220   0.342  14.515  0.2110 -0.0589 -0.0075
15914TIP3    H169157   6.234   0.258  14.472 -2.0432  1.0903 -3.3787
15914TIP3    H269158   6.143   0.329  14.569  0.3947 -0.3754  0.1827
15915TIP3   OH269159   0.616   0.298  16.655  0.3493 -0.3667  0.1584
15915TIP3    H169160   0.702   0.267  16.625  0.7173  1.5682 -0.9675
15915TIP3    H269161   0.623   0.394  16.652 -0.9177 -0.1000  2.8167
15916TIP3   OH269162   5.783   3.591   2.590 -0.0408 -0.0943  0.0809
15916TIP3    H169163   5.721   3.552   2.529  0.5156 -1.2957  0.2518
15916TIP3    H269164   5.819   3.666   2.543 -2.3428  1.2839  0.3631
15917TIP3   OH269165   2.935   3.948  14.481  0.5900 -0.1016 -0.8268
15917TIP3    H169166   2.972   4.026  14.524  1.5681  0.3996 -2.4681
15917TIP3    H269167   2.913   3.889  14.553 -1.1573  2.0832  0.5345
15918TIP3   OH269168   0.736   3.605   4.427  0.2296 -0.0434 -0.3758
15918TIP3    H169169   0.659   3.581   4.479 -0.8292  1.9253 -0.9644
15918TIP3    H269170   0.725   3.558   4.345  0.4860 -0.9835  0.1088
15919TIP3   OH269171   2.009   2.127   5.116  0.0469 -0.3192  0.1617
15919TIP3    H169172   2.015   2.135   5.211  1.0438 -1.2560  0.1984
15919TIP3    H269173   1.943   2.059   5.101  1.7674 -2.1052  0.3027
15920TIP3   OH269174   1.163   5.182   3.973  0.4608  0.0436 -0.1299
15920TIP3    H169175   1.251   5.214   3.953  1.5113 -0.7611  2.7156
15920TIP3    H269176   1.109   5.261   3.974  1.2711  0.6406 -1.2020
15921TIP3   OH269177   6.344   4.910   1.626 -0.4678  0.4585  0.3063
15921TIP3    H169178   6.315   4.880   1.712  1.8251 -0.3339  0.8666
15921TIP3    H269179   6.439   4.902   1.628 -0.3054  0.9297 -2.1280
15922TIP3   OH269180   5.182   0.332   4.338 -0.3638  0.0642  0.4599
15922TIP3    H169181   5.134   0.404   4.378 -0.0348  1.2967 -1.2880
15922TIP3    H269182   5.120   0.258   4.341 -1.4316  0.9353  0.5040
15923TIP3   OH269183   5.771   3.720  15.424 -0.4716 -0.4519  0.0384
15923TIP3    H169184   5.800   3.808  15.400 -0.1678 -0.2449  1.0998
15923TIP3    H269185   5.807   3.664  15.355 -0.1317  0.1707 -0.3082
15924TIP3   OH269186   4.304   2.263  13.340 -0.2130  0.3664 -0.0477
15924TIP3    H169187   4.223   2.215  13.357  0.6302 -1.0088  0.2431
15924TIP3    H269188   4.325   2.243  13.249  0.8735 -1.0500  0.4587
15925TIP3   OH269189   0.450   5.486   6.503 -0.4992  0.3626 -0.3582
15925TIP3    H169190   0.531   5.440   6.481 -0.7548 -1.0409  1.4096
15925TIP3    H269191   0.394   5.473   6.427  0.9696  1.6024 -1.7400
15926TIP3   OH269192   2.294   6.455   3.122  0.0359 -0.2513  0.1647
15926TIP3    H169193   2.234   6.388   3.154  0.5809 -0.7571  0.1555
15926TIP3    H269194   2.271   6.467   3.030  1.0555 -1.6874 -0.2960
15927TIP3   OH269195   5.291   4.854  17.321  0.1823 -0.0525  0.0629
15927TIP3    H169196   5.343   4.934  17.322  0.2997 -0.1322  0.6468
15927TIP3    H269197   5.201   4.884  17.330  0.2536 -0.0023  0.6278
15928TIP3   OH269198   2.103   4.326   3.657 -0.4359 -0.3370  0.0243
15928TIP3    H169199   2.035   4.261   3.641 -0.2628 -0.1284 -1.6674
15928TIP3    H269200   2.068   4.380   3.729 -3.1337  1.1853 -2.2213
15929TIP3   OH269201   3.542   2.103   3.946  0.5723 -0.0560 -0.2191
15929TIP3    H169202   3.460   2.059   3.967  0.5184  0.1708  0.0552
15929TIP3    H269203   3.533   2.129   3.854 -0.4715  1.6956  0.3302
15930TIP3   OH269204   4.781   3.737  10.191 -0.5114  0.3771 -0.5939
15930TIP3    H169205   4.789   3.675  10.119 -0.5834 -1.4858  0.9379
15930TIP3    H269206   4.830   3.698  10.263 -2.5466  0.8990  1.1887
15931TIP3   OH269207   5.921   5.339  14.574 -0.5611 -0.6206  0.6531
15931TIP3    H169208   5.895   5.292  14.653 -0.4875 -1.6227  0.0910
15931TIP3    H269209   6.008   5.372  14.593  0.5923 -3.1230  0.0599
15932TIP3   OH269210   2.108   1.984  11.479  0.1819  0.2823 -0.2413
15932TIP3    H169211   2.174   1.980  11.410  0.7327  0.3361  0.2740
15932TIP3    H269212   2.102   1.894  11.511 -0.3645  0.1756 -0.6169
15933TIP3   OH269213   5.865   5.480  11.807  0.2250  0.7627 -0.7585
15933TIP3    H169214   5.811   5.518  11.876  1.2300  0.0933  0.4441
15933TIP3    H269215   5.839   5.387  11.804  1.7462  0.2676  0.3280
15934TIP3   OH269216   4.762   0.103   3.590  0.1910  0.3444  0.6769
15934TIP3    H169217   4.743   0.010   3.604  0.2263  0.3686  0.8930
15934TIP3    H269218   4.759   0.114   3.495 -0.9361  0.3555  0.6949
15935TIP3   OH269219   0.043   1.297   2.643  0.2668 -0.0268  0.4435
15935TIP3    H169220  -0.040   1.300   2.595 -0.5769 -0.7050  1.7986
15935TIP3    H269221   0.047   1.382   2.688  0.7437  0.3455 -0.2714
15936TIP3   OH269222   0.007   2.695   3.995  0.1702  0.1208 -0.1928
15936TIP3    H169223   0.097   2.680   4.024 -0.2501 -0.8741  0.6787
15936TIP3    H269224  -0.035   2.739   4.070  0.0547  1.0760 -0.7993
15937TIP3   OH269225   1.451   6.108   0.425 -0.2909 -0.5330  0.2559
15937TIP3    H169226   1.499   6.036   0.466  1.1247 -0.2057 -0.7541
15937TIP3    H269227   1.487   6.113   0.336 -2.5248 -0.5365 -0.6961
15938TIP3   OH269228   0.393   5.532  16.222 -0.3132  0.2826  0.0185
15938TIP3    H169229   0.403   5.625  16.198 -0.2023  0.5581  1.0740
15938TIP3    H269230   0.299   5.516  16.213 -0.3944  0.6163  0.2322
15939TIP3   OH269231   1.416   6.181  14.949 -0.2369 -0.4474  0.0416
15939TIP3    H169232   1.488   6.118  14.948  0.4893  0.3538 -1.1453
15939TIP3    H269233   1.337   6.128  14.939  0.3344 -1.2078 -0.5364
15940TIP3   OH269234   5.263   5.135  11.697 -0.8454  0.1216 -0.1396
15940TIP3    H169235   5.204   5.211  11.703  0.2845  1.2028 -1.7525
15940TIP3    H269236   5.206   5.060  11.711 -2.0719  1.2404  1.1773
15941TIP3   OH269237   3.440   4.976   0.375 -0.2550 -0.2567 -0.0279
15941TIP3    H169238   3.526   4.983   0.333 -0.5875  0.2403 -0.6476
15941TIP3    H269239   3.453   4.913   0.446  0.3519 -1.0580 -0.8220
15942TIP3   OH269240   2.172   2.268  12.490  0.2917  0.3583  0.0080
15942TIP3    H169241   2.254   2.218  12.488 -0.7575 -1.4242 -1.6526
15942TIP3    H269242   2.114   2.218  12.547 -0.3691  0.3732 -0.6396
15943TIP3   OH269243   5.713   4.983   0.930  0.2521 -0.0707 -0.1145
15943TIP3    H169244   5.761   4.913   0.975 -0.7373 -2.0500 -1.9633
15943TIP3    H269245   5.623   4.975   0.962  0.2982  0.9517  0.3006
15944TIP3   OH269246   3.980   3.703  15.787  0.5785 -0.3671  0.2436
15944TIP3    H169247   3.979   3.796  15.810  1.3890 -0.8071  2.3020
15944TIP3    H269248   4.030   3.698  15.706  0.8932  0.9586  0.3416
15945TIP3   OH269249   2.597   4.435  13.738  0.0661 -0.4797  0.0058
15945TIP3    H169250   2.686   4.430  13.705 -0.3311 -0.4293 -1.1442
15945TIP3    H269251   2.550   4.366  13.690 -0.3762 -0.9451  1.0703
15946TIP3   OH269252   5.663   6.002  15.873  0.1565  0.2168 -0.8786
15946TIP3    H169253   5.691   5.937  15.937 -0.2220 -0.4024 -1.3279
15946TIP3    H269254   5.594   6.051  15.918  2.4814  2.3934  0.5858
15947TIP3   OH269255   2.511   1.436   2.919  0.2480  0.4914 -1.0720
15947TIP3    H169256   2.453   1.406   2.989  1.0731  0.0519 -0.5594
15947TIP3    H269257   2.452   1.468   2.851 -0.5852  0.3271 -0.4453
15948TIP3   OH269258   3.918   3.792   0.702  0.1789 -0.3287 -0.2664
15948TIP3    H169259   3.950   3.859   0.763  1.3351 -0.7891 -0.3395
15948TIP3    H269260   3.843   3.833   0.659 -0.5019  0.1085  1.2608
15949TIP3   OH269261   1.180   6.302  14.219 -0.2738  0.5977 -0.6417
15949TIP3    H169262   1.242   6.236  14.188 -3.4804 -2.6603 -0.8605
15949TIP3    H269263   1.209   6.383  14.178  1.4062 -1.5320 -4.2372
15950TIP3   OH269264   5.935   5.699   2.060 -0.5405  0.1739  0.1515
15950TIP3    H169265   5.901   5.760   1.994 -0.1883  0.2691  0.0504
15950TIP3    H269266   6.030   5.710   2.054 -0.3546 -1.6801 -1.1160
15951TIP3   OH269267   5.675   1.796   3.981 -0.0076 -0.5519  0.2400
15951TIP3    H169268   5.758   1.843   3.972 -0.8504  1.0410  0.5220
15951TIP3    H269269   5.625   1.846   4.047 -1.0970 -1.6125  0.2589
15952TIP3   OH269270   3.214   3.986   4.558 -0.6240  0.1373 -0.5179
15952TIP3    H169271   3.256   4.071   4.571 -1.8503  0.8279 -0.9925
15952TIP3    H269272   3.252   3.953   4.476 -0.7183  0.5728 -0.7378
15953TIP3   OH269273   4.789   1.735  11.989  0.1131  0.0992  0.1346
15953TIP3    H169274   4.700   1.705  11.971  0.3318 -2.0005  2.0462
15953TIP3    H269275   4.805   1.710  12.080  2.1563  1.7872  0.3295
15954TIP3   OH269276   2.045   6.418   4.485  0.6302 -0.5246 -0.0684
15954TIP3    H169277   1.982   6.375   4.427 -1.0859  1.0828  0.5327
15954TIP3    H269278   2.063   6.502   4.443  0.9582 -0.2003  0.7053
15955TIP3   OH269279   0.743   4.930   2.518  0.4592 -0.3727 -0.6798
15955TIP3    H169280   0.656   4.915   2.480  0.2301 -1.1620  0.1103
15955TIP3    H269281   0.738   5.018   2.555  0.5553  0.2448 -2.0936
15956TIP3   OH269282   2.419   4.904  11.722  0.6366 -0.6483 -0.7219
15956TIP3    H169283   2.393   4.876  11.810  1.4057  2.1468  0.5278
15956TIP3    H269284   2.513   4.916  11.728  0.4329  1.6514 -1.1954
15957TIP3   OH269285   5.576   2.272  16.862 -0.2774 -0.3772 -0.1029
15957TIP3    H169286   5.503   2.284  16.923  1.4467 -0.0702  2.0608
15957TIP3    H269287   5.572   2.348  16.804 -2.0602 -0.7306 -0.4771
15958TIP3   OH269288   2.935   6.579  17.227  0.6612  0.0293 -0.2691
15958TIP3    H169289   2.949   6.535  17.144  0.7235  0.7205 -0.6298
15958TIP3    H269290   2.858   6.634  17.213 -0.2003 -0.8963  0.5638
15959TIP3   OH269291   5.113   5.263  10.831 -1.4428  0.5359 -0.2023
15959TIP3    H169292   5.094   5.204  10.758  2.4306 -1.2012 -0.0325
15959TIP3    H269293   5.106   5.351  10.794  0.6740 -0.2728 -2.8579
15960TIP3   OH269294   2.211   0.353  16.340 -0.3426  0.5249  0.2714
15960TIP3    H169295   2.251   0.423  16.289  1.2743 -0.4140  0.1835
15960TIP3    H269296   2.168   0.297  16.275  2.8256 -1.4014 -0.3687
15961TIP3   OH269297   2.764   6.245  14.543  0.1006 -0.2553  0.5374
15961TIP3    H169298   2.828   6.178  14.521 -0.6203 -0.8957  0.3239
15961TIP3    H269299   2.814   6.313  14.588  1.6294  0.9699 -2.6563
15962TIP3   OH269300   5.179   3.751   1.824  0.4511 -0.1016  0.1877
15962TIP3    H169301   5.184   3.792   1.737  0.4825 -0.2786  0.1050
15962TIP3    H269302   5.172   3.657   1.805 -1.3312 -0.0355  0.3119
15963TIP3   OH269303   5.720   2.841   2.017 -0.6450 -0.2830  0.5927
15963TIP3    H169304   5.671   2.766   2.052 -1.6559  0.7250  1.4257
15963TIP3    H269305   5.690   2.915   2.070 -2.0861  1.3255 -2.2304
15964TIP3   OH269306   5.940   0.234   2.199 -0.5663  0.5127 -0.3759
15964TIP3    H169307   5.925   0.142   2.222  0.1896  0.3995 -0.3104
15964TIP3    H269308   5.868   0.281   2.241  0.7736  0.3332  2.3455
15965TIP3   OH269309   1.251   1.685  13.429 -0.0415 -0.2068 -0.5706
15965TIP3    H169310   1.274   1.728  13.347  0.7688 -0.5309 -0.5204
15965TIP3    H269311   1.229   1.757  13.488  0.6115  0.1033 -0.6995
15966TIP3   OH269312   3.614   0.177   5.233 -0.2571  0.0762 -0.0838
15966TIP3    H169313   3.692   0.147   5.279  0.3391  1.1126 -0.3910
15966TIP3    H269314   3.547   0.184   5.302 -0.1672 -1.0392  0.1419
15967TIP3   OH269315   1.841   4.049   4.128 -0.4375  0.0891 -0.1064
15967TIP3    H169316   1.921   4.013   4.165 -0.9929 -1.3372 -0.2387
15967TIP3    H269317   1.772   4.024   4.189 -0.7890  1.4250  0.0803
15968TIP3   OH269318   1.694   3.270  16.974  0.2181  0.2525  0.0898
15968TIP3    H169319   1.639   3.345  16.951  0.0480  0.0755 -0.0837
15968TIP3    H269320   1.761   3.306  17.032  0.6279  0.6927 -0.6483
15969TIP3   OH269321   4.016   4.440  12.595  0.5965  0.2360  0.2808
15969TIP3    H169322   4.026   4.397  12.679  2.8710 -0.6384 -0.3599
15969TIP3    H269323   3.921   4.442  12.580  0.0530  1.2751  3.2334
15970TIP3   OH269324   6.288   1.697   1.994  0.2106 -0.1110 -0.3640
15970TIP3    H169325   6.281   1.615   2.044  2.0793 -1.6404 -2.4466
15970TIP3    H269326   6.200   1.734   1.997 -0.7462 -2.2976  0.4586
15971TIP3   OH269327   6.486   6.104   3.264 -0.0088 -0.7008 -0.4114
15971TIP3    H169328   6.431   6.165   3.312 -0.6127 -0.6759 -1.1128
15971TIP3    H269329   6.424   6.041   3.225  0.1396  0.7975 -3.3466
15972TIP3   OH269330   5.376   1.593  13.348  0.1896  0.2765  0.3795
15972TIP3    H169331   5.290   1.629  13.326  1.0753  2.1636 -0.2108
15972TIP3    H269332   5.433   1.670  13.357  1.7176 -0.8978  1.2282
15973TIP3   OH269333   5.812   0.570   0.836 -0.1818 -0.4678  0.3209
15973TIP3    H169334   5.828   0.579   0.742  1.6019 -1.1194  0.5106
15973TIP3    H269335   5.804   0.476   0.849 -2.6177 -0.2795  0.5529
15974TIP3   OH269336   5.312   4.945   4.789 -0.4453  0.1582 -0.1057
15974TIP3    H169337   5.278   4.952   4.879  0.2689 -0.7939  0.2519
15974TIP3    H269338   5.350   4.858   4.784  1.2000  0.8686 -0.7617
15975TIP3   OH269339   2.689   1.285  16.354 -0.4336  0.0665  0.3173
15975TIP3    H169340   2.715   1.293  16.262 -0.1633 -1.4046  0.2498
15975TIP3    H269341   2.685   1.376  16.385  1.2588  0.5195 -0.6443
15976TIP3   OH269342   6.489   2.792  16.029 -0.5365  0.5393  0.7553
15976TIP3    H169343   6.508   2.854  15.959 -1.2297 -0.3283 -0.2499
15976TIP3    H269344   6.572   2.748  16.045 -0.4840  0.3867  0.0938
15977TIP3   OH269345   4.542   1.210   1.324 -0.3643 -0.1134  0.1622
15977TIP3    H169346   4.526   1.163   1.406  4.5466  0.8609  1.9835
15977TIP3    H269347   4.584   1.146   1.266 -0.3357  0.1958 -0.1648
15978TIP3   OH269348   2.099   3.818  11.313 -0.3045  0.0590 -0.5242
15978TIP3    H169349   2.065   3.774  11.235  1.6169 -0.9305 -0.8541
15978TIP3    H269350   2.179   3.862  11.283  1.0486 -1.2145  1.0770
15979TIP3   OH269351   2.412   1.501  12.881 -0.2733  0.4269 -0.1887
15979TIP3    H169352   2.371   1.417  12.861 -1.9621  0.9147  1.0043
15979TIP3    H269353   2.452   1.489  12.967 -0.3841  0.7855 -0.0825
15980TIP3   OH269354   3.336   6.389   0.418  0.7119  0.1450 -0.2858
15980TIP3    H169355   3.370   6.303   0.444  1.0412 -0.1963 -1.7683
15980TIP3    H269356   3.308   6.429   0.501 -0.4983 -1.8278  0.3497
15981TIP3   OH269357   0.330   3.105  11.691 -0.2795 -0.1195 -0.3472
15981TIP3    H169358   0.252   3.140  11.735 -0.9548  0.4355 -1.9363
15981TIP3    H269359   0.403   3.152  11.732 -0.9375  0.8154 -0.2041
15982TIP3   OH269360   6.108   1.646   4.781  0.2902 -0.0813  0.0167
15982TIP3    H169361   6.078   1.703   4.710 -1.5292  0.6428  1.2764
15982TIP3    H269362   6.058   1.565   4.770  0.2002 -0.0673  0.3183
15983TIP3   OH269363   5.971   0.181  15.910 -0.1456 -0.1174  0.0314
15983TIP3    H169364   5.972   0.129  15.991 -1.1212 -1.0561 -0.5409
15983TIP3    H269365   6.063   0.205  15.896  0.0053  0.3251  1.5665
15984TIP3   OH269366   5.221   4.805  12.388  0.4184 -0.0023 -0.1364
15984TIP3    H169367   5.145   4.747  12.386 -0.3900  0.9675  1.1636
15984TIP3    H269368   5.191   4.884  12.433  1.9507  0.7731 -0.3809
15985TIP3   OH269369   6.101   1.699   3.227 -0.1950 -0.1522  0.2182
15985TIP3    H169370   6.023   1.739   3.189 -1.2711 -0.3011  2.0970
15985TIP3    H269371   6.066   1.630   3.284  1.3404 -0.5858  0.6707
15986TIP3   OH269372   5.261   4.719   1.583  0.3314 -0.3246  0.2226
15986TIP3    H169373   5.209   4.794   1.611  1.4876  0.2164  1.0256
15986TIP3    H269374   5.198   4.658   1.545 -0.6239  1.1209 -0.6095
15987TIP3   OH269375   0.319   5.032   2.005  0.6091  0.0857  0.1983
15987TIP3    H169376   0.281   5.013   2.091 -0.9778  0.5821 -0.3573
15987TIP3    H269377   0.381   4.961   1.990 -2.2894 -2.5944 -0.1422
15988TIP3   OH269378   3.866   0.387  13.842  0.0104  0.1225  0.7642
15988TIP3    H169379   3.780   0.366  13.808  0.1927 -0.0275  0.3940
15988TIP3    H269380   3.853   0.469  13.891 -0.2836  0.2488  0.4759
15989TIP3   OH269381   4.588   0.079  14.390 -0.0503  0.1187  0.2315
15989TIP3    H169382   4.646   0.011  14.424  0.6609  0.2874 -0.6145
15989TIP3    H269383   4.510   0.074  14.446  1.2034  0.6365  2.1220
15990TIP3   OH269384   1.751   1.109  11.683  0.1817  0.0597  0.4852
15990TIP3    H169385   1.731   1.085  11.773  0.7885 -0.2306  0.5478
15990TIP3    H269386   1.746   1.026  11.635  0.5865  0.0936  0.3865
15991TIP3   OH269387   3.853   1.956  16.166  0.2666 -0.6031  0.1634
15991TIP3    H169388   3.929   1.905  16.195  1.4692 -0.4021 -2.3124
15991TIP3    H269389   3.890   2.039  16.137 -0.6793 -0.8721 -2.0553
15992TIP3   OH269390   0.320   0.624   4.353  0.1883 -0.0513 -0.4651
15992TIP3    H169391   0.250   0.674   4.312  1.0380  1.8700  0.2839
15992TIP3    H269392   0.399   0.674   4.333  1.3485 -1.9911 -1.0301
15993TIP3   OH269393   2.861   5.461   2.629  0.0203  0.6634 -0.2848
15993TIP3    H169394   2.818   5.475   2.713 -1.3600  2.3936 -1.2228
15993TIP3    H269395   2.948   5.427   2.652 -0.9063 -0.5150  1.7540
15994TIP3   OH269396   6.603   3.477   2.372 -0.4035 -0.0460  0.2853
15994TIP3    H169397   6.585   3.561   2.414  2.1801  0.3232  0.7826
15994TIP3    H269398   6.584   3.412   2.439 -0.0706  0.3082  0.7300
15995TIP3   OH269399   2.804   2.485  12.093 -0.1320 -0.1649 -0.2430
15995TIP3    H169400   2.745   2.414  12.070 -2.5489  1.3091  0.9535
15995TIP3    H269401   2.746   2.558  12.117  2.1611  2.2603 -1.4254
15996TIP3   OH269402   6.260   0.797  15.045 -0.2843 -0.3944  0.6208
15996TIP3    H169403   6.181   0.851  15.038 -0.0452 -0.0229  0.7659
15996TIP3    H269404   6.331   0.855  15.017 -0.0161 -0.6068  0.8567
15997TIP3   OH269405   5.804   1.327   0.990  0.1670 -0.4048  0.1853
15997TIP3    H169406   5.730   1.384   0.972  0.7267  0.0835 -0.6884
15997TIP3    H269407   5.846   1.316   0.904 -0.5473 -3.0333  0.0894
15998TIP3   OH269408   3.952   6.312   0.765 -0.4567 -0.0060  0.1858
15998TIP3    H169409   3.999   6.240   0.724 -1.0639 -0.5709  0.4705
15998TIP3    H269410   3.866   6.276   0.787 -1.2086  1.1165 -0.7373
15999TIP3   OH269411   0.707   3.480  12.006  0.0639 -0.1202 -0.4778
15999TIP3    H169412   0.707   3.473  11.910  2.2933  0.9879 -0.6285
15999TIP3    H269413   0.795   3.512  12.027 -1.0135  1.6436  1.7901
16000TIP3   OH269414   1.693   2.770  13.613  0.5392 -0.7401  0.1429
16000TIP3    H169415   1.787   2.751  13.610  1.1028  1.2106  2.2608
16000TIP3    H269416   1.671   2.765  13.706 -0.9480  0.9743 -0.0666
16001TIP3   OH269417   6.739   5.275  16.124  0.6776 -0.4778  0.2936
16001TIP3    H169418   6.777   5.359  16.097  1.5815 -0.0428  2.7064
16001TIP3    H269419   6.681   5.297  16.196 -1.6354 -1.6031 -1.1162
16002TIP3   OH269420   4.358   6.482  17.022  0.0578 -0.0805  0.0367
16002TIP3    H169421   4.331   6.548  17.086  1.0176 -1.4779  1.9833
16002TIP3    H269422   4.432   6.437  17.063  0.4272 -1.3580 -1.8822
16003TIP3   OH269423   3.537   3.383   1.642  0.4943 -0.2661  0.0626
16003TIP3    H169424   3.559   3.293   1.667  2.2828 -0.1914 -1.0755
16003TIP3    H269425   3.618   3.432   1.654  0.3962  0.5439 -2.0964
16004TIP3   OH269426   1.408   0.664   4.917  0.0480  0.2580 -0.5131
16004TIP3    H169427   1.420   0.644   4.825  0.6448  0.3979 -0.4657
16004TIP3    H269428   1.494   0.651   4.957 -0.1389  0.4651 -0.0263
16005TIP3   OH269429   4.969   2.472  15.575  0.0733  0.9780 -0.0034
16005TIP3    H169430   4.975   2.398  15.515  0.4561  1.6525 -0.8247
16005TIP3    H269431   4.893   2.453  15.630  0.5630 -0.3388  0.2480
16006TIP3   OH269432   4.068   4.069   4.158  0.3579  0.2971 -0.5657
16006TIP3    H169433   4.079   4.001   4.091 -3.3255  0.2927 -1.3668
16006TIP3    H269434   4.067   4.151   4.110  0.0005  0.4975 -0.2228
16007TIP3   OH269435   2.529   5.464   4.026 -0.1136  0.3255  0.2652
16007TIP3    H169436   2.472   5.387   4.031  0.4903 -0.3334 -1.9440
16007TIP3    H269437   2.617   5.428   4.019  0.1380  1.1381 -1.3233
16008TIP3   OH269438   1.218   5.092  14.385  0.4706  0.1266  0.1371
16008TIP3    H169439   1.232   5.113  14.477  2.2307  1.1945 -0.3229
16008TIP3    H269440   1.257   5.165  14.338  0.3664 -0.8139 -1.4806
16009TIP3   OH269441   5.750   6.402  12.735 -1.0733 -0.0258 -0.5181
16009TIP3    H169442   5.763   6.472  12.799 -0.0994  0.5295 -1.2903
16009TIP3    H269443   5.745   6.447  12.650  1.5414 -0.9358 -1.2753
16010TIP3   OH269444   5.161   4.998  12.606 -0.3311  0.4498  0.6486
16010TIP3    H169445   5.240   4.997  12.659 -0.4912  1.5759  0.9466
16010TIP3    H269446   5.172   5.073  12.548 -0.3649 -0.4895 -0.6152
16011TIP3   OH269447   3.942   1.495   5.998  0.2149  0.2784 -0.1134
16011TIP3    H169448   3.913   1.577   6.039  0.2566 -0.4760  1.5312
16011TIP3    H269449   4.016   1.467   6.053  1.8427  0.3814 -2.1202
16012TIP3   OH269450   4.295   3.597   1.006  0.3776  0.0816 -0.4383
16012TIP3    H169451   4.388   3.610   1.026  0.5813 -1.6446 -0.1085
16012TIP3    H269452   4.296   3.556   0.919 -0.0897  0.1494 -0.4761
16013TIP3   OH269453   3.511   1.093   0.224  0.0994 -0.6182  0.7454
16013TIP3    H169454   3.606   1.089   0.241  0.7453  3.0848 -1.0663
16013TIP3    H269455   3.480   1.165   0.278 -0.7959  0.9190 -1.6706
16014TIP3   OH269456   1.857   2.368  10.674 -0.2663  0.1034 -0.8597
16014TIP3    H169457   1.944   2.364  10.715 -0.9395  0.5414  0.7101
16014TIP3    H269458   1.827   2.457  10.691 -2.3432 -0.9162  1.6412
16015TIP3   OH269459   4.167   3.421   1.739  0.4699  0.3537  0.6575
16015TIP3    H169460   4.216   3.344   1.709  2.1567  1.6753 -0.1759
16015TIP3    H269461   4.080   3.411   1.701  0.7876 -0.9386  0.2347
16016TIP3   OH269462   5.857   6.044   0.167 -0.1512  0.1793 -0.1484
16016TIP3    H169463   5.911   5.969   0.192 -1.2188 -0.6436 -0.2899
16016TIP3    H269464   5.914   6.095   0.109  0.2890 -0.9874 -0.7746
16017TIP3   OH269465   3.994   4.972  12.476 -0.0171 -0.0882 -0.3360
16017TIP3    H169466   3.977   4.928  12.559  0.0221 -0.1436 -0.3560
16017TIP3    H269467   4.073   4.928  12.442 -0.2938 -0.3752 -0.6176
16018TIP3   OH269468   2.873   2.854  11.673 -0.3352  0.3063 -0.5693
16018TIP3    H169469   2.832   2.865  11.759 -1.2685 -1.1390 -0.7848
16018TIP3    H269470   2.804   2.879  11.611 -0.4099 -0.7132 -0.9147
16019TIP3   OH269471   3.085   5.390  15.892  0.1259  0.6786 -0.3782
16019TIP3    H169472   3.164   5.346  15.861  0.5420  1.8385 -1.0491
16019TIP3    H269473   3.085   5.474  15.846 -2.8228 -0.2670 -2.4115
16020TIP3   OH269474   4.719   5.390  15.004  0.2610 -0.4772  0.1456
16020TIP3    H169475   4.719   5.467  15.060  1.0020 -0.3999  0.0458
16020TIP3    H269476   4.808   5.355  15.010  0.2610 -0.6572 -0.7127
16021TIP3   OH269477   0.616   0.356   5.697 -0.1398 -0.0301  0.6083
16021TIP3    H169478   0.531   0.316   5.717 -1.4096  1.2430 -1.7263
16021TIP3    H269479   0.640   0.402   5.778 -1.0004 -1.4639  1.7403
16022TIP3   OH269480   2.892   1.292  12.999 -0.0551 -0.6800 -0.1277
16022TIP3    H169481   2.873   1.199  12.987  0.3303 -0.5167 -2.6510
16022TIP3    H269482   2.821   1.337  12.954  0.7930  0.1732 -0.6550
16023TIP3   OH269483   2.640   0.502   5.445  0.2257 -0.6578 -0.3582
16023TIP3    H169484   2.724   0.540   5.421  0.5270 -0.1859  1.3225
16023TIP3    H269485   2.576   0.545   5.388  0.8842  0.4228 -0.2952
16024TIP3   OH269486   6.232   0.135   3.539 -0.1172 -0.0115 -0.6970
16024TIP3    H169487   6.261   0.132   3.448  0.1609  1.3369 -0.6764
16024TIP3    H269488   6.214   0.228   3.555  2.0697  0.1574  1.2898
16025TIP3   OH269489   0.071   4.010  15.287  0.6152  0.2663 -0.6154
16025TIP3    H169490   0.044   3.987  15.199 -0.4911  1.6572 -0.6708
16025TIP3    H269491  -0.010   4.027  15.334  1.2573  2.8521 -0.3026
16026TIP3   OH269492   0.813   6.352  11.998 -0.5340  0.0802 -0.3908
16026TIP3    H169493   0.822   6.446  12.013  0.9835 -0.0601 -0.2093
16026TIP3    H269494   0.724   6.332  12.025  0.1429  0.8926  2.9510
16027TIP3   OH269495   1.404   1.777  11.415  0.4747 -0.0053 -0.2815
16027TIP3    H169496   1.415   1.714  11.486  2.0047 -1.1264 -1.4446
16027TIP3    H269497   1.316   1.814  11.428  0.2823 -1.0095  1.5022
16028TIP3   OH269498   1.290   6.381  15.099  0.4612 -0.1142 -0.6503
16028TIP3    H169499   1.337   6.309  15.058  2.9674  1.6868 -1.2213
16028TIP3    H269500   1.230   6.412  15.031  0.7666 -0.4434 -1.0726
16029TIP3   OH269501   2.478   6.346  16.107 -0.3364 -0.2954  0.1266
16029TIP3    H169502   2.474   6.293  16.187 -0.2464  2.0910  1.7968
16029TIP3    H269503   2.398   6.398  16.109  1.3556  2.4638  0.6973
16030TIP3   OH269504   2.778   5.031   4.965 -0.2812 -0.1144 -0.1207
16030TIP3    H169505   2.731   5.093   5.020  0.6619  0.0966  0.4760
16030TIP3    H269506   2.712   4.997   4.905 -1.0281  0.7094  0.2082
16031TIP3   OH269507   2.502   0.439   1.388 -0.4417  0.2833  0.4196
16031TIP3    H169508   2.506   0.345   1.370 -0.6019  0.0930  1.3474
16031TIP3    H269509   2.562   0.452   1.462 -0.6149  0.8682  0.4600
16032TIP3   OH269510   3.006   5.741  17.000 -0.2789  0.0379 -0.4635
16032TIP3    H169511   3.094   5.777  16.986  0.0372  0.2627  1.8001
16032TIP3    H269512   3.021   5.651  17.027 -0.7598 -0.0518 -0.4956
16033TIP3   OH269513   3.829   6.755   2.272  0.7183 -0.1394  0.1476
16033TIP3    H169514   3.857   6.665   2.289 -0.3001 -0.3095  1.0229
16033TIP3    H269515   3.829   6.797   2.357  0.5517  0.5074 -0.1647
16034TIP3   OH269516   1.413   4.435  11.477  0.1728 -0.1958 -0.2023
16034TIP3    H169517   1.356   4.377  11.426 -0.0806  0.3051 -0.5051
16034TIP3    H269518   1.359   4.512  11.493  1.5446  1.4034 -2.6600
16035TIP3   OH269519   2.858   6.337   3.497 -0.6698  0.4599 -0.1431
16035TIP3    H169520   2.791   6.270   3.487 -0.0548 -0.2923  0.6047
16035TIP3    H269521   2.811   6.420   3.488 -1.5445 -0.0589 -0.4537
16036TIP3   OH269522   0.083   3.384   4.826  0.3638 -0.1343 -0.9356
16036TIP3    H169523   0.096   3.393   4.731 -1.0467 -1.6665 -1.3242
16036TIP3    H269524   0.166   3.410   4.864 -0.1578  4.4674 -2.3053
16037TIP3   OH269525   3.366   5.535  14.322  0.3931 -0.0163 -0.0510
16037TIP3    H169526   3.453   5.495  14.321  0.7867  0.7999 -1.9675
16037TIP3    H269527   3.358   5.572  14.410  0.6760 -2.7434  1.2587
16038TIP3   OH269528   5.673   6.209   2.903 -1.0393 -0.3531  0.7878
16038TIP3    H169529   5.714   6.199   2.817 -1.9263  0.2852  0.2850
16038TIP3    H269530   5.745   6.199   2.965 -0.4672 -1.3245  0.0028
16039TIP3   OH269531   2.569   2.454   5.909  0.0093 -0.3960 -0.3482
16039TIP3    H169532   2.616   2.467   5.991 -0.7382 -0.5087  0.1108
16039TIP3    H269533   2.605   2.519   5.849  1.7912 -1.4409 -0.4767
16040TIP3   OH269534   0.863   3.723  14.175 -0.0363  0.1250 -0.2033
16040TIP3    H169535   0.780   3.760  14.202 -0.8775 -1.1643 -0.9097
16040TIP3    H269536   0.869   3.639  14.220  0.3731 -0.2783 -0.9717
16041TIP3   OH269537   5.053   5.387   2.339  0.6648 -0.8485 -0.3425
16041TIP3    H169538   5.022   5.310   2.387  0.8758 -1.4408 -1.1172
16041TIP3    H269539   4.975   5.419   2.293  0.0244  0.8070  1.7303
16042TIP3   OH269540   1.888   3.727   1.647 -0.5198  0.6524  0.3161
16042TIP3    H169541   1.798   3.731   1.678  0.1071 -1.0219  2.5937
16042TIP3    H269542   1.933   3.795   1.697 -0.3920  1.1169 -0.4193
16043TIP3   OH269543   3.555   5.798  12.717  0.5422 -0.2919  0.0551
16043TIP3    H169544   3.549   5.794  12.812 -0.6813 -2.0028 -0.0394
16043TIP3    H269545   3.466   5.777  12.687  0.4624  1.9115 -1.4715
16044TIP3   OH269546   2.839   0.873   3.904 -0.2179  0.2601  0.1480
16044TIP3    H169547   2.811   0.820   3.829 -1.7405  2.0118 -0.5920
16044TIP3    H269548   2.800   0.828   3.979 -0.8419 -0.1058 -0.3793
16045TIP3   OH269549   1.621   2.193  16.177 -0.0680 -0.3897  0.0311
16045TIP3    H169550   1.682   2.142  16.124 -0.7479  0.2615 -1.4156
16045TIP3    H269551   1.546   2.136  16.192 -0.3219 -0.2222 -0.5945
16046TIP3   OH269552   2.903   2.264  14.076  0.1762  0.0600 -0.2463
16046TIP3    H169553   2.819   2.221  14.057  0.0918  0.4624 -0.8245
16046TIP3    H269554   2.894   2.351  14.036  0.4391  0.5208  0.6746
16047TIP3   OH269555   4.121   6.703   1.342 -0.0457  0.5257  0.0276
16047TIP3    H169556   4.190   6.769   1.344 -0.8404  1.3829 -0.3448
16047TIP3    H269557   4.164   6.624   1.309  0.8781  0.9003  0.3249
16048TIP3   OH269558   4.686   6.126   0.063 -0.4823 -0.3226 -0.0309
16048TIP3    H169559   4.730   6.075   0.131 -0.4460 -0.5744 -0.2399
16048TIP3    H269560   4.639   6.195   0.111 -1.8788 -1.5210  0.4029
16049TIP3   OH269561   3.347   2.081  12.089 -0.2907  0.6315  0.2275
16049TIP3    H169562   3.253   2.062  12.091 -0.4057  0.9296 -1.4481
16049TIP3    H269563   3.385   2.004  12.047 -0.1841  1.8600 -2.0425
16050TIP3   OH269564   1.531   4.424   3.962 -0.4266 -0.0782 -0.0076
16050TIP3    H169565   1.466   4.478   4.007 -0.2545 -1.2205  1.7470
16050TIP3    H269566   1.487   4.393   3.883 -0.7782  1.9457 -0.6641
16051TIP3   OH269567   2.802   5.785  11.206 -0.0912  0.8204  0.1616
16051TIP3    H169568   2.789   5.737  11.125 -1.0888  0.5367  0.4756
16051TIP3    H269569   2.896   5.781  11.222  0.0587  0.5167 -0.7516
16052TIP3   OH269570   1.699   4.083   2.851 -0.2060  0.1753 -0.0542
16052TIP3    H169571   1.727   4.172   2.829  3.2014 -1.0333 -1.3428
16052TIP3    H269572   1.718   4.074   2.944  3.1176 -0.2201 -0.6466
16053TIP3   OH269573   6.188   1.078  12.183 -0.1780 -0.0598 -0.8919
16053TIP3    H169574   6.139   1.112  12.259 -1.2206 -0.3315 -1.4254
16053TIP3    H269575   6.233   1.001  12.216 -0.4198 -0.0288 -0.4785
16054TIP3   OH269576   4.343   1.883   2.751 -0.2270  0.5356  0.0464
16054TIP3    H169577   4.259   1.914   2.717 -1.6564 -1.7370  1.2703
16054TIP3    H269578   4.403   1.890   2.676 -2.3014 -0.7925 -1.8797
16055TIP3   OH269579   4.395   4.769   3.602 -0.1139 -0.4397 -0.1422
16055TIP3    H169580   4.445   4.700   3.560 -1.0441 -2.3450  1.6759
16055TIP3    H269581   4.304   4.750   3.579 -0.2642  1.3942 -1.2286
16056TIP3   OH269582   3.638   4.872   0.956  0.0318  0.2265 -0.4625
16056TIP3    H169583   3.599   4.947   1.002 -3.1117 -0.6518 -1.4117
16056TIP3    H269584   3.631   4.894   0.863  3.1395  0.5101 -0.7361
16057TIP3   OH269585   2.315   0.894  16.754  0.6138  0.2183  0.5145
16057TIP3    H169586   2.342   0.825  16.815  1.6589  0.4030  0.2935
16057TIP3    H269587   2.277   0.961  16.810 -2.2993 -1.3287  0.5674
16058TIP3   OH269588   0.129   6.404   4.691 -1.0302  0.2668 -0.1229
16058TIP3    H169589   0.039   6.384   4.668 -1.1072  1.1655 -0.6584
16058TIP3    H269590   0.144   6.492   4.655 -0.1986  0.4583  0.6528
16059TIP3   OH269591   2.192   2.527  12.125  0.1164 -0.4778 -0.1713
16059TIP3    H169592   2.164   2.519  12.034  0.3084  0.5040 -0.3311
16059TIP3    H269593   2.134   2.468  12.173 -0.9540  0.0741 -0.7495
16060TIP3   OH269594   1.912   6.768   3.510  0.2322  0.1191  0.0663
16060TIP3    H169595   1.946   6.679   3.498  0.8133  0.1617  1.2742
16060TIP3    H269596   1.819   6.756   3.527  0.3394 -0.2840  0.3977
16061TIP3   OH269597   5.272   1.819   1.788  0.3234 -0.1421  0.3146
16061TIP3    H169598   5.320   1.762   1.847 -0.2878  1.4788  2.5322
16061TIP3    H269599   5.200   1.765   1.754  1.7752 -1.6461 -0.5392
16062TIP3   OH269600   6.239   5.987  16.549  0.4309 -0.1651  0.3018
16062TIP3    H169601   6.219   6.063  16.494  0.3721  0.1843  0.8055
16062TIP3    H269602   6.267   5.920  16.486  0.7370  0.3492 -0.1266
16063TIP3   OH269603   2.032   2.762  17.344  0.3908 -0.6431  0.2036
16063TIP3    H169604   1.988   2.846  17.333  0.9273 -0.1965  1.2748
16063TIP3    H269605   2.120   2.777  17.310  0.0732 -1.1983 -0.8929
16064TIP3   OH269606   3.600   4.747  15.694  0.1221  0.0028 -0.3402
16064TIP3    H169607   3.524   4.773  15.643  0.7206  0.1758 -1.1590
16064TIP3    H269608   3.567   4.738  15.784 -0.9880 -0.5271 -0.7898
16065TIP3   OH269609   0.588   4.993  12.860 -0.6237  0.0753 -0.0289
16065TIP3    H169610   0.568   5.049  12.935  0.2054  0.3966 -0.0453
16065TIP3    H269611   0.639   4.921  12.897  2.2192  1.6274 -0.6284
16066TIP3   OH269612   1.021   0.468  13.463 -0.3673  0.3971  0.0448
16066TIP3    H169613   1.098   0.525  13.467  0.1187 -0.2143 -0.3362
16066TIP3    H269614   1.049   0.394  13.408 -2.0990  1.5183 -2.5411
16067TIP3   OH269615   3.088   6.137   2.612 -0.2594  0.0292 -0.3825
16067TIP3    H169616   3.011   6.190   2.596 -0.7770  0.1993  2.1738
16067TIP3    H269617   3.078   6.107   2.703  2.1528 -0.8206 -0.3192
16068TIP3   OH269618   3.483   6.270   2.808 -0.3701 -0.7756 -0.3397
16068TIP3    H169619   3.531   6.213   2.748 -0.2726 -0.3967 -0.6307
16068TIP3    H269620   3.538   6.274   2.886  0.8306  0.7716 -1.1806
16069TIP3   OH269621   3.931   5.020  12.162 -0.3806 -0.0835  0.4181
16069TIP3    H169622   3.955   5.002  12.072 -0.7754 -2.7798  0.7541
16069TIP3    H269623   3.835   5.027  12.160 -0.3452  0.4753  0.5463
16070TIP3   OH269624   2.925   3.756   2.902  0.9368  0.6831  0.0088
16070TIP3    H169625   2.904   3.848   2.920 -0.2797  0.4627 -0.2088
16070TIP3    H269626   2.956   3.721   2.985  1.2834  1.2514  0.1228
16071TIP3   OH269627   0.062   1.943  14.081  0.0483  0.6143 -0.0144
16071TIP3    H169628   0.093   2.030  14.107 -1.7924  1.8376 -1.5598
16071TIP3    H269629   0.000   1.918  14.150  0.0544  0.8673  0.0826
16072TIP3   OH269630   5.915   6.476   6.196 -0.7696 -0.1461  0.2554
16072TIP3    H169631   5.943   6.500   6.284 -0.5295  0.9435 -0.1060
16072TIP3    H269632   5.923   6.381   6.193 -0.0182 -0.1193  1.1507
16073TIP3   OH269633   0.610   6.375   5.782  0.2058  0.1095 -0.5642
16073TIP3    H169634   0.622   6.385   5.877 -2.3444 -2.4658  0.1764
16073TIP3    H269635   0.683   6.425   5.744  1.7260  0.7291  2.7232
16074TIP3   OH269636   4.997   3.311  14.223  0.1935 -0.0660  0.0477
16074TIP3    H169637   4.909   3.298  14.189 -0.1724 -0.4066  1.1112
16074TIP3    H269638   5.054   3.293  14.148 -0.5037 -2.7449  0.0568
16075TIP3   OH269639   6.418   2.045  15.806  0.1810 -0.5333 -0.0131
16075TIP3    H169640   6.325   2.067  15.800 -0.3631 -2.6052  0.0042
16075TIP3    H269641   6.430   2.018  15.897  1.6178  2.7380  0.9266
16076TIP3   OH269642   4.283   0.353   5.842 -0.4791  0.1897 -0.0709
16076TIP3    H169643   4.350   0.421   5.853 -0.6071  0.3519 -0.2963
16076TIP3    H269644   4.246   0.343   5.930 -0.5744  0.5280 -0.0710
16077TIP3   OH269645   1.969   1.749  16.284  0.0712  0.0170 -0.6288
16077TIP3    H169646   1.954   1.840  16.258 -0.6126  0.0944 -0.0067
16077TIP3    H269647   2.027   1.713  16.217  0.9150  1.1160 -0.5144
16078TIP3   OH269648   1.826   2.638  16.581 -0.0216 -0.1513 -0.2419
16078TIP3    H169649   1.862   2.723  16.606  0.7932 -1.0211  1.7503
16078TIP3    H269650   1.887   2.604  16.515 -0.4173  0.8141 -1.1351
16079TIP3   OH269651   1.012   1.154  16.361 -0.1775  0.0540 -0.0796
16079TIP3    H169652   1.075   1.101  16.410  0.0295  0.7747  0.4482
16079TIP3    H269653   1.057   1.237  16.344 -0.5783  0.1587 -0.6889
16080TIP3   OH269654   3.168   0.250   2.639  0.4504  0.3744 -0.4216
16080TIP3    H169655   3.172   0.178   2.576  2.7679 -0.1258  0.1736
16080TIP3    H269656   3.202   0.212   2.721 -0.6704  1.5044  0.6017
16081TIP3   OH269657   4.063   1.602  13.932  0.2453  0.2775 -0.2689
16081TIP3    H169658   4.110   1.602  14.015 -0.7876  0.2121  0.3217
16081TIP3    H269659   4.128   1.633  13.868  0.7244  1.4278  0.7462
16082TIP3   OH269660   2.262   1.782  16.232  0.7775  0.3096 -0.0395
16082TIP3    H169661   2.242   1.844  16.302  1.1035  0.6622 -0.2614
16082TIP3    H269662   2.290   1.836  16.158  1.2172 -0.1029 -0.1804
16083TIP3   OH269663   1.932   5.039   6.228  0.7494  0.3416 -0.2352
16083TIP3    H169664   1.933   5.128   6.191  1.1640  0.5444  0.2597
16083TIP3    H269665   1.845   5.006   6.205 -0.2611  1.6573  1.3966
16084TIP3   OH269666   0.692   3.019   0.688  0.2194  0.1373  0.0900
16084TIP3    H169667   0.634   2.948   0.662 -0.3305  1.1875 -1.7257
16084TIP3    H269668   0.663   3.042   0.777 -3.1239  1.4737 -1.1810
16085TIP3   OH269669   5.948   1.555  15.760  0.1415 -0.4515 -0.3206
16085TIP3    H169670   5.981   1.466  15.748  1.9388 -0.0307  1.0781
16085TIP3    H269671   5.950   1.594  15.672 -1.0234 -1.8653 -1.0101
16086TIP3   OH269672   5.503   1.893  12.820  0.4451  0.3070  0.0962
16086TIP3    H169673   5.502   1.923  12.910 -1.2830  1.9679 -0.4235
16086TIP3    H269674   5.482   1.799  12.826  3.2415 -0.3310  1.5515
16087TIP3   OH269675   3.441   2.936  15.532 -0.5968  0.0933 -0.3247
16087TIP3    H169676   3.469   2.969  15.447  0.9311 -1.2568 -0.4095
16087TIP3    H269677   3.410   3.013  15.580  1.3686  1.3945 -1.0336
16088TIP3   OH269678   2.493   3.278   3.835 -0.1187  0.7157  0.2106
16088TIP3    H169679   2.498   3.234   3.751  0.6008 -0.2209  0.7224
16088TIP3    H269680   2.468   3.209   3.897  0.4504  1.1466  0.9400
16089TIP3   OH269681   5.808   5.588   3.938 -0.5085  0.1501  0.6333
16089TIP3    H169682   5.713   5.601   3.949 -0.5214  1.2321 -0.6270
16089TIP3    H269683   5.841   5.673   3.911  0.4905 -0.7489 -1.0998
16090TIP3   OH269684   5.824   4.981   1.592  0.2268 -0.6327 -0.0431
16090TIP3    H169685   5.801   5.056   1.647 -0.4766 -0.5040 -0.5091
16090TIP3    H269686   5.743   4.930   1.584  0.5703 -1.1804 -0.1461
16091TIP3   OH269687   2.530   6.524   3.622  0.2096 -0.4757 -0.1319
16091TIP3    H169688   2.604   6.574   3.660  0.1390 -0.8695  0.5441
16091TIP3    H269689   2.483   6.589   3.570 -0.1576  0.3089  1.1235
16092TIP3   OH269690   4.054   5.593  11.471 -0.5481  0.3360  0.0082
16092TIP3    H169691   4.071   5.561  11.559 -0.0410 -0.2182 -0.2845
16092TIP3    H269692   4.085   5.523  11.413 -2.2163  0.0478 -0.5940
16093TIP3   OH269693   2.148   2.182   2.468 -0.4710 -0.1838 -0.3484
16093TIP3    H169694   2.100   2.099   2.465 -1.2681  0.2880 -1.3499
16093TIP3    H269695   2.094   2.242   2.417  1.1207  0.4227 -1.3744
16094TIP3   OH269696   2.306   2.383  16.032 -0.1484 -0.3960 -0.6080
16094TIP3    H169697   2.328   2.329  15.957 -0.0482  0.6267 -1.3382
16094TIP3    H269698   2.260   2.458  15.995 -1.5282 -0.6373  0.5100
16095TIP3   OH269699   3.110   0.869   3.932  0.0426  0.6125 -0.0620
16095TIP3    H169700   3.016   0.875   3.911 -0.2654  0.6246  1.2598
16095TIP3    H269701   3.153   0.868   3.846 -1.0835  1.9189 -0.6828
16096TIP3   OH269702   6.737   4.522   2.100  0.7860 -0.6474 -0.0139
16096TIP3    H169703   6.685   4.593   2.062 -1.7403 -1.8128  1.0454
16096TIP3    H269704   6.788   4.564   2.170  1.0620  0.4638 -0.8480
16097TIP3   OH269705   5.659   3.586   1.614 -0.5364 -0.1957 -0.1761
16097TIP3    H169706   5.677   3.654   1.679 -0.9321 -0.2856  0.0298
16097TIP3    H269707   5.735   3.587   1.557  0.4741 -1.0655  1.1022
16098TIP3   OH269708   6.521   2.664  14.568 -0.2214 -0.2232 -1.0371
16098TIP3    H169709   6.459   2.670  14.641 -0.7286  2.3626 -1.5835
16098TIP3    H269710   6.508   2.576  14.532 -0.2286 -1.4311  1.6923
16099TIP3   OH269711   3.525   0.568   5.134  0.3294 -0.0670  0.3376
16099TIP3    H169712   3.440   0.572   5.178  0.3489  0.6718  0.3307
16099TIP3    H269713   3.588   0.553   5.204  0.1085 -1.6690  0.2215
16100TIP3   OH269714   2.007   6.335   2.639 -0.1712  0.3050  0.0457
16100TIP3    H169715   2.071   6.364   2.575 -0.9574  2.6878  0.2595
16100TIP3    H269716   2.038   6.371   2.722 -0.5563 -0.5292  0.5717
16101TIP3   OH269717   6.083   3.230   2.464  0.0213  0.3970 -0.0600
16101TIP3    H169718   6.101   3.308   2.412  0.6796 -0.4435 -1.1509
16101TIP3    H269719   6.030   3.175   2.406  0.6902 -0.5273  0.1880
16102TIP3   OH269720   0.785   4.869   0.885  0.1531 -0.1430  0.8022
16102TIP3    H169721   0.839   4.836   0.813  0.4792  1.1762  0.4233
16102TIP3    H269722   0.696   4.843   0.861  0.3318 -0.2434  0.2207
16103TIP3   OH269723   2.944   6.494   1.908  0.2625  0.5274  0.3836
16103TIP3    H169724   2.909   6.581   1.926 -2.6600 -0.6863  1.0448
16103TIP3    H269725   2.955   6.491   1.813 -3.1136  0.5141 -0.1241
16104TIP3   OH269726   1.587   0.184   6.019 -0.1780 -1.3046 -0.1557
16104TIP3    H169727   1.682   0.195   6.009 -0.2199 -1.0751 -0.3202
16104TIP3    H269728   1.571   0.200   6.112 -0.4479  1.8675 -0.6193
16105TIP3   OH269729   6.365   4.157   4.664 -0.3725  0.3867  0.0154
16105TIP3    H169730   6.357   4.183   4.756  0.8891 -0.5357  0.4218
16105TIP3    H269731   6.441   4.098   4.663 -0.1357  0.6748 -1.6860
16106TIP3   OH269732   2.952   4.560   1.014 -0.1260 -0.0686 -0.3789
16106TIP3    H169733   2.875   4.534   0.963 -1.4682 -0.0337  1.5246
16106TIP3    H269734   3.027   4.529   0.963 -1.4836 -2.9087 -0.8164
16107TIP3   OH269735   3.858   6.283  14.603 -0.1112  0.3542 -0.1238
16107TIP3    H169736   3.795   6.210  14.605 -0.1867  0.4263  0.3245
16107TIP3    H269737   3.902   6.278  14.688 -0.2613  0.9597 -0.0062
16108TIP3   OH269738   5.200   4.027   5.721 -0.5831  0.6898  0.1560
16108TIP3    H169739   5.280   4.058   5.762 -0.8194  1.2370  0.2075
16108TIP3    H269740   5.147   3.994   5.795 -0.2052 -0.1372  0.0672
16109TIP3   OH269741   5.499   5.315   1.816  0.1168  0.2213  0.1635
16109TIP3    H169742   5.478   5.405   1.793  1.4033  0.4275 -0.2795
16109TIP3    H269743   5.415   5.276   1.840 -0.3581  1.7383  1.1112
16110TIP3   OH269744   4.758   2.524   2.288  0.1365 -0.0412 -0.7648
16110TIP3    H169745   4.715   2.564   2.212 -0.3354  0.0998 -0.4301
16110TIP3    H269746   4.842   2.494   2.255 -0.2917 -0.4814 -1.4769
16111TIP3   OH269747   0.458   2.440  15.718  0.2056  0.5472 -0.4057
16111TIP3    H169748   0.510   2.466  15.794 -1.0737  1.5563  0.1862
16111TIP3    H269749   0.472   2.346  15.710  1.3109  0.6311  0.3360
16112TIP3   OH269750   6.024   5.804   0.951 -0.1024  0.0680 -0.4495
16112TIP3    H169751   6.043   5.736   1.016  3.3052  0.2137 -1.0818
16112TIP3    H269752   5.943   5.776   0.910  0.3094 -2.7702  0.4288
16113TIP3   OH269753   5.864   1.434   1.678 -0.3897  0.1892 -0.2367
16113TIP3    H169754   5.775   1.421   1.709  0.0726 -0.6541  0.7985
16113TIP3    H269755   5.895   1.347   1.654  0.7434  0.1570  1.1481
16114TIP3   OH269756   4.140   1.198  14.797  0.0879 -0.2098 -0.3479
16114TIP3    H169757   4.169   1.279  14.840  0.3774  0.4752 -1.7854
16114TIP3    H269758   4.054   1.180  14.835  0.3313  0.3672  0.5103
16115TIP3   OH269759   6.679   2.058   3.566  0.6163 -0.0503 -0.0218
16115TIP3    H169760   6.604   2.036   3.511  0.7457  0.2631 -0.3278
16115TIP3    H269761   6.751   2.005   3.530  0.5783 -0.2343  0.1727
16116TIP3   OH269762   0.825   5.682  13.733 -0.7783 -0.0568 -0.5874
16116TIP3    H169763   0.848   5.597  13.696  0.9261  0.5732 -1.0668
16116TIP3    H269764   0.909   5.718  13.763 -1.7615  0.5213  1.6456
16117TIP3   OH269765   2.121   3.127   2.454  0.2458  0.0661 -0.4286
16117TIP3    H169766   2.104   3.113   2.548 -1.5549 -2.4958 -1.0262
16117TIP3    H269767   2.149   3.041   2.422  0.4938  0.8124 -2.3094
16118TIP3   OH269768   6.253   5.120   3.191  0.2195  0.5836  0.1012
16118TIP3    H169769   6.331   5.073   3.162 -0.0203  0.0522  0.2890
16118TIP3    H269770   6.222   5.166   3.114  1.5587  2.0157  0.3906
16119TIP3   OH269771   2.651   0.331  11.572  0.2940  0.0324  0.2884
16119TIP3    H169772   2.686   0.383  11.645 -0.7155  1.2329 -0.0443
16119TIP3    H269773   2.688   0.244  11.585  3.4205  1.1872 -0.0711
16120TIP3   OH269774   6.460   1.299   6.365  0.5383  0.1473  0.2275
16120TIP3    H169775   6.532   1.289   6.427  0.4248 -0.8139  0.2128
16120TIP3    H269776   6.448   1.394   6.358  0.2985  0.2738  1.9603
16121TIP3   OH269777   6.742   4.262  16.663 -0.1702  0.1661  0.5378
16121TIP3    H169778   6.800   4.198  16.624 -0.4184  1.4922 -2.2630
16121TIP3    H269779   6.798   4.312  16.723  1.4428  0.7946 -1.3695
16122TIP3   OH269780   4.239   3.603   4.683  0.3845 -0.0918 -0.1942
16122TIP3    H169781   4.271   3.625   4.771  0.6849  1.4444 -0.6599
16122TIP3    H269782   4.307   3.546   4.646  0.9040  0.3488  0.0757
16123TIP3   OH269783   2.786   6.397   3.190 -0.4006  0.1331 -0.1778
16123TIP3    H169784   2.728   6.329   3.226  0.7061 -0.2913  0.8972
16123TIP3    H269785   2.777   6.470   3.251 -0.8241  0.5858 -0.7739
16124TIP3   OH269786   2.016   3.607  16.611  1.1316  0.6282  0.2632
16124TIP3    H169787   1.962   3.623  16.534  1.4216  0.4436  0.0181
16124TIP3    H269788   2.016   3.690  16.658  1.9236  1.1095 -0.5481
16125TIP3   OH269789   3.573   0.270   5.496  0.0321  0.0372 -0.7335
16125TIP3    H169790   3.557   0.263   5.590 -0.4958  1.0775 -0.7327
16125TIP3    H269791   3.495   0.314   5.462  0.7704  0.7967 -1.4657
16126TIP3   OH269792   5.942   2.985   4.191 -0.5739  0.0739 -0.3176
16126TIP3    H169793   5.982   3.007   4.276  0.9368 -3.3358  0.0217
16126TIP3    H269794   6.009   3.011   4.127 -0.6737  0.4021 -0.2935
16127TIP3   OH269795   4.450   4.829   1.107  0.1450  0.0508  0.4669
16127TIP3    H169796   4.499   4.879   1.042  0.4090 -0.0698  0.5700
16127TIP3    H269797   4.449   4.740   1.073  0.4198 -0.0438  0.7020
16128TIP3   OH269798   0.156   6.714   2.584  0.0790  0.0340 -0.1012
16128TIP3    H169799   0.215   6.779   2.546  1.4058 -0.8388  0.3845
16128TIP3    H269800   0.193   6.694   2.670  0.4742 -2.2345 -0.7123
16129TIP3   OH269801   1.965   5.777   2.124  0.1890  0.7430  0.0091
16129TIP3    H169802   2.032   5.839   2.093  1.4328 -0.5820 -0.0875
16129TIP3    H269803   1.928   5.819   2.202  1.8684  1.0826  0.6692
16130TIP3   OH269804   6.613   4.696   5.620 -0.1439  0.0439  0.2153
16130TIP3    H169805   6.530   4.651   5.608 -1.7600  2.8190  0.0182
16130TIP3    H269806   6.608   4.733   5.709  0.4833  0.9512 -0.1036
16131TIP3   OH269807   2.133   1.903  11.935 -0.4986 -0.5754 -0.7320
16131TIP3    H169808   2.133   1.925  12.028  0.1802  1.2942 -1.1389
16131TIP3    H269809   2.134   1.807  11.933 -1.6400 -0.6815  1.1689
16132TIP3   OH269810   3.888   0.958  16.169 -0.1854  0.2272 -0.3192
16132TIP3    H169811   3.971   0.997  16.197  0.4460  0.3266 -2.2379
16132TIP3    H269812   3.847   0.931  16.251  0.9200  1.7710  0.8174
16133TIP3   OH269813   0.716   0.365  16.290 -0.4604  0.0014 -0.1353
16133TIP3    H169814   0.774   0.437  16.314 -0.8011  0.6255 -1.1551
16133TIP3    H269815   0.653   0.361  16.362  1.3084 -1.2678  1.4608
16134TIP3   OH269816   4.275   4.132   6.128  0.4510  0.1852 -0.0343
16134TIP3    H169817   4.233   4.060   6.174 -0.3416  1.1853  0.8812
16134TIP3    H269818   4.287   4.200   6.195  0.5660  1.1494 -0.9951
16135TIP3   OH269819   5.157   6.265  16.879  0.6145 -0.0847 -0.1145
16135TIP3    H169820   5.161   6.230  16.790 -1.4567  1.2199 -0.7761
16135TIP3    H269821   5.199   6.351  16.873 -1.0743  0.7523 -0.2627
16136TIP3   OH269822   0.137   4.008  16.628  0.0126  0.1319 -0.5235
16136TIP3    H169823   0.204   4.003  16.560 -0.7187  2.4177 -1.5152
16136TIP3    H269824   0.136   3.921  16.668  3.5767  0.0123 -0.3947
16137TIP3   OH269825   4.110   5.865   1.776  0.1967 -0.3125  0.0638
16137TIP3    H169826   4.138   5.776   1.752  0.2070 -0.7955  1.7566
16137TIP3    H269827   4.067   5.854   1.861  1.1903  1.4638  0.8419
16138TIP3   OH269828   0.874   3.857  11.396 -0.1535 -0.2421 -0.0335
16138TIP3    H169829   0.792   3.809  11.392 -0.2379 -0.0541 -0.6653
16138TIP3    H269830   0.930   3.815  11.331  0.3135 -0.4762  0.5108
16139TIP3   OH269831   6.166   4.999   5.038  0.1140  0.0822  0.3163
16139TIP3    H169832   6.144   5.014   4.946 -1.0700 -0.5787  0.4674
16139TIP3    H269833   6.233   5.064   5.058  0.3395  0.2764 -0.9963
16140TIP3   OH269834   3.901   5.300   0.873 -0.2802  0.2061 -0.1398
16140TIP3    H169835   3.994   5.320   0.884 -0.2831  0.1591 -0.0320
16140TIP3    H269836   3.900   5.219   0.821 -0.2721  0.5949 -0.7546
16141TIP3   OH269837   3.035   6.220   6.378  0.3158  0.5092  0.3826
16141TIP3    H169838   3.097   6.210   6.450  0.0929 -2.1337  0.2828
16141TIP3    H269839   2.949   6.224   6.420  0.2141 -0.6673  0.3087
16142TIP3   OH269840   4.930   3.789   1.364 -0.6688  0.3884  0.3855
16142TIP3    H169841   4.878   3.769   1.442 -0.0266  0.2341  0.7849
16142TIP3    H269842   4.957   3.703   1.331 -2.4783  0.3418 -1.1030
16143TIP3   OH269843   0.951   0.840  11.915 -0.0247 -1.0310  0.0614
16143TIP3    H169844   0.906   0.877  11.991 -1.4902 -1.4194 -0.5908
16143TIP3    H269845   0.978   0.917  11.863 -2.6576 -0.7672 -1.0625
16144TIP3   OH269846   6.510   3.406  15.846 -0.0289 -0.2155 -0.5398
16144TIP3    H169847   6.507   3.469  15.918  0.2876  1.4766 -1.9277
16144TIP3    H269848   6.603   3.403  15.821 -0.1553 -0.6549 -0.9737
16145TIP3   OH269849   4.042   2.934   0.465  0.3417  0.2503  0.5343
16145TIP3    H169850   4.055   2.863   0.528  1.8541  0.9910  1.1100
16145TIP3    H269851   4.108   2.999   0.488  0.1806  1.0578 -1.1077
16146TIP3   OH269852   1.554   1.545   4.815 -0.1242  0.2979  0.1790
16146TIP3    H169853   1.549   1.615   4.749  1.0450  1.0267  0.8184
16146TIP3    H269854   1.646   1.520   4.816 -0.8132 -2.8085 -1.5408
16147TIP3   OH269855   2.990   4.970   4.053 -0.4043  0.4970 -0.1030
16147TIP3    H169856   3.028   5.054   4.081 -0.5427  0.4748  0.1557
16147TIP3    H269857   3.048   4.904   4.091 -0.0698  0.4790 -0.6360
16148TIP3   OH269858   1.478   0.417  13.800 -0.2482  0.5524  0.2003
16148TIP3    H169859   1.493   0.414  13.895  0.2174 -1.3815  0.1056
16148TIP3    H269860   1.390   0.383  13.789  0.3940 -1.0946 -0.1518
16149TIP3   OH269861   4.072   6.044   0.354  0.1648 -0.8432  0.3514
16149TIP3    H169862   4.110   5.957   0.361 -0.9280 -1.4446 -0.8169
16149TIP3    H269863   4.087   6.071   0.264 -0.0038 -0.0626  0.5434
16150TIP3   OH269864   5.574   0.061  11.455 -0.4768 -0.1132 -0.2232
16150TIP3    H169865   5.572   0.141  11.402 -0.4229 -0.2742 -0.4701
16150TIP3    H269866   5.558   0.091  11.544  0.0963  0.2417 -0.2351
16151TIP3   OH269867   4.089   4.729   3.575 -0.3031  0.0633  0.2095
16151TIP3    H169868   4.040   4.788   3.519 -0.9028  0.6401  1.3166
16151TIP3    H269869   4.024   4.668   3.609 -0.2785  0.7889  1.6316
16152TIP3   OH269870   1.176   6.457  16.738  0.7681 -0.0421  0.3162
16152TIP3    H169871   1.081   6.464  16.725  0.6140  0.9738  1.7618
16152TIP3    H269872   1.185   6.403  16.816  1.4145 -0.5256 -0.0848
16153TIP3   OH269873   1.129   2.579  16.961 -0.6380  0.4885  0.2030
16153TIP3    H169874   1.047   2.536  16.985 -0.0047 -1.4297 -0.8727
16153TIP3    H269875   1.133   2.575  16.866  0.5733  0.8144  0.2153
16154TIP3   OH269876   4.913   4.807   3.256  0.3365 -0.3960 -0.5048
16154TIP3    H169877   4.907   4.718   3.288 -0.6264  0.4110  1.7464
16154TIP3    H269878   4.828   4.825   3.215  0.0771 -0.1342  0.1389
16155TIP3   OH269879   6.094   1.506   2.385 -0.2115 -0.1814 -0.2120
16155TIP3    H169880   6.130   1.573   2.443  0.3628 -1.6868  1.2741
16155TIP3    H269881   6.054   1.442   2.445 -2.2617 -0.3207 -1.6566
16156TIP3   OH269882   5.943   2.069   3.140  0.2737  0.0601 -0.1644
16156TIP3    H169883   5.981   2.072   3.228 -2.2435  0.1311  1.0249
16156TIP3    H269884   5.929   1.976   3.124  0.7578  0.0460 -0.5201
16157TIP3   OH269885   5.682   4.051  12.185  0.8944  1.3145  0.0505
16157TIP3    H169886   5.612   4.107  12.218  0.6443  0.8398  0.3406
16157TIP3    H269887   5.699   3.990  12.257  0.0251 -0.0405 -0.8476
16158TIP3   OH269888   6.370   3.416   5.626  0.9012 -0.3299  0.4311
16158TIP3    H169889   6.299   3.479   5.638  0.3163 -1.0552  0.8922
16158TIP3    H269890   6.398   3.393   5.715 -0.6361 -2.6103  0.4298
16159TIP3   OH269891   4.013   2.836   3.185  0.3196  0.2236 -0.5225
16159TIP3    H169892   4.085   2.885   3.145 -0.2752  1.9080  0.3736
16159TIP3    H269893   4.050   2.800   3.266  0.9748 -1.5467 -1.5517
16160TIP3   OH269894   2.601   6.591  14.380 -0.0972  0.0088  0.4747
16160TIP3    H169895   2.506   6.579  14.390 -0.3661  1.4888 -0.0346
16160TIP3    H269896   2.626   6.644  14.456  0.2855 -0.1756  0.4765
16161TIP3   OH269897   4.122   4.781  16.488 -0.1616 -0.2419  0.0948
16161TIP3    H169898   4.137   4.755  16.397  1.0065  0.0463  0.1918
16161TIP3    H269899   4.075   4.706  16.526  0.8592 -1.1191 -0.3043
16162TIP3   OH269900   0.710   1.584  14.016 -0.0966  0.6457  0.1069
16162TIP3    H169901   0.663   1.658  13.976 -0.8258  0.7061  1.0464
16162TIP3    H269902   0.697   1.595  14.110  1.0567  0.1446  0.3417
16163TIP3   OH269903   0.393   5.261  14.941 -0.3227  0.6374  0.3090
16163TIP3    H169904   0.329   5.210  14.892 -0.5006  0.6016  0.5793
16163TIP3    H269905   0.348   5.343  14.963 -0.3452  0.5259  0.6807
16164TIP3   OH269906   0.407   5.546   4.644 -0.5989 -0.1585  0.2124
16164TIP3    H169907   0.420   5.639   4.623  0.9365 -0.2505  0.6056
16164TIP3    H269908   0.460   5.532   4.723 -1.9798 -1.0451  1.0205
16165TIP3   OH269909   2.595   1.548   4.431 -0.1281 -0.5802  0.1932
16165TIP3    H169910   2.583   1.490   4.506  0.0919 -2.6020 -1.2428
16165TIP3    H269911   2.615   1.633   4.469 -1.8092 -1.0919  2.4323
16166TIP3   OH269912   0.896   2.155  16.656  0.2956 -0.0362 -0.3582
16166TIP3    H169913   0.982   2.161  16.697  0.1254  0.6702 -0.1062
16166TIP3    H269914   0.902   2.214  16.580 -0.3953  1.0572  0.4182
16167TIP3   OH269915   3.341   1.033  15.698 -0.6933  0.2061  0.2196
16167TIP3    H169916   3.421   0.979  15.704  0.2888  1.3361 -1.6646
16167TIP3    H269917   3.312   1.042  15.789  1.7630  0.3895  1.0797
16168TIP3   OH269918   4.854   3.048  16.278  0.4777  0.0472  0.0778
16168TIP3    H169919   4.912   3.021  16.206  0.2919  1.9516 -0.8460
16168TIP3    H269920   4.772   3.072  16.234  1.0472  3.2941  0.6027
16169TIP3   OH269921   6.179   4.132  14.845  0.1086  0.1694 -0.5110
16169TIP3    H169922   6.265   4.130  14.803  0.4562 -1.5295  0.2095
16169TIP3    H269923   6.197   4.125  14.938 -0.8082  0.1855 -0.3217
16170TIP3   OH269924   0.408   3.693   5.809 -0.5049  0.0880 -0.3459
16170TIP3    H169925   0.436   3.678   5.719 -2.1469  1.1455 -1.0866
16170TIP3    H269926   0.356   3.616   5.830 -0.4260  0.0082 -0.4403
16171TIP3   OH269927   4.610   1.245  16.505  0.2948 -0.7059 -0.0196
16171TIP3    H169928   4.693   1.244  16.458  1.2004  0.7637  1.4449
16171TIP3    H269929   4.544   1.257  16.436  1.5001  0.5074 -1.0236
16172TIP3   OH269930   6.133   0.310   4.546  0.4495 -0.6230 -0.0064
16172TIP3    H169931   6.108   0.370   4.615  1.3449  0.4130 -0.5520
16172TIP3    H269932   6.187   0.244   4.589  3.6760  1.7030 -0.0785
16173TIP3   OH269933   5.230   2.810   1.515 -0.3490  0.5137  0.2217
16173TIP3    H169934   5.269   2.724   1.500  0.0495  0.8597 -0.7617
16173TIP3    H269935   5.236   2.854   1.431 -0.9445  1.3535  0.6084
16174TIP3   OH269936   1.393   2.203   0.796  0.9048 -0.2692 -0.5130
16174TIP3    H169937   1.370   2.296   0.797  0.4710 -0.3252 -2.2678
16174TIP3    H269938   1.329   2.162   0.855  0.6265  0.4291 -0.3168
16175TIP3   OH269939   3.249   0.533   0.958  0.1408  0.2951  0.1916
16175TIP3    H169940   3.218   0.451   0.995  1.7073  0.5705  2.2984
16175TIP3    H269941   3.226   0.599   1.024  0.4825  1.2632 -0.6388
16176TIP3   OH269942   4.131   1.214  14.034  0.2279  0.3780  0.0173
16176TIP3    H169943   4.138   1.119  14.028 -3.8939 -0.1250 -0.3257
16176TIP3    H269944   4.105   1.231  14.124 -0.2721  1.0220 -0.2359
16177TIP3   OH269945   6.646   0.767  16.644 -0.1603 -0.0399 -0.3195
16177TIP3    H169946   6.618   0.853  16.676  1.4180  0.2142  0.4782
16177TIP3    H269947   6.677   0.783  16.555 -1.2353 -0.0832 -0.7181
16178TIP3   OH269948   6.395   1.082   3.017  0.1481  0.6087  0.0473
16178TIP3    H169949   6.406   0.991   3.045 -0.8628  0.5623  0.3342
16178TIP3    H269950   6.462   1.130   3.066  0.1093  0.1432  0.5726
16179TIP3   OH269951   4.345   4.946   1.330  0.2648 -0.4120 -0.1184
16179TIP3    H169952   4.381   4.917   1.246  0.6561 -1.7217  0.4640
16179TIP3    H269953   4.372   4.877   1.392  1.0912  1.1309  1.3352
16180TIP3   OH269954   2.978   0.729   0.370 -0.4033  0.0432 -0.1822
16180TIP3    H169955   3.019   0.724   0.456 -1.5558 -1.2561  0.3147
16180TIP3    H269956   3.039   0.782   0.318  1.0809 -0.4323  0.9925
16181TIP3   OH269957   0.742   1.102  11.225  0.2428 -0.5190 -0.1162
16181TIP3    H169958   0.807   1.149  11.173 -2.5928  0.8957 -2.6777
16181TIP3    H269959   0.767   1.010  11.217  2.4245  0.0273 -0.1510
16182TIP3   OH269960   3.424   2.270  12.718 -0.4592  0.1540 -0.6146
16182TIP3    H169961   3.516   2.247  12.716 -0.8759 -1.6359 -0.7125
16182TIP3    H269962   3.398   2.258  12.810 -0.5827  0.7439 -0.5669
16183TIP3   OH269963   1.110   5.527   5.140  0.1833 -0.4101 -0.2691
16183TIP3    H169964   1.161   5.559   5.214 -2.5354  0.3381  1.3960
16183TIP3    H269965   1.106   5.601   5.079 -2.7136  1.2895  1.7538
16184TIP3   OH269966   0.989   4.575   0.047  0.5704  0.4146  0.5889
16184TIP3    H169967   1.084   4.578   0.036  0.5059  0.1075 -0.1173
16184TIP3    H269968   0.955   4.561  -0.042 -0.1941  1.7308  0.6494
16185TIP3   OH269969   2.956   4.771  17.250 -0.8162 -0.3136 -0.1428
16185TIP3    H169970   3.047   4.797  17.260 -0.4864 -1.2620 -0.6033
16185TIP3    H269971   2.931   4.804  17.164 -0.7748 -0.4358 -0.2015
16186TIP3   OH269972   4.059   4.124  12.420 -0.0791 -0.2042  0.6190
16186TIP3    H169973   3.981   4.164  12.381 -0.5569  0.0084  1.7399
16186TIP3    H269974   4.124   4.194  12.421  0.2224 -0.4576 -0.5595
16187TIP3   OH269975   1.175   3.679  12.261 -0.1205  0.3135 -0.3833
16187TIP3    H169976   1.140   3.599  12.299 -1.1921  0.2774 -1.4001
16187TIP3    H269977   1.113   3.747  12.287  1.3034  1.0347  1.3102
16188TIP3   OH269978   1.767   0.310  16.111  0.0597  0.6366  0.1658
16188TIP3    H169979   1.786   0.333  16.020 -1.3016  1.8811  0.1526
16188TIP3    H269980   1.674   0.330  16.122  0.2118  0.5837  1.8426
16189TIP3   OH269981   5.822   5.908  11.151 -0.2219 -0.4097  0.1491
16189TIP3    H169982   5.815   5.884  11.059 -1.5340 -0.6231  0.2891
16189TIP3    H269983   5.737   5.885  11.189  0.3318 -0.4299  1.4414
16190TIP3   OH269984   0.941   6.327   1.294  0.4347 -0.4320 -0.2806
16190TIP3    H169985   0.963   6.237   1.270 -1.2314 -1.3462  1.3685
16190TIP3    H269986   0.859   6.345   1.247 -1.3309 -1.2377  2.3079
16191TIP3   OH269987   4.845   1.968  12.358 -0.2468  0.7396 -0.1958
16191TIP3    H169988   4.906   1.895  12.359  1.1375  1.8450  0.1173
16191TIP3    H269989   4.835   1.991  12.266 -1.7025 -0.6182 -0.4090
16192TIP3   OH269990   6.040   5.390   5.264  0.7749  0.5232  0.5628
16192TIP3    H169991   5.988   5.431   5.195  0.3773  1.0042  1.1438
16192TIP3    H269992   6.130   5.412   5.242  1.0540 -2.2281 -1.7742
16193TIP3   OH269993   2.313   5.050  11.482  0.0012 -0.5390 -0.3575
16193TIP3    H169994   2.379   5.041  11.552  1.2635 -1.0315 -1.5717
16193TIP3    H269995   2.230   5.026  11.524  1.0003 -2.7423  0.5164
16194TIP3   OH269996   0.561   4.881  16.289  0.6067  0.5905  0.3047
16194TIP3    H169997   0.639   4.917  16.332 -0.2127  1.4229  1.1500
16194TIP3    H269998   0.515   4.958  16.255 -1.0064  0.3860  1.8574
16195TIP3   OH269999   3.064   2.101  14.384  0.2625  0.3867  0.6446
16195TIP3    H170000   3.101   2.136  14.303  1.2980 -0.0991  0.8967
16195TIP3    H270001   2.977   2.141  14.389  0.1818  0.4392 -0.6885
16196TIP3   OH270002   6.315   6.281   3.413  0.2292  0.2083 -0.2186
16196TIP3    H170003   6.247   6.296   3.478 -0.1652  1.2004 -0.8334
16196TIP3    H270004   6.384   6.344   3.434  0.5337 -0.1189 -0.2020
16197TIP3   OH270005   5.033   3.183  15.536  0.6274  0.8038 -0.5660
16197TIP3    H170006   5.014   3.116  15.471 -0.9876  0.1236  0.5652
16197TIP3    H270007   5.007   3.265  15.494  0.9924  0.5457 -1.3087
16198TIP3   OH270008   5.118   3.650   1.201 -0.3817 -0.5126 -0.2915
16198TIP3    H170009   5.117   3.578   1.263  0.4115  0.6139  1.1021
16198TIP3    H270010   5.187   3.627   1.138 -0.4252 -1.1488 -0.1069
16199TIP3   OH270011   1.956   0.391   6.531 -0.6413  0.1527 -0.0808
16199TIP3    H170012   2.048   0.380   6.552 -1.3444 -0.7473  3.2124
16199TIP3    H270013   1.935   0.478   6.565 -1.0439  0.2997 -0.6939
16200TIP3   OH270014   4.336   3.891   2.921  0.4498  0.0253  0.1233
16200TIP3    H170015   4.367   3.933   2.840 -0.7631  1.0992  0.1806
16200TIP3    H270016   4.398   3.918   2.988  1.3818 -0.7492 -0.3960
16201TIP3   OH270017   3.992   1.536  14.424 -0.1480 -0.0612 -0.1616
16201TIP3    H170018   4.006   1.496  14.511  2.9859  0.6005 -0.2365
16201TIP3    H270019   3.906   1.504  14.397 -1.9458  0.8564  3.7654
16202TIP3   OH270020   1.609   1.174  12.336  0.3679 -0.0314 -0.5420
16202TIP3    H170021   1.636   1.085  12.361 -1.0577 -0.1930  0.5389
16202TIP3    H270022   1.688   1.214  12.300  1.0379 -1.7368 -1.0560
16203TIP3   OH270023   4.334   5.954   3.377 -0.1877  0.1469  0.3204
16203TIP3    H170024   4.409   5.896   3.365 -1.7290 -1.8180 -0.3766
16203TIP3    H270025   4.292   5.957   3.292 -0.9814  1.1237  0.7281
16204TIP3   OH270026   0.170   6.378   2.877  0.1416  0.0937 -0.6994
16204TIP3    H170027   0.238   6.375   2.944  1.1341  0.7956 -1.6327
16204TIP3    H270028   0.161   6.288   2.847  0.2950 -0.0875 -0.2010
16205TIP3   OH270029   5.907   0.700  14.056 -0.0148 -0.2591 -0.3009
16205TIP3    H170030   5.921   0.791  14.080  0.9284 -0.2303 -0.8926
16205TIP3    H270031   5.864   0.704  13.970 -1.0315 -0.3720  0.1941
16206TIP3   OH270032   6.047   3.546   2.678 -0.3167  0.4314  0.0066
16206TIP3    H170033   5.961   3.546   2.636 -0.9792 -0.1240  1.3297
16206TIP3    H270034   6.109   3.551   2.604 -1.4024 -1.5661 -1.1467
16207TIP3   OH270035   0.473   5.857   6.271  0.2889  0.3285 -0.0737
16207TIP3    H170036   0.398   5.856   6.213  1.7100 -1.0440 -2.0051
16207TIP3    H270037   0.540   5.805   6.226  1.0386 -2.0630  3.4206
16208TIP3   OH270038   0.832   2.697   3.163  0.5284 -0.1784  0.3297
16208TIP3    H170039   0.781   2.624   3.127  2.5903 -2.2808  1.3974
16208TIP3    H270040   0.782   2.727   3.238 -0.5464 -0.1894 -0.3563
16209TIP3   OH270041   1.514   2.813   1.492 -0.1399  0.5030 -0.5559
16209TIP3    H170042   1.558   2.766   1.563 -1.1006  0.1754 -0.1678
16209TIP3    H270043   1.527   2.905   1.512  0.6252  0.4211 -0.6146
16210TIP3   OH270044   1.137   2.654  16.687  0.1177 -0.2937  0.0947
16210TIP3    H170045   1.118   2.740  16.725 -1.0852 -0.1601 -0.7478
16210TIP3    H270046   1.077   2.646  16.613 -0.0426 -2.0025  0.3486
16211TIP3   OH270047   5.523   4.212   0.638 -0.0969 -0.4296  0.2226
16211TIP3    H170048   5.537   4.265   0.716  0.3500 -1.3013  0.7537
16211TIP3    H270049   5.428   4.204   0.632 -0.1968  0.7877 -0.1324
16212TIP3   OH270050   6.687   2.470   5.839 -0.3795  0.0325 -0.1001
16212TIP3    H170051   6.706   2.376   5.848  1.4091  0.1013 -2.2328
16212TIP3    H270052   6.596   2.473   5.810 -0.4749 -1.0434  0.0400
16213TIP3   OH270053   6.189   5.475  16.992  0.1099 -0.2233  0.2169
16213TIP3    H170054   6.146   5.558  17.015  2.7066  1.5123 -0.6863
16213TIP3    H270055   6.240   5.452  17.069 -0.2296 -0.7410  0.2915
16214TIP3   OH270056   4.293   3.035   5.307  0.4349 -0.1860  0.2903
16214TIP3    H170057   4.289   2.939   5.307  1.2912 -0.2446 -1.2101
16214TIP3    H270058   4.268   3.059   5.397  0.2478 -1.8018  0.7151
16215TIP3   OH270059   6.342   2.021   6.440  0.4027 -0.2855  0.0030
16215TIP3    H170060   6.389   2.093   6.482 -2.5359  1.5534  0.5172
16215TIP3    H270061   6.344   2.042   6.347 -1.3931  1.2131  0.2450
16216TIP3   OH270062   3.441   2.761  12.934 -0.2547  0.0612  0.1563
16216TIP3    H170063   3.395   2.755  13.017  0.4227 -0.2012  0.5213
16216TIP3    H270064   3.473   2.672  12.918  0.1722  0.2495 -0.0553
16217TIP3   OH270065   0.694   5.532  12.631 -0.0172  0.2262 -0.0681
16217TIP3    H170066   0.638   5.606  12.652 -0.5913  0.1329 -1.2228
16217TIP3    H270067   0.723   5.500  12.717 -1.8355  0.1868  0.5918
16218TIP3   OH270068   0.243   1.423   5.647  0.0414 -0.4332  0.6984
16218TIP3    H170069   0.171   1.479   5.618 -0.3159 -0.5770  1.2852
16218TIP3    H270070   0.240   1.347   5.588  1.0247  0.4889 -0.6224
16219TIP3   OH270071   4.808   4.454   4.525  0.2273  0.1058 -0.0802
16219TIP3    H170072   4.843   4.398   4.594 -1.6013  0.1307  0.9347
16219TIP3    H270073   4.801   4.397   4.448 -0.4142 -0.7348  0.5855
16220TIP3   OH270074   6.426   0.464   0.793  0.4367 -0.2609 -0.2395
16220TIP3    H170075   6.398   0.405   0.723 -2.1286 -1.7014  1.7972
16220TIP3    H270076   6.381   0.546   0.773  0.1871 -0.4829 -0.6106
16221TIP3   OH270077   3.793   3.473   2.105 -0.4393  0.1062 -0.5365
16221TIP3    H170078   3.809   3.399   2.162  2.2644  0.5654 -0.5458
16221TIP3    H270079   3.857   3.462   2.034 -1.6808  1.1319 -1.8668
16222TIP3   OH270080   3.620   3.079   5.844  1.0097 -0.6171  0.1160
16222TIP3    H170081   3.700   3.108   5.888  2.3087 -0.3636 -2.2351
16222TIP3    H270082   3.647   3.064   5.753 -1.8213  0.4347 -1.0107
16223TIP3   OH270083   4.331   1.645   6.439  0.0296 -0.2205  0.0474
16223TIP3    H170084   4.250   1.611   6.477  0.2526  0.6171  1.3028
16223TIP3    H270085   4.397   1.579   6.460  0.3398  0.6488  1.9695
16224TIP3   OH270086   3.693   2.382   0.183  0.0518  0.5912  0.0557
16224TIP3    H170087   3.693   2.360   0.276  1.5735  0.5586  0.0684
16224TIP3    H270088   3.643   2.463   0.177 -0.8324  0.1194  0.7635
16225TIP3   OH270089   4.438   3.737   4.528 -0.3854 -0.3073 -0.0346
16225TIP3    H170090   4.355   3.756   4.572 -0.6232  1.3007 -1.0935
16225TIP3    H270091   4.437   3.792   4.450  0.7179 -1.9026 -1.2470
16226TIP3   OH270092   4.685   2.171  13.139  0.2576  0.6840  0.3541
16226TIP3    H170093   4.646   2.159  13.226  0.0807 -1.0773  0.0665
16226TIP3    H270094   4.768   2.215  13.156  1.3076 -1.6399  1.7102
16227TIP3   OH270095   4.716   1.625  15.376  0.1622  0.5420  0.5939
16227TIP3    H170096   4.668   1.584  15.448  0.8941 -0.6951  0.3985
16227TIP3    H270097   4.799   1.653  15.415  1.0711 -1.2050  0.0162
16228TIP3   OH270098   6.085   6.016  16.295 -0.0481 -0.5036  0.0907
16228TIP3    H170099   6.129   6.096  16.265  2.3568 -1.2966  1.2407
16228TIP3    H270100   6.120   5.947  16.240 -1.5893 -0.8879 -0.4360
16229TIP3   OH270101   2.897   2.767  13.715  0.4336 -0.1573 -0.6427
16229TIP3    H170102   2.919   2.675  13.700 -0.7430 -0.2962 -1.6996
16229TIP3    H270103   2.836   2.765  13.789 -0.2954 -0.3340 -1.2374
16230TIP3   OH270104   3.066   2.400  16.992  0.4310 -0.4679  0.4393
16230TIP3    H170105   3.126   2.335  16.957  0.3272 -0.3452  0.0301
16230TIP3    H270106   3.091   2.409  17.084  2.2307  0.9254 -0.1345
16231TIP3   OH270107   1.610   0.941   6.157 -0.3169  0.0076  0.1799
16231TIP3    H170108   1.676   0.879   6.188 -0.2895  0.9290  2.1005
16231TIP3    H270109   1.537   0.886   6.129  0.6555 -0.9664 -0.5521
16232TIP3   OH270110   3.011   3.756  15.496  0.0651  0.2673 -0.0943
16232TIP3    H170111   2.954   3.709  15.556  0.9619 -0.1031  0.4925
16232TIP3    H270112   2.953   3.788  15.427 -0.6850 -1.0903 -0.1280
16233TIP3   OH270113   4.409   2.159  17.319 -0.0184 -0.0374  0.0909
16233TIP3    H170114   4.342   2.194  17.261  0.3966  1.9866  0.7616
16233TIP3    H270115   4.410   2.065  17.301 -2.4726 -0.0105 -0.4918
16234TIP3   OH270116   6.158   6.560  11.314  0.2547 -0.4886 -0.5410
16234TIP3    H170117   6.211   6.639  11.321  0.5609 -0.7247 -0.1458
16234TIP3    H270118   6.090   6.582  11.250  0.8492 -0.1880 -1.0799
16235TIP3   OH270119   5.615   4.114  11.926  0.4540 -0.6918 -0.1333
16235TIP3    H170120   5.631   4.074  12.012  0.6011  2.5745  1.5276
16235TIP3    H270121   5.531   4.159  11.936  0.1616 -0.7570 -1.9511
16236TIP3   OH270122   2.663   6.652   4.182  0.1319  0.6416  0.0096
16236TIP3    H170123   2.751   6.672   4.152  0.8733  1.1626  2.2829
16236TIP3    H270124   2.675   6.620   4.272 -1.9367  0.1289  0.1611
16237TIP3   OH270125   6.204   5.338  14.394  0.5978  0.5495  0.1104
16237TIP3    H170126   6.257   5.280  14.448 -1.0037 -0.1593  0.9685
16237TIP3    H270127   6.154   5.390  14.456 -0.9225  0.0665 -0.6765
16238TIP3   OH270128   6.201   2.889   1.056  0.1012  0.0667  0.3182
16238TIP3    H170129   6.147   2.879   1.134  2.0136 -0.0960  1.6733
16238TIP3    H270130   6.216   2.800   1.025  0.7177  0.0060  0.7678
16239TIP3   OH270131   1.419   4.694   5.838  0.4673  0.8505  0.5205
16239TIP3    H170132   1.405   4.633   5.911 -0.1762  0.0307 -0.2614
16239TIP3    H270133   1.392   4.645   5.761  0.5663  1.9173 -0.2101
16240TIP3   OH270134   4.342   5.354  16.290  0.3263  0.1435  0.0854
16240TIP3    H170135   4.389   5.298  16.229 -1.0551 -1.0992  0.0812
16240TIP3    H270136   4.299   5.419  16.235 -1.6987 -1.5410 -0.4829
16241TIP3   OH270137   6.023   6.145  14.941  0.1283  0.1594  0.0545
16241TIP3    H170138   6.000   6.054  14.960 -2.9388  0.7799 -0.1625
16241TIP3    H270139   6.006   6.192  15.023 -0.2071  0.8042 -0.3703
16242TIP3   OH270140   1.088   1.710  11.535  0.5607 -0.0680 -0.0514
16242TIP3    H170141   1.005   1.735  11.575 -0.2420 -2.1649 -0.2888
16242TIP3    H270142   1.150   1.704  11.607  0.4004  1.0477  0.1882
16243TIP3   OH270143   3.268   5.665   1.100  0.0995  0.4493  0.0033
16243TIP3    H170144   3.238   5.655   1.190 -0.0023 -1.4467 -0.1953
16243TIP3    H270145   3.301   5.579   1.077 -0.2868  0.7807 -1.9243
16244TIP3   OH270146   5.021   3.897   2.485  0.5417 -0.1549  0.0735
16244TIP3    H170147   4.974   3.864   2.408 -0.4592 -2.4105  1.5561
16244TIP3    H270148   5.110   3.911   2.454 -0.0021 -0.2654 -1.6714
16245TIP3   OH270149   4.383   6.605  11.190  0.1607 -0.0400  0.0850
16245TIP3    H170150   4.396   6.662  11.114  1.2189 -0.0384  0.2621
16245TIP3    H270151   4.439   6.530  11.173  0.9298  0.2697  1.1859
16246TIP3   OH270152   2.323   0.983   4.124  0.2553 -0.7408 -0.4169
16246TIP3    H170153   2.404   0.963   4.171  1.6642  2.2165 -1.3189
16246TIP3    H270154   2.310   0.907   4.066  1.8307 -1.7137  0.4194
16247TIP3   OH270155   2.997   5.350  14.300  0.2135 -0.0775 -0.3886
16247TIP3    H170156   2.941   5.386  14.369  0.6909  0.7406 -0.4199
16247TIP3    H270157   2.952   5.270  14.273 -1.1689  0.7631 -0.6953
16248TIP3   OH270158   4.564   6.153   2.152  0.1979 -0.1155  0.0355
16248TIP3    H170159   4.576   6.201   2.070  1.0336  0.9497  0.7589
16248TIP3    H270160   4.640   6.176   2.205 -0.9385  0.2052  1.5979
16249TIP3   OH270161   4.165   5.232   3.752 -0.0400 -0.0774  0.0135
16249TIP3    H170162   4.202   5.275   3.829 -1.0281  0.5942  0.1389
16249TIP3    H270163   4.218   5.264   3.679 -0.3851  0.9172  0.1786
16250TIP3   OH270164   1.069   4.819   3.440  0.0675 -0.1777  0.5662
16250TIP3    H170165   1.042   4.906   3.410 -1.8275 -1.3170 -1.3583
16250TIP3    H270166   1.101   4.776   3.361  0.1397 -1.5058  1.3002
16251TIP3   OH270167   5.277   4.772  16.348  0.1673 -0.3491 -0.3618
16251TIP3    H170168   5.198   4.827  16.347  0.3790 -0.0431 -0.3139
16251TIP3    H270169   5.315   4.786  16.434 -0.0542 -0.9752 -0.1558
16252TIP3   OH270170   6.206   5.792  11.755  0.2443 -0.3127  0.3935
16252TIP3    H170171   6.216   5.851  11.680  0.3866  1.0869  1.4759
16252TIP3    H270172   6.154   5.842  11.818  0.5714 -1.2546  1.4448
16253TIP3   OH270173   1.376   0.414   5.486 -0.6785  0.4454  0.1935
16253TIP3    H170174   1.388   0.394   5.393  0.6567  0.2267  0.3851
16253TIP3    H270175   1.389   0.509   5.492 -1.5218  0.5707  0.0519
16254TIP3   OH270176   3.932   5.467   0.226 -0.6238  0.2127 -0.0265
16254TIP3    H170177   4.005   5.458   0.287 -0.8833  2.6780  0.7912
16254TIP3    H270178   3.880   5.387   0.239  0.3180 -0.1827  1.6379
16255TIP3   OH270179   3.525   0.386  14.656  0.2148  0.2688  0.1871
16255TIP3    H170180   3.617   0.373  14.632  0.1318  1.5712 -0.9306
16255TIP3    H270181   3.475   0.354  14.581 -0.2051  0.5859  0.3244
16256TIP3   OH270182   4.495   2.803   1.095  0.3143 -0.1629  0.2693
16256TIP3    H170183   4.519   2.712   1.076  2.4044  0.4078 -0.0373
16256TIP3    H270184   4.560   2.855   1.048 -1.4094  1.5386 -0.3441
16257TIP3   OH270185   5.205   6.251  12.569 -0.0505  0.7021 -0.2101
16257TIP3    H170186   5.192   6.311  12.495 -0.4096 -0.8547 -1.4692
16257TIP3    H270187   5.215   6.165  12.528 -1.3578 -0.3849  1.6205
16258TIP3   OH270188   4.467   4.302  14.704  0.3521  0.7902 -0.3181
16258TIP3    H170189   4.422   4.242  14.764 -0.0090  0.7633 -0.6134
16258TIP3    H270190   4.396   4.352  14.663  0.5068 -0.0030 -1.5914
16259TIP3   OH270191   3.364   5.777  12.284 -0.1435 -0.0158 -0.6203
16259TIP3    H170192   3.413   5.695  12.279 -3.2054 -1.9520 -1.4060
16259TIP3    H270193   3.352   5.804  12.193 -1.8499 -0.5186 -0.5884
16260TIP3   OH270194   0.795   0.625   3.323 -0.0765 -0.0331  0.0507
16260TIP3    H170195   0.795   0.620   3.418 -0.2966  1.6825  0.1709
16260TIP3    H270196   0.730   0.560   3.295 -0.1568 -0.3990  1.0787
16261TIP3   OH270197   6.098   2.645   2.097  0.3752  0.3739  0.2994
16261TIP3    H170198   6.076   2.556   2.125 -0.3990  0.6691  0.6614
16261TIP3    H270199   6.025   2.671   2.042  0.9425  0.5345 -0.3920
16262TIP3   OH270200   5.286   2.600  11.082  0.1266  0.0496  0.0098
16262TIP3    H170201   5.311   2.600  11.174 -0.0664 -0.4217  0.0634
16262TIP3    H270202   5.368   2.615  11.034 -0.1275  3.1027  0.3393
16263TIP3   OH270203   5.258   3.766  15.149 -0.2073  0.0368 -0.1769
16263TIP3    H170204   5.218   3.835  15.202 -0.4192 -0.4016  0.2415
16263TIP3    H270205   5.350   3.767  15.175 -0.3566 -0.3306  0.3722
16264TIP3   OH270206   2.137   1.729   1.927 -0.2905 -0.4861 -0.2155
16264TIP3    H170207   2.232   1.740   1.916 -0.1738 -1.3033 -0.1028
16264TIP3    H270208   2.098   1.780   1.855  0.2256 -0.0855 -0.2185
16265TIP3   OH270209   4.807   6.412  14.743 -0.1304  0.0529  0.1881
16265TIP3    H170210   4.818   6.491  14.690 -0.8289 -0.5259 -0.8556
16265TIP3    H270211   4.830   6.340  14.684 -0.3942 -0.5776  0.8403
16266TIP3   OH270212   5.215   2.016   0.118 -0.3643 -0.3785  0.0915
16266TIP3    H170213   5.309   2.034   0.119 -0.6118  1.0594 -0.1163
16266TIP3    H270214   5.203   1.955   0.045  0.4129 -0.5793  0.1267
16267TIP3   OH270215   4.940   2.694  11.086 -0.0366 -0.0643 -0.2990
16267TIP3    H170216   4.886   2.727  11.014  0.2981  2.3811  0.4769
16267TIP3    H270217   4.959   2.772  11.139  1.6322 -1.3989  1.1743
16268TIP3   OH270218   2.125   1.887   2.440  0.2926 -0.4023 -0.5112
16268TIP3    H170219   2.181   1.882   2.363  0.2722  2.5466 -0.8449
16268TIP3    H270220   2.186   1.894   2.513  0.3752  0.5194 -0.6553
16269TIP3   OH270221   6.373   1.180  13.258  0.3194 -0.3965 -0.4886
16269TIP3    H170222   6.292   1.133  13.280 -1.1676  1.1967 -2.1733
16269TIP3    H270223   6.404   1.139  13.178  0.1467  0.1540 -0.8429
16270TIP3   OH270224   6.083   5.791  13.728 -0.2124  0.4377 -0.5085
16270TIP3    H170225   6.085   5.874  13.777 -0.0559 -0.9899  2.0911
16270TIP3    H270226   6.172   5.779  13.696  0.5601 -0.0736  1.6651
16271TIP3   OH270227   6.091   2.631  17.319 -0.3901 -0.4257  0.1766
16271TIP3    H170228   6.011   2.670  17.354  0.5082  3.4543 -1.4879
16271TIP3    H270229   6.069   2.608  17.229 -0.0742 -0.9028  0.2201
16272TIP3   OH270230   0.987   6.760  16.408 -0.6398  0.7822  0.0998
16272TIP3    H170231   1.056   6.791  16.467  0.0873  0.8554 -0.7620
16272TIP3    H270232   0.944   6.839  16.377  0.3265  0.9095 -1.0351
16273TIP3   OH270233   3.388   2.470  10.783  0.6771  0.5892  0.1117
16273TIP3    H170234   3.381   2.376  10.765 -0.8048  0.4655  1.1908
16273TIP3    H270235   3.320   2.510  10.730 -0.1965  0.7886  1.3516
16274TIP3   OH270236   2.334   1.902  10.886 -0.4463  0.2081 -0.5016
16274TIP3    H170237   2.410   1.902  10.828  0.3315 -0.9580  0.4710
16274TIP3    H270238   2.269   1.848  10.841  0.5981 -1.7311  0.2134
16275TIP3   OH270239   4.314   3.674  15.918 -0.2093 -0.4770 -0.1695
16275TIP3    H170240   4.359   3.657  16.000 -0.4044 -1.4618 -0.2542
16275TIP3    H270241   4.296   3.768  15.920  0.4415 -0.3556  0.5703
16276TIP3   OH270242   4.113   4.584  13.789 -0.0927 -0.1053 -0.1828
16276TIP3    H170243   4.092   4.675  13.765 -1.9217 -0.4268  0.0525
16276TIP3    H270244   4.050   4.563  13.858  0.3473 -1.5462 -0.2067
16277TIP3   OH270245   3.202   3.427   5.087  0.5335 -0.2848  0.2801
16277TIP3    H170246   3.135   3.487   5.055 -0.4311 -1.6679 -0.3937
16277TIP3    H270247   3.160   3.382   5.160  1.2539 -0.1348  0.7941
16278TIP3   OH270248   3.297   1.634  13.491  0.6366  0.5181 -0.5233
16278TIP3    H170249   3.269   1.648  13.582 -0.3389 -0.5842 -0.6292
16278TIP3    H270250   3.359   1.704  13.474 -0.2035  1.5695  0.5529
16279TIP3   OH270251   6.039   0.618  13.432 -0.4320 -0.2271 -0.1946
16279TIP3    H170252   6.086   0.587  13.355 -1.2943  0.0859 -0.8623
16279TIP3    H270253   6.103   0.671  13.479  0.2310 -0.7770 -0.4609
16280TIP3   OH270254   6.528   4.733  12.768  0.0206 -0.1797  0.2766
16280TIP3    H170255   6.480   4.759  12.689  0.4824 -0.8732 -0.2561
16280TIP3    H270256   6.462   4.728  12.836 -0.6267 -0.8304 -0.3738
16281TIP3   OH270257   3.954   4.159  12.797 -0.6706  0.4355 -0.2925
16281TIP3    H170258   3.917   4.116  12.874 -1.7681 -0.6395 -1.3543
16281TIP3    H270259   4.015   4.224  12.832 -0.2028 -0.8520  1.4408
16282TIP3   OH270260   3.632   1.291   0.836 -0.6632 -0.0043 -0.4878
16282TIP3    H170261   3.549   1.314   0.794  0.4143  0.7306 -2.3283
16282TIP3    H270262   3.634   1.195   0.833 -1.5732 -0.0444 -0.1386
16283TIP3   OH270263   3.023   1.536   1.116 -0.1718 -0.0146 -0.4664
16283TIP3    H170264   2.989   1.472   1.179 -0.6052  0.9034  0.2617
16283TIP3    H270265   3.094   1.491   1.072 -1.0691 -1.3253 -0.6347
16284TIP3   OH270266   0.479   2.311   0.824 -0.0056  0.5457 -0.1473
16284TIP3    H170267   0.414   2.289   0.758  0.7474  1.0798 -1.0950
16284TIP3    H270268   0.433   2.302   0.908 -0.9126 -0.3472 -0.7213
16285TIP3   OH270269   0.685   2.085   3.199 -0.1442  0.7122  0.4600
16285TIP3    H170270   0.676   2.036   3.281  0.6059 -1.6768 -0.7615
16285TIP3    H270271   0.595   2.100   3.170 -0.4181  1.6245  1.7008
16286TIP3   OH270272   4.951   5.127  13.237  0.5557  0.0411 -0.6023
16286TIP3    H170273   4.904   5.205  13.267 -0.6095 -0.9944  0.3946
16286TIP3    H270274   5.037   5.159  13.211  1.2684  1.2510  2.7547
16287TIP3   OH270275   0.423   5.795   0.725 -0.3316  0.0620 -0.3561
16287TIP3    H170276   0.372   5.726   0.682 -0.6596  0.2224 -0.2301
16287TIP3    H270277   0.506   5.754   0.748 -0.5568 -0.3112 -0.2068
16288TIP3   OH270278   5.710   2.170  16.287  0.0212 -0.2401  0.1102
16288TIP3    H170279   5.729   2.222  16.366  0.6293  0.4141 -0.4503
16288TIP3    H270280   5.738   2.082  16.310 -0.9940 -0.3401  1.0677
16289TIP3   OH270281   1.188   0.052  12.779 -0.5597  0.1795 -0.3205
16289TIP3    H170282   1.138  -0.029  12.790 -0.3770  0.0656 -0.3240
16289TIP3    H270283   1.256   0.048  12.846  0.9043 -0.7807 -1.7647
16290TIP3   OH270284   3.558   3.764   5.505  0.5382  0.1294 -0.7235
16290TIP3    H170285   3.619   3.707   5.551  0.0378 -0.0113 -0.2299
16290TIP3    H270286   3.511   3.810   5.574 -0.1918 -0.0605 -1.0782
16291TIP3   OH270287   5.705   6.000   0.687  0.3888  0.9425 -0.3228
16291TIP3    H170288   5.653   5.976   0.764 -0.9843  1.7583 -0.9477
16291TIP3    H270289   5.697   6.095   0.682 -1.0308  0.7646 -2.4420
16292TIP3   OH270290   3.540   1.894  11.927  0.6407  0.0441 -0.4588
16292TIP3    H170291   3.589   1.922  12.004 -1.2500  1.1915  0.3842
16292TIP3    H270292   3.607   1.857  11.869  2.3964  0.9313  0.8901
16293TIP3   OH270293   0.288   4.856   0.414  0.8715  0.0141  0.4049
16293TIP3    H170294   0.370   4.898   0.391  0.9168 -0.2719  0.0367
16293TIP3    H270295   0.294   4.840   0.508  0.6534  1.2588  0.6460
16294TIP3   OH270296   6.294   2.852   3.943 -0.1833  0.3165  0.7269
16294TIP3    H170297   6.365   2.832   4.004 -0.2877 -0.2233  0.6737
16294TIP3    H270298   6.331   2.834   3.857 -0.2991  0.2844  0.6837
16295TIP3   OH270299   2.148   0.118  17.099 -0.1919 -0.2030  0.3742
16295TIP3    H170300   2.192   0.076  17.172 -0.1804  0.8653  1.0004
16295TIP3    H270301   2.070   0.064  17.084 -1.2873  0.6517  2.5150
16296TIP3   OH270302   6.197   6.667  16.983  0.1907 -0.7065 -0.2752
16296TIP3    H170303   6.162   6.637  17.066  0.9254 -0.1312  0.2630
16296TIP3    H270304   6.126   6.654  16.920 -1.3237  1.2274  0.9274
16297TIP3   OH270305   2.623   0.943   5.324 -0.3892 -0.1221  0.1696
16297TIP3    H170306   2.565   0.871   5.297  1.0846 -1.0849 -0.5777
16297TIP3    H270307   2.568   0.999   5.377 -2.0646 -0.8848 -0.6741
16298TIP3   OH270308   1.759   5.189  13.045  0.1745 -0.3507 -0.1800
16298TIP3    H170309   1.790   5.276  13.019 -0.3667 -0.5628 -1.6408
16298TIP3    H270310   1.837   5.144  13.077 -0.0689  1.7762  4.1188
16299TIP3   OH270311   2.825   3.570  16.581 -0.3545  0.1258  0.4374
16299TIP3    H170312   2.894   3.572  16.646  0.7339 -0.6046 -0.6546
16299TIP3    H270313   2.850   3.637  16.518 -0.9938  0.3052  0.3699
16300TIP3   OH270314   3.843   3.708  13.328 -0.2396 -0.6651  0.0203
16300TIP3    H170315   3.755   3.746  13.325 -0.0310 -0.1797 -0.1221
16300TIP3    H270316   3.901   3.779  13.299  0.1546 -1.1181 -0.3353
16301TIP3   OH270317   1.924   1.232   1.548  0.1851 -0.3580  0.1499
16301TIP3    H170318   1.930   1.299   1.480  1.6899 -0.4669  0.1392
16301TIP3    H270319   1.902   1.280   1.628  2.4487  0.3821  0.3994
16302TIP3   OH270320   5.600   5.177  15.433  0.1464 -0.1502  0.4451
16302TIP3    H170321   5.520   5.216  15.469 -0.6382 -1.8506  0.6500
16302TIP3    H270322   5.569   5.101  15.383  1.5140  0.1209 -0.8859
16303TIP3   OH270323   5.552   4.452   4.158 -0.5432  1.0195  1.0262
16303TIP3    H170324   5.478   4.460   4.099  0.0627 -1.4001 -0.1982
16303TIP3    H270325   5.622   4.502   4.117 -0.3049 -0.1504 -0.0325
16304TIP3   OH270326   1.859   5.148   4.822  0.7206  0.3859  0.1088
16304TIP3    H170327   1.816   5.233   4.826 -0.0323  0.5912 -5.3497
16304TIP3    H270328   1.787   5.086   4.809  1.5232 -0.6438  0.4404
16305TIP3   OH270329   2.359   1.905   0.588  0.4417  0.7469 -0.1840
16305TIP3    H170330   2.415   1.872   0.659  1.7461 -0.5521 -1.7361
16305TIP3    H270331   2.274   1.919   0.629  0.7577 -1.3832  1.3311
16306TIP3   OH270332   4.122   5.274  13.403 -0.2281  0.0900 -0.1043
16306TIP3    H170333   4.138   5.365  13.428  1.2582 -0.0987 -0.2339
16306TIP3    H270334   4.038   5.252  13.443  0.0023  1.1305  1.0241
16307TIP3   OH270335   0.552   6.359  13.598  0.3949  0.4364  0.3454
16307TIP3    H170336   0.498   6.436  13.613 -1.0489 -0.1978 -1.2471
16307TIP3    H270337   0.503   6.287  13.639  0.5483  0.0170 -0.1890
16308TIP3   OH270338   0.591   1.367  14.774 -0.0212 -0.4229  0.5684
16308TIP3    H170339   0.636   1.284  14.761 -2.2684 -1.3990 -1.7490
16308TIP3    H270340   0.649   1.432  14.734  1.0549 -1.0294  1.0866
16309TIP3   OH270341   3.452   2.313   2.342 -0.0772 -0.2641 -0.2961
16309TIP3    H170342   3.440   2.343   2.432 -0.7191  0.1467 -0.5142
16309TIP3    H270343   3.509   2.236   2.350 -1.3905 -1.1930  0.6299
16310TIP3   OH270344   4.365   3.506  15.694 -0.1640  0.1672 -0.1210
16310TIP3    H170345   4.327   3.535  15.777  2.5371  0.9283  0.9306
16310TIP3    H270346   4.389   3.587  15.649  1.0221 -0.2970 -0.3389
16311TIP3   OH270347   0.558   3.508   2.060  0.0302 -0.1299 -0.2587
16311TIP3    H170348   0.593   3.487   2.146 -0.4385 -0.3864 -0.1277
16311TIP3    H270349   0.614   3.460   1.999  1.9464  1.9836 -0.3064
16312TIP3   OH270350   4.810   3.071   6.505 -0.2185 -0.3067  0.0598
16312TIP3    H170351   4.752   3.085   6.580 -0.2993  0.1698 -0.0834
16312TIP3    H270352   4.755   3.029   6.439  0.4121 -2.8553  1.0398
16313TIP3   OH270353   6.429   3.325   0.389  0.0472 -0.1281  0.5491
16313TIP3    H170354   6.504   3.292   0.339 -0.0251 -1.3244  1.1804
16313TIP3    H270355   6.382   3.246   0.416 -2.5811  0.6062 -1.4965
16314TIP3   OH270356   4.815   4.996  11.717 -0.3387 -0.3468  0.0343
16314TIP3    H170357   4.807   4.902  11.733 -1.0073 -0.0424  1.7825
16314TIP3    H270358   4.801   5.006  11.623 -2.3982 -1.7892  0.1204
16315TIP3   OH270359   2.840   5.097   6.437  0.2674  0.3441  0.4443
16315TIP3    H170360   2.861   5.189   6.419  1.7922  0.0080  0.3638
16315TIP3    H270361   2.838   5.091   6.532 -0.6499  0.6137  0.4543
16316TIP3   OH270362   1.123   5.625   1.098 -0.6054  0.2877 -0.3286
16316TIP3    H170363   1.142   5.586   1.013  0.7909 -1.9172  0.9034
16316TIP3    H270364   1.032   5.656   1.091 -0.0660  1.5453 -3.0345
16317TIP3   OH270365   2.562   4.586  11.846 -0.1811 -0.2003 -0.1622
16317TIP3    H170366   2.566   4.523  11.774 -0.6428  2.2141 -2.4555
16317TIP3    H270367   2.469   4.600  11.861 -0.2623  2.5579 -2.3316
16318TIP3   OH270368   2.485   1.588   5.634  0.5295 -0.3744  0.3240
16318TIP3    H170369   2.487   1.606   5.728  1.2237 -0.7075  0.3789
16318TIP3    H270370   2.569   1.619   5.601  0.9704 -1.7141  0.1023
16319TIP3   OH270371   0.616   2.573  14.422  0.1786  0.6333  0.0761
16319TIP3    H170372   0.642   2.492  14.379 -2.0823 -0.2259  0.2225
16319TIP3    H270373   0.627   2.640  14.355  0.8732  0.0127 -0.4455
16320TIP3   OH270374   1.703   5.382   0.985 -0.4237  0.1200 -0.1618
16320TIP3    H170375   1.741   5.301   0.953 -1.5556  0.1021 -1.5288
16320TIP3    H270376   1.632   5.354   1.044  0.2225  0.1432  0.6426
16321TIP3   OH270377   3.055   4.451   0.084  0.0318 -0.0198 -0.1665
16321TIP3    H170378   3.013   4.537   0.089  1.4082  0.6700 -0.1188
16321TIP3    H270379   2.989   4.395   0.044 -0.4787  1.3280 -1.2850
16322TIP3   OH270380   5.514   4.014  13.478 -0.1677 -0.3726  0.3519
16322TIP3    H170381   5.589   4.073  13.490  1.8394 -2.4293 -1.2376
16322TIP3    H270382   5.463   4.055  13.407 -0.2705  0.7444  1.0413
16323TIP3   OH270383   5.092   3.731   3.820  0.2363 -0.6799 -0.4300
16323TIP3    H170384   5.081   3.777   3.903 -1.3792 -1.7742 -0.0061
16323TIP3    H270385   5.064   3.642   3.838  1.9120 -1.5058 -1.6159
16324TIP3   OH270386   1.254   4.822  14.453 -0.2313  0.2476 -0.2203
16324TIP3    H170387   1.213   4.908  14.447  1.2212  0.9183 -0.9093
16324TIP3    H270388   1.335   4.838  14.502 -0.9238 -1.1132  1.4784
16325TIP3   OH270389   4.966   5.428   5.361 -0.1562 -0.2331 -0.1815
16325TIP3    H170390   4.960   5.508   5.309 -1.8312  0.3957  0.9227
16325TIP3    H270391   4.897   5.436   5.426 -0.8830 -2.9252 -0.5087
16326TIP3   OH270392   6.702   4.104   3.761 -0.0487  0.0044 -0.3765
16326TIP3    H170393   6.764   4.061   3.702 -1.1880  0.0904 -1.6944
16326TIP3    H270394   6.623   4.115   3.708 -0.6851  1.2662  0.7854
16327TIP3   OH270395   1.534   3.950  14.026 -0.2246 -0.1557  0.7493
16327TIP3    H170396   1.606   4.012  14.011  0.1131 -0.6667  0.1923
16327TIP3    H270397   1.456   3.997  13.997  0.2260 -0.5540 -1.2373
16328TIP3   OH270398   5.867   6.327   4.377 -0.4854  0.4483 -0.1283
16328TIP3    H170399   5.871   6.384   4.301  0.6344  0.3295 -0.1779
16328TIP3    H270400   5.891   6.240   4.344  1.2133  0.6129  0.5336
16329TIP3   OH270401   5.345   1.241   3.358 -0.3337  0.3587  0.2275
16329TIP3    H170402   5.359   1.186   3.280  0.2141  0.8354 -0.0141
16329TIP3    H270403   5.286   1.189   3.413  0.8955 -0.8868  0.4341
16330TIP3   OH270404   6.090   1.543  14.084 -0.0763 -0.0818  0.2482
16330TIP3    H170405   6.129   1.456  14.097 -1.4449 -0.6012  1.2144
16330TIP3    H270406   6.123   1.572  13.999 -0.8628 -2.2929 -0.9009
16331TIP3   OH270407   0.217   4.955   3.742 -0.0428  0.4599  0.6461
16331TIP3    H170408   0.309   4.971   3.764  0.1907  0.7059 -0.4435
16331TIP3    H270409   0.217   4.867   3.703 -0.2870  0.4088  0.7615
16332TIP3   OH270410   4.623   3.078  14.411  0.3522  0.5266 -0.0202
16332TIP3    H170411   4.554   3.077  14.345 -0.1517 -0.0701  0.5014
16332TIP3    H270412   4.691   3.020  14.377 -0.0893 -0.1105  0.1627
16333TIP3   OH270413   3.616   2.590  13.755  0.1509  0.7297 -0.0906
16333TIP3    H170414   3.613   2.682  13.732 -0.9400  0.2582 -2.0398
16333TIP3    H270415   3.650   2.546  13.677 -0.7388 -0.6400  0.2481
16334TIP3   OH270416   1.842   6.586   1.542 -0.6538  0.0404  0.1213
16334TIP3    H170417   1.882   6.517   1.595 -1.1970  0.6634  1.4073
16334TIP3    H270418   1.801   6.540   1.469 -0.6921 -0.9551  0.7534
16335TIP3   OH270419   4.853   2.374  15.931  0.4503  0.6965 -0.2466
16335TIP3    H170420   4.824   2.333  15.849 -0.3366  0.4962  0.1170
16335TIP3    H270421   4.915   2.441  15.904 -0.0834  0.8836 -1.0350
16336TIP3   OH270422   1.192   2.977   2.270  0.0170 -0.4090 -0.1548
16336TIP3    H170423   1.100   2.971   2.296 -0.9543  0.1622 -3.0230
16336TIP3    H270424   1.223   2.886   2.272 -0.3028 -0.5158  1.6570
16337TIP3   OH270425   5.070   3.949  16.846 -0.9078 -1.0958 -0.3971
16337TIP3    H170426   5.141   3.969  16.784 -1.3587  1.9746 -0.1216
16337TIP3    H270427   4.994   3.935  16.790 -0.5316 -2.3166 -0.6285
16338TIP3   OH270428   3.555   3.733   3.200 -0.5409  0.3226  0.9198
16338TIP3    H170429   3.644   3.709   3.175 -0.9507 -1.2052  0.8019
16338TIP3    H270430   3.505   3.728   3.119 -0.8458  0.5899  1.0908
16339TIP3   OH270431   5.717   4.341   0.874  0.2232  1.0011  0.0473
16339TIP3    H170432   5.706   4.355   0.968 -0.3009 -0.1478  0.1723
16339TIP3    H270433   5.730   4.247   0.865 -0.5526  0.9857 -1.1035
16340TIP3   OH270434   2.859   5.534  13.252 -0.0296  0.3034  0.3451
16340TIP3    H170435   2.896   5.485  13.325 -0.3462  0.7718  0.8278
16340TIP3    H270436   2.802   5.599  13.293 -0.1719  0.6063 -0.3165
16341TIP3   OH270437   2.107   0.146  15.064  0.2574 -0.7261 -0.6455
16341TIP3    H170438   2.084   0.204  14.991  0.4923 -2.6563 -2.3422
16341TIP3    H270439   2.032   0.151  15.123  0.5654  1.7934 -0.3498
16342TIP3   OH270440   1.789   4.326  12.942  0.0661 -0.1828  0.6163
16342TIP3    H170441   1.758   4.329  12.852  0.0445  0.7777  0.6512
16342TIP3    H270442   1.751   4.245  12.978  0.5744 -0.8929 -0.4036
16343TIP3   OH270443   2.747   1.873  16.428  0.2943  0.9736 -0.2069
16343TIP3    H170444   2.731   1.844  16.338 -0.1821  0.8257 -0.0804
16343TIP3    H270445   2.660   1.872  16.469  0.3236  2.1563 -0.0708
16344TIP3   OH270446   0.935   4.995   6.678  0.1896  0.5647 -0.7016
16344TIP3    H170447   1.019   4.950   6.685 -1.3236 -2.1827  1.4957
16344TIP3    H270448   0.874   4.927   6.651 -1.8086  1.8749  0.3485
16345TIP3   OH270449   2.590   1.823   1.420 -0.1489  0.3609 -0.2232
16345TIP3    H170450   2.627   1.888   1.480 -0.2735  2.2358 -2.0653
16345TIP3    H270451   2.650   1.749   1.425  0.8279  1.1864  0.8400
16346TIP3   OH270452   5.911   5.531  16.101  0.0289 -0.4395  0.6606
16346TIP3    H170453   5.986   5.472  16.108  1.3892  1.3204  1.6844
16346TIP3    H270454   5.938   5.610  16.147 -1.6716  1.0605 -0.7575
16347TIP3   OH270455   1.348   1.752  12.917 -0.2100  0.5813  0.7960
16347TIP3    H170456   1.427   1.699  12.910 -0.6300  0.0979 -0.4836
16347TIP3    H270457   1.328   1.778  12.828 -2.1588 -0.3053  0.9277
16348TIP3   OH270458   1.414   3.537  13.958  0.4468  0.4945  0.0229
16348TIP3    H170459   1.372   3.522  13.873  0.2366  1.6705 -0.0928
16348TIP3    H270460   1.365   3.481  14.019  2.0739 -2.2181 -0.9741
16349TIP3   OH270461   3.749   5.646  11.732 -0.0199 -0.1121  0.3142
16349TIP3    H170462   3.816   5.694  11.682  0.8466  0.4970  1.9962
16349TIP3    H270463   3.725   5.573  11.674  1.2256  0.3360 -0.8385
16350TIP3   OH270464   0.796   1.485  11.788 -0.5857  0.2859  0.0303
16350TIP3    H170465   0.728   1.533  11.741  0.6141  1.2779 -0.7607
16350TIP3    H270466   0.847   1.442  11.719  1.6366  2.3410  0.2538
16351TIP3   OH270467   1.303   6.360   3.406  0.7495 -0.5513 -0.7024
16351TIP3    H170468   1.345   6.322   3.484  1.3421  0.4091 -0.5391
16351TIP3    H270469   1.370   6.355   3.338  0.1536 -1.6038 -1.2333
16352TIP3   OH270470   1.442   3.925   2.418  0.5019  0.4833 -0.0069
16352TIP3    H170471   1.470   4.011   2.387 -1.7633  0.9993 -0.7736
16352TIP3    H270472   1.468   3.924   2.510  2.2235  1.2024 -0.4360
16353TIP3   OH270473   1.043   0.132   1.868  0.5791  0.2300  0.4466
16353TIP3    H170474   0.989   0.168   1.798 -1.5054 -0.3638  1.6757
16353TIP3    H270475   1.047   0.202   1.934 -0.0227 -0.2666  1.0274
16354TIP3   OH270476   5.367   2.590  12.344  0.1694 -0.1985  0.1572
16354TIP3    H170477   5.377   2.536  12.266  0.3340  0.6709 -0.4268
16354TIP3    H270478   5.276   2.621  12.341  0.1329 -0.2748  0.3958
16355TIP3   OH270479   2.450   2.840   5.279  0.0478  0.0904 -0.2527
16355TIP3    H170480   2.532   2.807   5.244  0.4355  0.8498 -0.0857
16355TIP3    H270481   2.476   2.902   5.348 -0.6346  0.8597 -0.6580
16356TIP3   OH270482   5.477   0.423   6.092  0.4962  0.1968 -0.5701
16356TIP3    H170483   5.449   0.413   6.001  0.7739 -0.9666 -0.5365
16356TIP3    H270484   5.433   0.352   6.139  2.2327 -0.7087 -0.2436
16357TIP3   OH270485   6.381   3.897   0.039  1.2277 -0.7578 -0.3472
16357TIP3    H170486   6.361   3.925  -0.051 -0.4586  1.4118  0.6355
16357TIP3    H270487   6.403   3.804   0.030  0.2894 -0.8204 -2.8970
16358TIP3   OH270488   1.944   4.692   4.295  0.2366  0.5052 -0.3383
16358TIP3    H170489   1.928   4.738   4.377 -1.5900  1.8668 -1.3923
16358TIP3    H270490   1.880   4.621   4.295  1.2539 -0.4533  0.0514
16359TIP3   OH270491   2.779   1.482   3.541 -0.3765  1.0270 -0.1925
16359TIP3    H170492   2.751   1.572   3.554  1.2308  1.6036 -0.4350
16359TIP3    H270493   2.842   1.486   3.469  1.1596  0.0605  1.0076
16360TIP3   OH270494   2.939   6.544  16.042 -0.4658 -0.1296 -0.1649
16360TIP3    H170495   2.873   6.611  16.060 -1.5084 -1.4229  1.0964
16360TIP3    H270496   2.888   6.465  16.024  0.6789 -1.5237  2.2053
16361TIP3   OH270497   3.741   2.885  15.474  0.5787 -0.3060 -0.6375
16361TIP3    H170498   3.673   2.941  15.437 -1.0009 -1.5921  0.1845
16361TIP3    H270499   3.776   2.837  15.399  0.7905  0.5630 -1.1065
16362TIP3   OH270500   4.572   6.254  16.098 -0.3489 -0.0273  0.0182
16362TIP3    H170501   4.571   6.350  16.094  1.4822  0.0814  1.0452
16362TIP3    H270502   4.599   6.234  16.188  0.8110 -1.4705 -0.6113
16363TIP3   OH270503   1.829   5.769  11.507 -0.4674 -1.1462  0.9306
16363TIP3    H170504   1.795   5.756  11.418 -1.8174 -2.2965  1.5744
16363TIP3    H270505   1.888   5.844  11.499 -1.6528 -0.3171 -0.6657
16364TIP3   OH270506   0.615   6.761  16.790 -0.0471 -0.4529 -0.3071
16364TIP3    H170507   0.645   6.749  16.700  0.4205 -0.9054 -0.0919
16364TIP3    H270508   0.605   6.856  16.799  1.0396 -0.3184 -0.4719
16365TIP3   OH270509   5.724   5.077  13.586  0.3889  0.2379  0.2215
16365TIP3    H170510   5.778   5.042  13.516  0.6160 -0.2156  0.6202
16365TIP3    H270511   5.636   5.042  13.568  0.2819  0.7204 -0.2452
16366TIP3   OH270512   5.575   6.477  16.384 -0.3292 -0.4836  0.1833
16366TIP3    H170513   5.504   6.458  16.323  0.5920 -0.0754 -1.0602
16366TIP3    H270514   5.540   6.544  16.443 -0.8201  0.0496 -0.7054
16367TIP3   OH270515   5.182   0.649   5.800 -0.1056  0.0720 -0.0486
16367TIP3    H170516   5.255   0.709   5.810  0.2334  0.2967 -2.9761
16367TIP3    H270517   5.215   0.579   5.744 -1.8235 -0.3310 -0.6446
16368TIP3   OH270518   4.211   5.227   3.300  0.3136  0.2171  0.5042
16368TIP3    H170519   4.174   5.283   3.232 -0.9686 -0.0613  0.9304
16368TIP3    H270520   4.134   5.187   3.342  1.1115 -0.2873  1.5321
16369TIP3   OH270521   4.196   3.941   4.868 -0.4081 -0.6101  0.1414
16369TIP3    H170522   4.224   3.850   4.879 -1.5903 -1.0295 -0.1716
16369TIP3    H270523   4.133   3.938   4.796  0.2904  0.6227 -0.5532
16370TIP3   OH270524   3.851   1.366  14.644  0.4632 -0.0775 -0.1517
16370TIP3    H170525   3.870   1.453  14.679  0.2598  0.0661 -0.3947
16370TIP3    H270526   3.755   1.362  14.640  0.0637 -2.2281  4.7313
16371TIP3   OH270527   5.648   0.397  15.340  0.2790  0.2532 -0.9268
16371TIP3    H170528   5.662   0.304  15.358  0.2146  0.1584 -1.3639
16371TIP3    H270529   5.565   0.400  15.293  0.0688  0.5744 -0.5399
16372TIP3   OH270530   5.902   3.766   5.893 -0.2845  0.3048 -0.3938
16372TIP3    H170531   5.985   3.721   5.909  0.7434  2.4026  0.5546
16372TIP3    H270532   5.849   3.746   5.970  1.5910  3.5989  2.0374
16373TIP3   OH270533   2.776   2.765   2.360  0.4328  0.0583  0.4041
16373TIP3    H170534   2.844   2.745   2.296  0.7952  0.1547  0.7534
16373TIP3    H270535   2.806   2.845   2.403  0.1452  0.0519  0.6221
16374TIP3   OH270536   3.077   2.967  14.399  0.0094  0.4924  0.2416
16374TIP3    H170537   3.060   3.050  14.353 -1.9890 -0.3727 -0.7031
16374TIP3    H270538   3.143   2.923  14.346  0.0282  0.8647 -0.0450
16375TIP3   OH270539   2.578   4.789  11.410  0.5538  0.1436 -0.6694
16375TIP3    H170540   2.583   4.839  11.491 -1.2311 -1.6990  0.6482
16375TIP3    H270541   2.669   4.769  11.388  1.0501  0.4163  1.0360
16376TIP3   OH270542   2.849   0.377   3.907  0.4337 -0.0867 -0.1624
16376TIP3    H170543   2.825   0.366   3.999  0.1635  0.5787 -0.1464
16376TIP3    H270544   2.943   0.362   3.904  0.3477 -0.7015  0.1220
16377TIP3   OH270545   2.547   3.170   2.725 -0.4653 -0.4486 -0.4489
16377TIP3    H170546   2.638   3.198   2.729 -0.5154 -0.0349 -1.6796
16377TIP3    H270547   2.498   3.240   2.767 -0.3845  0.3282 -1.5860
16378TIP3   OH270548   1.925   0.272   5.014 -0.0315  0.2072  0.2118
16378TIP3    H170549   1.948   0.289   4.923  1.4238 -2.4108 -0.0120
16378TIP3    H270550   2.010   0.263   5.058 -0.7142  0.9010  1.7388
16379TIP3   OH270551   1.040   4.360   3.761  0.0474  0.0554  0.2574
16379TIP3    H170552   1.051   4.303   3.838 -1.5215  0.5611  0.9070
16379TIP3    H270553   1.017   4.445   3.798 -2.7357 -0.1560 -0.7155
16380TIP3   OH270554   5.100   3.232  15.134  0.2061 -0.4059 -0.0677
16380TIP3    H170555   5.179   3.286  15.140  0.7957 -1.2768  0.1427
16380TIP3    H270556   5.096   3.207  15.042 -0.5633  0.6923 -0.3619
16381TIP3   OH270557   1.101   6.056   0.167  0.0884  0.1343  0.3857
16381TIP3    H170558   1.020   6.005   0.161 -0.1618  0.5086  0.4793
16381TIP3    H270559   1.117   6.066   0.260 -0.0088  0.4412  0.3723
16382TIP3   OH270560   3.569   6.303   4.883 -0.4424  0.4335 -0.0199
16382TIP3    H170561   3.582   6.249   4.806 -1.5020  0.8285 -0.5071
16382TIP3    H270562   3.639   6.368   4.879  0.3416 -0.3848  0.1273
16383TIP3   OH270563   5.927   6.421  17.044 -0.0572 -0.5254 -0.3040
16383TIP3    H170564   5.875   6.397  17.121 -0.2570  0.7450 -0.0298
16383TIP3    H270565   6.017   6.427  17.076 -0.1516  0.0817 -0.1504
16384TIP3   OH270566   5.559   4.265   1.235 -0.4731 -0.4776 -0.1658
16384TIP3    H170567   5.486   4.258   1.297 -1.5478 -1.1875 -1.4658
16384TIP3    H270568   5.609   4.185   1.247  0.6679  0.3945  1.3512
16385TIP3   OH270569   1.241   5.942  15.525  0.3564  0.0541 -0.0956
16385TIP3    H170570   1.153   5.908  15.507  0.7147 -2.0171  1.5985
16385TIP3    H270571   1.226   6.030  15.558 -0.9377  0.3525 -1.3929
16386TIP3   OH270572   5.631   5.886  15.623  0.8026 -0.0209 -0.2121
16386TIP3    H170573   5.588   5.954  15.571  2.1902 -0.4910 -2.0786
16386TIP3    H270574   5.648   5.928  15.707 -0.8169  1.0326 -0.3605
16387TIP3   OH270575   0.480   2.087   4.952  0.3984 -0.6108 -0.7047
16387TIP3    H170576   0.406   2.032   4.978  2.0140 -1.3455  3.0687
16387TIP3    H270577   0.446   2.176   4.956 -0.3943 -0.9491  0.7767
16388TIP3   OH270578   4.550   4.036   6.453  0.2401  0.3466  0.1350
16388TIP3    H170579   4.512   4.122   6.435  0.0926  0.4052  0.7155
16388TIP3    H270580   4.482   3.989   6.503  0.4964  0.0590  0.2178
16389TIP3   OH270581   3.888   0.369   6.298 -0.4830 -0.9398  0.6757
16389TIP3    H170582   3.847   0.425   6.363 -0.3093  0.6585 -0.5249
16389TIP3    H270583   3.948   0.314   6.348 -0.0367  0.5300  1.8453
16390TIP3   OH270584   3.548   4.362   5.372 -0.2106  0.0705  0.5975
16390TIP3    H170585   3.641   4.352   5.396 -0.7599  0.4982  3.2776
16390TIP3    H270586   3.514   4.272   5.371 -0.1122  0.0145  1.3541
16391TIP3   OH270587   5.946   0.074  16.168 -0.1879 -0.5635 -0.5911
16391TIP3    H170588   5.852   0.085  16.185  0.1073  0.7192  0.3453
16391TIP3    H270589   5.973   0.005  16.228 -0.1728  0.4227  0.5773
16392TIP3   OH270590   0.193   4.881   4.837  0.1093  0.1084  0.0291
16392TIP3    H170591   0.208   4.793   4.870  1.3295  0.3324  0.1511
16392TIP3    H270592   0.159   4.930   4.912  1.8047  0.3391  0.6997
16393TIP3   OH270593   0.358   0.674  13.168 -0.3403  0.1313  0.2843
16393TIP3    H170594   0.390   0.759  13.199  0.7164  0.4516 -1.5432
16393TIP3    H270595   0.438   0.623  13.153 -0.9159 -0.7353  0.1198
16394TIP3   OH270596   4.331   4.709   2.499 -0.2485  0.2097  0.2861
16394TIP3    H170597   4.420   4.714   2.464 -0.7323  0.3657 -0.9459
16394TIP3    H270598   4.343   4.714   2.594  1.2563 -2.1721  0.3239
16395TIP3   OH270599   4.150   0.808  11.102 -0.2115  0.7612 -0.0437
16395TIP3    H170600   4.200   0.767  11.032  0.4266  1.8044 -0.2134
16395TIP3    H270601   4.206   0.800  11.180 -0.4993  0.4693  0.1371
16396TIP3   OH270602   1.020   1.867  10.484  0.1240  0.1996 -0.1682
16396TIP3    H170603   1.096   1.906  10.439  0.0889  0.6383  0.1392
16396TIP3    H270604   0.991   1.936  10.544 -1.1036  0.3968 -0.9566
16397TIP3   OH270605   1.034   5.393   6.642 -0.5430 -0.6220  0.1232
16397TIP3    H170606   1.105   5.332   6.622 -0.4922 -0.3403 -0.5828
16397TIP3    H270607   1.063   5.438   6.722  0.9224  0.7485 -1.1069
16398TIP3   OH270608   5.051   4.103   1.074 -0.3923 -0.6950  0.5376
16398TIP3    H170609   5.011   4.029   1.120 -0.7120 -0.9992 -0.2215
16398TIP3    H270610   5.098   4.150   1.143 -0.0479 -1.6874  1.0152
16399TIP3   OH270611   0.101   6.161   1.070  0.3236  0.4902 -0.0773
16399TIP3    H170612   0.133   6.096   1.007 -0.2891 -0.4538  0.5567
16399TIP3    H270613   0.162   6.156   1.143  1.0324  1.5829 -0.5770
16400TIP3   OH270614   3.653   6.324   3.009  0.1245  0.0857  0.3396
16400TIP3    H170615   3.666   6.404   3.060 -1.7406 -1.6581  3.9775
16400TIP3    H270616   3.733   6.273   3.023 -0.1818 -0.1794  1.1964
16401TIP3   OH270617   6.580   0.431   4.224 -0.4779  0.3895  0.2091
16401TIP3    H170618   6.495   0.462   4.255 -0.5824  2.1029 -1.5503
16401TIP3    H270619   6.643   0.463   4.289 -1.1632 -1.0202  1.5994
16402TIP3   OH270620   1.446   1.326  11.924 -0.1363  0.0963 -0.2298
16402TIP3    H170621   1.523   1.369  11.887  1.0848 -2.7710 -1.3328
16402TIP3    H270622   1.372   1.358  11.872  0.3532  2.2613  0.3044
16403TIP3   OH270623   5.839   2.250  12.656  0.3338 -0.5646 -0.0451
16403TIP3    H170624   5.845   2.207  12.741  0.9543  0.5739  0.5068
16403TIP3    H270625   5.910   2.211  12.605  0.7600 -0.3477  0.3752
16404TIP3   OH270626   4.072   0.488   5.732 -0.1484  0.1472  0.1138
16404TIP3    H170627   4.106   0.576   5.742 -1.2737  0.4368  1.9980
16404TIP3    H270628   4.139   0.432   5.773 -0.6045  0.4324  1.3067
16405TIP3   OH270629   3.779   5.674   2.831 -1.5375  0.1164  0.2836
16405TIP3    H170630   3.850   5.706   2.886 -0.9337  0.5449 -0.7071
16405TIP3    H270631   3.772   5.739   2.761 -1.7745 -0.7745 -0.5477
16406TIP3   OH270632   0.105   3.240   3.103 -0.3061 -0.6173 -0.0021
16406TIP3    H170633   0.015   3.274   3.099  0.2076  0.8289  0.2434
16406TIP3    H270634   0.138   3.270   3.188  0.4034 -1.1668 -0.0730
16407TIP3   OH270635   5.875   6.273  13.615 -0.2176 -0.1654  0.2642
16407TIP3    H170636   5.803   6.221  13.580  0.4192 -0.7381 -0.2138
16407TIP3    H270637   5.863   6.360  13.576 -1.5728  0.2265  1.4523
16408TIP3   OH270638   0.794   0.968   5.471 -0.2537  0.0761  0.5547
16408TIP3    H170639   0.781   1.057   5.503 -2.8823 -0.8980  2.6350
16408TIP3    H270640   0.726   0.957   5.404  0.2971 -0.2623  0.0428
16409TIP3   OH270641   3.236   1.003  11.425 -0.3026 -0.1613  0.0459
16409TIP3    H170642   3.186   0.959  11.357  0.9663  0.2717 -1.2038
16409TIP3    H270643   3.301   1.055  11.378  1.2679 -0.6169  1.5892
16410TIP3   OH270644   5.410   0.530   4.850  0.5072 -0.2204 -0.0838
16410TIP3    H170645   5.432   0.439   4.831  0.9598  0.1196 -1.2796
16410TIP3    H270646   5.364   0.527   4.934  0.9006 -1.4937  0.0986
16411TIP3   OH270647   4.179   2.576   2.382  0.4476  0.3464 -0.4622
16411TIP3    H170648   4.231   2.537   2.312 -0.5258  1.1355 -1.6628
16411TIP3    H270649   4.209   2.667   2.386 -1.0910  0.9432 -1.4903
16412TIP3   OH270650   1.547   0.618   2.044 -0.2822 -0.0426 -0.1442
16412TIP3    H170651   1.572   0.646   1.956 -0.2890 -1.0903 -0.4948
16412TIP3    H270652   1.611   0.550   2.066 -0.9524 -0.5681  0.2086
16413TIP3   OH270653   2.512   6.219   4.566  0.2820  0.2407  0.0214
16413TIP3    H170654   2.533   6.137   4.521  0.6267 -0.6957  1.7975
16413TIP3    H270655   2.585   6.232   4.627 -0.5537  1.0274  0.8852
16414TIP3   OH270656   5.709   4.456  16.466  0.0714 -0.0770 -0.2808
16414TIP3    H170657   5.669   4.447  16.380 -1.9178 -1.7009  0.7309
16414TIP3    H270658   5.779   4.390  16.467  0.4681  0.3320 -0.8376
16415TIP3   OH270659   2.445   1.761  12.122  0.5119  0.4660 -0.3092
16415TIP3    H170660   2.433   1.853  12.148  0.0503  0.0466  1.0445
16415TIP3    H270661   2.445   1.763  12.026  1.7391  2.0307 -0.3206
16416TIP3   OH270662   4.732   3.334   4.738 -0.1832 -0.7689  0.3651
16416TIP3    H170663   4.682   3.254   4.723 -0.3763 -0.8327  1.3043
16416TIP3    H270664   4.710   3.390   4.663  1.4509 -2.2879 -1.3763
16417TIP3   OH270665   4.323   6.043   1.731 -0.2228  0.2473  0.3681
16417TIP3    H170666   4.400   6.056   1.787 -0.4950  1.5853  0.4676
16417TIP3    H270667   4.264   5.990   1.784  0.2241  0.0553  0.6847
16418TIP3   OH270668   1.000   3.574   0.321 -0.2713 -0.0030 -0.0502
16418TIP3    H170669   1.005   3.485   0.287 -0.3345 -0.1453  0.3095
16418TIP3    H270670   0.944   3.621   0.259  0.3787 -0.0175 -0.6539
16419TIP3   OH270671   1.010   5.432  10.584  0.0477  0.6993  0.3072
16419TIP3    H170672   1.003   5.337  10.588  0.1901  0.7356  1.8718
16419TIP3    H270673   1.105   5.449  10.588  0.1023  0.8825 -1.2282
16420TIP3   OH270674   1.744   4.565  17.117  0.0867 -0.5339  0.0855
16420TIP3    H170675   1.687   4.488  17.112 -0.8250  0.1123  0.3036
16420TIP3    H270676   1.686   4.636  17.144  1.4828 -0.3669  2.9675
16421TIP3   OH270677   1.591   6.480   0.380 -0.3765 -0.1780 -0.1680
16421TIP3    H170678   1.559   6.515   0.297 -0.2588  2.6578  0.8720
16421TIP3    H270679   1.653   6.411   0.355  0.1589  1.0397 -2.4657
16422TIP3   OH270680   6.714   5.527   5.583  0.2311 -0.6224  0.4749
16422TIP3    H170681   6.660   5.564   5.513  1.4450  0.5571  0.1192
16422TIP3    H270682   6.718   5.595   5.649  1.1699 -0.7263  0.5429
16423TIP3   OH270683   5.889   1.547   4.046 -0.3887 -0.1992  0.5560
16423TIP3    H170684   5.794   1.541   4.030 -0.2836  1.6360 -1.1399
16423TIP3    H270685   5.896   1.570   4.139 -1.7421  1.7274  0.2411
16424TIP3   OH270686   4.564   1.820   3.812 -0.0892 -0.3914  0.2310
16424TIP3    H170687   4.556   1.728   3.840 -0.5381 -0.2372  0.6200
16424TIP3    H270688   4.529   1.821   3.723  2.4350 -1.1204 -0.8831
16425TIP3   OH270689   0.160   2.830  16.477  0.1209  0.4875 -0.1911
16425TIP3    H170690   0.150   2.738  16.500  1.9201  0.2058 -0.4431
16425TIP3    H270691   0.159   2.831  16.381  0.0176  0.7595 -0.1911
16426TIP3   OH270692   5.174   3.333  13.227  0.1701  0.4498 -0.0574
16426TIP3    H170693   5.104   3.270  13.213  0.8232 -0.1013 -0.9190
16426TIP3    H270694   5.254   3.280  13.230  0.4731  0.9086  2.1959
16427TIP3   OH270695   2.498   3.191  15.049  0.3043 -0.1231 -0.1851
16427TIP3    H170696   2.553   3.179  14.972  0.0441 -1.7115 -0.1644
16427TIP3    H270697   2.558   3.225  15.116  0.7192  0.4298 -0.8209
16428TIP3   OH270698   1.326   5.633   2.283 -0.0513  0.4494  0.2254
16428TIP3    H170699   1.299   5.709   2.333 -0.8590  0.2898  0.0408
16428TIP3    H270700   1.404   5.663   2.234 -0.9802  1.4912 -0.6723
16429TIP3   OH270701   6.551   0.419  12.245 -0.3525 -0.3176  0.0809
16429TIP3    H170702   6.483   0.353  12.259 -0.6621 -0.2862 -1.1410
16429TIP3    H270703   6.508   0.485  12.190  1.2032 -1.2492 -2.4067
16430TIP3   OH270704   1.875   6.168   1.836 -0.1337  0.1883 -0.0555
16430TIP3    H170705   1.814   6.175   1.763 -0.8610  1.3709  0.6463
16430TIP3    H270706   1.950   6.121   1.799 -1.0117 -0.3543 -1.2107
16431TIP3   OH270707   5.164   2.981   4.204 -0.3257 -0.3803 -0.7444
16431TIP3    H170708   5.219   3.058   4.217 -2.7304  1.7471 -2.1717
16431TIP3    H270709   5.135   2.988   4.113 -0.1277 -3.3942 -1.1345
16432TIP3   OH270710   2.647   1.751  11.871 -0.3155 -0.6430  0.7611
16432TIP3    H170711   2.635   1.841  11.842  0.6772 -0.8016 -0.2345
16432TIP3    H270712   2.729   1.723  11.830 -1.0297 -2.2789  0.3571
16433TIP3   OH270713   6.060   4.405  14.984 -0.7079 -0.0425 -0.0363
16433TIP3    H170714   6.100   4.484  15.020 -1.5814  0.5804 -0.3818
16433TIP3    H270715   6.099   4.395  14.897 -0.0644 -0.4091  0.2919
16434TIP3   OH270716   6.198   4.402   5.322 -0.1171  0.0428 -0.0192
16434TIP3    H170717   6.197   4.307   5.312  0.1879  0.1416 -1.0278
16434TIP3    H270718   6.154   4.417   5.407  1.0803 -1.0579  0.8312
16435TIP3   OH270719   2.024   5.284   6.548  0.1269 -0.4992  0.1356
16435TIP3    H170720   2.067   5.291   6.634  0.1008 -1.1510  0.2079
16435TIP3    H270721   2.030   5.372   6.512  0.8713 -0.4011  0.4587
16436TIP3   OH270722   3.270   3.597  14.089 -0.3414  0.5171  0.5590
16436TIP3    H170723   3.342   3.577  14.029 -0.8219 -0.7592  0.3719
16436TIP3    H270724   3.306   3.584  14.176 -0.3364 -0.1089  0.4649
16437TIP3   OH270725   2.915   2.440  17.305 -0.4708 -0.2682 -0.0554
16437TIP3    H170726   2.928   2.393  17.387 -2.4904 -0.5295  0.1604
16437TIP3    H270727   2.967   2.520  17.315  0.5630 -1.0068  0.7992
16438TIP3   OH270728   6.686   3.745   2.529 -0.0259 -0.4058 -0.1930
16438TIP3    H170729   6.712   3.821   2.580  1.6292 -1.2337  0.2591
16438TIP3    H270730   6.703   3.770   2.438  0.9419 -0.3742 -0.0152
16439TIP3   OH270731   3.648   5.987  13.595 -0.4742 -0.6199 -0.4886
16439TIP3    H170732   3.642   5.909  13.650  2.8275 -1.2810 -0.8423
16439TIP3    H270733   3.586   6.049  13.633  0.9047 -1.3695  3.4251
16440TIP3   OH270734   6.604   6.196  16.851  0.3704 -0.3315  0.5924
16440TIP3    H170735   6.565   6.226  16.933  0.2776 -2.2016  1.2832
16440TIP3    H270736   6.558   6.115  16.831 -0.5333  0.6991 -2.0424
16441TIP3   OH270737   2.112   0.650  16.260  0.1263  0.2329  0.0582
16441TIP3    H170738   2.092   0.710  16.332 -1.4940 -1.6034  1.2615
16441TIP3    H270739   2.027   0.631  16.221  0.5390 -1.5187 -0.0599
16442TIP3   OH270740   6.248   3.934   5.795 -0.2038  0.7219 -0.6450
16442TIP3    H170741   6.334   3.976   5.786 -0.5805  1.8241  0.5472
16442TIP3    H270742   6.252   3.890   5.880 -0.4087 -0.2681 -1.1389
16443TIP3   OH270743   1.562   6.284  13.108  0.0704 -0.0953  0.1922
16443TIP3    H170744   1.598   6.359  13.156  0.4576 -0.3601  0.3189
16443TIP3    H270745   1.581   6.208  13.164 -0.0668 -0.3244 -0.0676
16444TIP3   OH270746   4.817   0.547   0.866  0.3367 -0.3952  0.0363
16444TIP3    H170747   4.754   0.485   0.903 -0.2533  1.1340  1.7926
16444TIP3    H270748   4.784   0.565   0.778 -1.0766 -0.4945  0.5128
16445TIP3   OH270749   3.302   5.421  12.315 -0.2709 -0.3869  0.3706
16445TIP3    H170750   3.275   5.343  12.267 -2.3427 -0.8671  2.1717
16445TIP3    H270751   3.376   5.455  12.265 -2.1714 -0.8906 -3.1100
16446TIP3   OH270752   0.466   2.019  16.842  0.6247  0.2286  0.2502
16446TIP3    H170753   0.497   2.042  16.754 -0.3763  3.6367  0.6564
16446TIP3    H270754   0.472   2.100  16.892 -1.0964 -1.0050  2.6811
16447TIP3   OH270755   4.686   3.296   1.878  0.1552  0.1776 -0.3228
16447TIP3    H170756   4.738   3.339   1.811  3.6218 -0.2531  1.8249
16447TIP3    H270757   4.680   3.205   1.850  1.6505 -0.0202 -0.0695
16448TIP3   OH270758   4.363   5.687   0.692  0.0161  0.0086 -0.4947
16448TIP3    H170759   4.267   5.680   0.693 -0.1746  2.0605  0.0320
16448TIP3    H270760   4.387   5.707   0.782  0.7554  1.1717 -0.9232
16449TIP3   OH270761   0.149   5.366  14.222 -0.1077  0.2419  0.5238
16449TIP3    H170762   0.090   5.290  14.221  1.4659 -1.0419  0.9422
16449TIP3    H270763   0.163   5.383  14.315 -1.1705  1.6578  0.4458
16450TIP3   OH270764   0.990   2.817  14.408 -0.2572  0.4020 -0.3871
16450TIP3    H170765   0.997   2.747  14.473  3.4020  0.4275 -0.5647
16450TIP3    H270766   0.970   2.895  14.459  1.6875  0.2614  0.6554
16451TIP3   OH270767   6.715   5.040   5.603 -0.9318 -0.1201  0.1681
16451TIP3    H170768   6.757   4.960   5.634  0.2400  0.3146 -0.2658
16451TIP3    H270769   6.650   5.009   5.539 -0.2157 -0.7016 -0.2852
16452TIP3   OH270770   1.990   0.800   4.830 -0.0150 -0.2242 -0.4141
16452TIP3    H170771   1.965   0.768   4.743  0.9385  0.7119 -1.0598
16452TIP3    H270772   2.081   0.826   4.821 -0.4025  1.5912  0.3707
16453TIP3   OH270773   5.227   3.615   2.371 -0.0484 -0.1514 -0.4428
16453TIP3    H170774   5.250   3.597   2.280 -0.8892 -0.6121 -0.5729
16453TIP3    H270775   5.133   3.596   2.377 -0.1861  0.6696  0.3197
16454TIP3   OH270776   0.131   2.774  16.973 -0.3025  0.1533  0.6211
16454TIP3    H170777   0.058   2.833  16.955  0.3313  0.6836 -0.3086
16454TIP3    H270778   0.151   2.787  17.065 -0.6713  0.8099  0.6127
16455TIP3   OH270779   3.911   2.487   5.765 -0.5468 -0.2559 -0.1933
16455TIP3    H170780   3.960   2.408   5.788 -1.7951 -0.6433  1.3099
16455TIP3    H270781   3.865   2.464   5.684 -1.6845 -1.4750  0.7548
16456TIP3   OH270782   6.183   0.559   2.570 -0.1279 -0.0290 -0.4607
16456TIP3    H170783   6.152   0.524   2.487  0.2503 -0.9539 -0.2203
16456TIP3    H270784   6.113   0.619   2.598  0.7596  2.1656 -2.5629
16457TIP3   OH270785   1.467   3.564  12.747 -0.3262 -0.6281 -0.0254
16457TIP3    H170786   1.442   3.628  12.814  1.2608  0.7524 -0.6637
16457TIP3    H270787   1.562   3.558  12.755 -0.0683 -0.2357 -2.2979
16458TIP3   OH270788   3.273   6.254  12.616 -0.0806 -0.4695 -0.4156
16458TIP3    H170789   3.309   6.237  12.703 -0.0725 -0.1983 -0.3628
16458TIP3    H270790   3.303   6.343  12.595 -1.1793 -0.0141 -0.1346
16459TIP3   OH270791   3.816   5.711  11.482  1.2484  0.7214 -0.3911
16459TIP3    H170792   3.847   5.797  11.454 -0.1435  0.6472 -2.3859
16459TIP3    H270793   3.888   5.652  11.461  2.3202  1.3694  1.2277
16460TIP3   OH270794   0.793   0.952  15.700 -0.4461  0.3079  0.0451
16460TIP3    H170795   0.704   0.988  15.708 -0.4755  0.0381  1.1085
16460TIP3    H270796   0.780   0.858  15.691 -0.2761  0.3078 -0.2166
16461TIP3   OH270797   4.498   4.836  15.706 -0.1612 -0.2885  0.1773
16461TIP3    H170798   4.544   4.785  15.638  0.2138 -0.6268  0.6760
16461TIP3    H270799   4.405   4.824  15.686 -0.0733 -1.0933  0.2308
16462TIP3   OH270800   2.803   2.346   3.653 -0.2581 -0.3164 -0.1870
16462TIP3    H170801   2.842   2.394   3.726 -0.1909 -0.8087  0.1080
16462TIP3    H270802   2.873   2.343   3.587 -1.0887  2.2080 -1.2807
16463TIP3   OH270803   0.349   0.898  11.499 -0.9626  0.4457  0.1145
16463TIP3    H170804   0.408   0.863  11.431 -0.2278  0.6329  0.6489
16463TIP3    H270805   0.270   0.844  11.491 -0.1700 -0.8108  0.3584
16464TIP3   OH270806   3.821   0.145  17.283  0.4706  0.1402 -0.3531
16464TIP3    H170807   3.855   0.233  17.294 -0.1772  0.3843 -0.2516
16464TIP3    H270808   3.896   0.093  17.254  1.0769  0.5152  0.5065
16465TIP3   OH270809   0.219   6.662  16.848 -0.2905  0.1130  0.4370
16465TIP3    H170810   0.207   6.593  16.913  0.4845 -0.8619 -0.4127
16465TIP3    H270811   0.171   6.737  16.883 -0.3798 -0.5629  1.8376
16466TIP3   OH270812   3.881   2.114  11.567 -0.7558 -0.5319  0.0614
16466TIP3    H170813   3.956   2.086  11.515 -1.8321 -0.7952 -1.3916
16466TIP3    H270814   3.831   2.034  11.582 -0.7507 -0.3664  1.0755
16467TIP3   OH270815   0.406   2.724  12.821 -0.1413  0.1317  0.0532
16467TIP3    H170816   0.349   2.791  12.783 -0.8975 -1.4129 -1.7072
16467TIP3    H270817   0.373   2.711  12.909 -0.1077  1.8923  0.3621
16468TIP3   OH270818   2.218   4.531  15.215  0.1207 -0.6186 -0.0103
16468TIP3    H170819   2.207   4.554  15.122 -1.4221 -1.2315 -0.0058
16468TIP3    H270820   2.243   4.613  15.257  0.6717 -0.2940 -0.9224
16469TIP3   OH270821   2.905   2.071   4.558  0.0990 -0.3088  0.1727
16469TIP3    H170822   2.873   2.086   4.469 -1.5916 -1.2190  0.5927
16469TIP3    H270823   2.929   1.979   4.560 -1.4907 -0.7515  1.0824
16470TIP3   OH270824   3.732   6.691   3.724  0.5445  0.6919 -0.0439
16470TIP3    H170825   3.800   6.753   3.751 -0.1895  1.8152 -0.6958
16470TIP3    H270826   3.735   6.692   3.629 -1.2756  1.8232 -0.1353
16471TIP3   OH270827   3.134   0.700  17.141  0.3850 -0.1626 -0.2055
16471TIP3    H170828   3.223   0.710  17.175 -0.0511  0.3745  0.8423
16471TIP3    H270829   3.089   0.647  17.207  0.4155 -2.1150 -1.6685
16472TIP3   OH270830   5.462   6.261   5.532 -0.5223  0.2171 -0.1629
16472TIP3    H170831   5.520   6.288   5.603  0.5234  0.1658 -0.9777
16472TIP3    H270832   5.399   6.332   5.524  0.0029  0.7166  0.1068
16473TIP3   OH270833   5.620   6.686  13.140  0.3897 -0.2147 -0.3432
16473TIP3    H170834   5.620   6.602  13.186 -0.2455 -0.0835 -0.1028
16473TIP3    H270835   5.537   6.727  13.163  1.3573  1.1997  0.8717
16474TIP3   OH270836   3.732   6.070   0.842  0.5237 -0.1026 -0.0304
16474TIP3    H170837   3.677   6.111   0.776  0.0140 -0.3942  0.2086
16474TIP3    H270838   3.680   6.072   0.922 -0.2738 -2.8325 -0.3950
16475TIP3   OH270839   6.703   0.198   0.746 -0.1319 -0.0402  0.2480
16475TIP3    H170840   6.665   0.208   0.659 -1.3096  1.6425  0.9239
16475TIP3    H270841   6.764   0.271   0.754 -0.3478  0.0636  0.9973
16476TIP3   OH270842   2.504   5.114  15.480  0.1380  0.5838  0.1653
16476TIP3    H170843   2.499   5.209  15.467 -0.2591  0.2320 -2.9810
16476TIP3    H270844   2.414   5.084  15.474  0.5358 -0.2944 -2.4283
16477TIP3   OH270845   0.271   1.121  16.540 -0.3084 -0.1549  0.0091
16477TIP3    H170846   0.179   1.147  16.547 -0.4988 -1.0967  1.8158
16477TIP3    H270847   0.317   1.182  16.597  0.1019 -0.0672 -0.4104
16478TIP3   OH270848   0.362   0.182   6.431 -0.5096  0.5253 -0.2970
16478TIP3    H170849   0.428   0.162   6.365 -1.4782  0.4818 -1.2759
16478TIP3    H270850   0.371   0.276   6.447  0.2468  0.3904  0.0933
16479TIP3   OH270851   6.113   1.838   4.573  0.0735 -0.5325 -0.3064
16479TIP3    H170852   6.152   1.924   4.555  0.2585 -0.3259  0.9987
16479TIP3    H270853   6.150   1.780   4.506 -0.6104  0.5409 -1.6603
16480TIP3   OH270854   1.009   4.098   4.199 -1.1987  0.1535 -0.6939
16480TIP3    H170855   1.001   4.076   4.292 -1.6507 -0.3729 -0.8565
16480TIP3    H270856   1.082   4.161   4.196  0.7874 -1.9798 -0.3076
16481TIP3   OH270857   0.607   5.308   5.204 -0.0846 -0.2880  0.0818
16481TIP3    H170858   0.598   5.214   5.221  3.8693 -1.0224 -0.7176
16481TIP3    H270859   0.651   5.312   5.118  2.0137  2.1033  1.1370
16482TIP3   OH270860   1.666   2.278  14.944  1.1237  0.1755 -0.7908
16482TIP3    H170861   1.674   2.184  14.926  0.1544 -0.2041  0.6202
16482TIP3    H270862   1.621   2.313  14.867 -1.6982 -1.1620  0.1239
16483TIP3   OH270863   0.463   2.138   2.985 -0.0861 -0.0754  0.0985
16483TIP3    H170864   0.477   2.214   2.928  0.2267 -0.5838 -0.5221
16483TIP3    H270865   0.415   2.173   3.060  2.1411  1.2185  1.0150
16484TIP3   OH270866   6.161   5.320  16.564 -0.4101  0.2917 -0.3122
16484TIP3    H170867   6.192   5.290  16.649  0.9181  1.1797 -0.4411
16484TIP3    H270868   6.174   5.244  16.506  0.3673  0.2302 -0.0759
16485TIP3   OH270869   6.191   1.769   5.258 -0.0081  0.0658 -0.1740
16485TIP3    H170870   6.239   1.722   5.190 -1.5737  0.2554 -1.4843
16485TIP3    H270871   6.154   1.845   5.213  1.7220  2.1371  1.6858
16486TIP3   OH270872   6.544   2.027  17.260  0.1473 -0.2064  0.1630
16486TIP3    H170873   6.500   1.944  17.245 -1.5047 -0.2036  3.7521
16486TIP3    H270874   6.496   2.091  17.206  0.3840 -1.2813 -1.3662
16487TIP3   OH270875   6.475   6.035  13.443  0.6874  0.6364 -0.1730
16487TIP3    H170876   6.475   6.033  13.347 -1.7775 -3.3209 -0.3419
16487TIP3    H270877   6.566   6.019  13.468  1.4136  1.9387 -1.7620
16488TIP3   OH270878   4.726   3.591   1.403  0.0463 -0.3277 -0.1226
16488TIP3    H170879   4.685   3.661   1.353  0.0201  0.1385  0.5385
16488TIP3    H270880   4.670   3.515   1.390 -0.3005 -0.0419 -0.2877
16489TIP3   OH270881   4.044   3.580   2.325  0.2435  0.4742  0.4061
16489TIP3    H170882   4.093   3.523   2.385  0.4774 -0.7524 -0.8830
16489TIP3    H270883   4.096   3.659   2.319  1.0488 -0.0294  0.5798
16490TIP3   OH270884   5.874   5.731  16.298  0.3739  0.1286 -0.1750
16490TIP3    H170885   5.900   5.803  16.355 -1.1295  0.2815  0.3721
16490TIP3    H270886   5.827   5.671  16.356 -0.2539 -0.2379 -1.0416
16491TIP3   OH270887   6.246   3.463  16.926 -0.7242 -0.1797 -0.1952
16491TIP3    H170888   6.308   3.414  16.871 -0.9071  0.0796 -0.6325
16491TIP3    H270889   6.160   3.427  16.903 -1.0939  1.6245 -1.9531
16492TIP3   OH270890   0.111   2.111   4.176 -0.2023  0.0419 -0.1676
16492TIP3    H170891   0.086   2.018   4.181  1.3151 -0.3738  0.1956
16492TIP3    H270892   0.035   2.154   4.136 -0.9685 -1.3372 -0.2647
16493TIP3   OH270893   1.897   2.301  14.079  0.9542  0.0243  0.1089
16493TIP3    H170894   1.929   2.349  14.155  2.1297  0.0894 -0.4146
16493TIP3    H270895   1.851   2.225  14.116 -0.2666  1.1229  0.9132
16494TIP3   OH270896   1.874   1.361  12.790 -0.3849 -0.2834  0.4259
16494TIP3    H170897   1.808   1.327  12.729 -0.5428  0.4516  0.1814
16494TIP3    H270898   1.945   1.393  12.734  0.5624 -1.8023  0.7045
16495TIP3   OH270899   3.951   0.827  16.438  0.0551 -0.4967 -0.0014
16495TIP3    H170900   4.011   0.892  16.401  0.7732 -0.6838  0.7990
16495TIP3    H270901   4.008   0.759  16.474 -0.6735 -1.2773 -0.2832
16496TIP3   OH270902   0.915   0.069  16.054 -0.5275  0.0506  0.3923
16496TIP3    H170903   0.924   0.108  16.142 -0.8673 -0.9955  0.9020
16496TIP3    H270904   0.963  -0.013  16.059 -1.7426 -0.6994  0.0354
16497TIP3   OH270905   1.310   0.989   4.827  0.7088  0.4360 -0.3551
16497TIP3    H170906   1.324   0.976   4.920 -2.0711 -0.5569  0.0116
16497TIP3    H270907   1.216   0.976   4.814  0.7076  2.1974 -3.0389
16498TIP3   OH270908   4.474   1.148  13.608 -0.1108 -0.4141 -0.3663
16498TIP3    H170909   4.404   1.154  13.673 -0.4972  0.7730 -0.8723
16498TIP3    H270910   4.462   1.061  13.568 -0.2701 -0.8865  0.6680
16499TIP3   OH270911   2.196   3.756   3.840  0.6657  0.1791  0.3426
16499TIP3    H170912   2.238   3.671   3.858  3.3354  0.6039 -2.9249
16499TIP3    H270913   2.251   3.820   3.885 -1.0558  0.3469  2.3754
16500TIP3   OH270914   4.695   5.793  16.781  0.1673 -0.2142 -0.0988
16500TIP3    H170915   4.666   5.871  16.734 -0.4611 -1.0857 -1.2298
16500TIP3    H270916   4.684   5.722  16.717  0.2314 -1.2991  1.0582
16501TIP3   OH270917   0.988   6.126   4.624 -0.1226  0.6428 -0.0497
16501TIP3    H170918   1.042   6.198   4.591  1.0630 -0.2325 -0.0861
16501TIP3    H270919   0.957   6.081   4.545 -3.1491  2.6489 -0.1510
16502TIP3   OH270920   5.651   2.831   1.760  0.4291 -0.1759 -0.1522
16502TIP3    H170921   5.687   2.825   1.848  0.6108 -0.1350 -0.2233
16502TIP3    H270922   5.557   2.812   1.771  0.3716  0.2374  0.1104
16503TIP3   OH270923   4.051   1.376  12.358 -0.3380  0.3306 -0.3917
16503TIP3    H170924   4.051   1.471  12.346  0.6437  0.2551 -1.1281
16503TIP3    H270925   4.139   1.349  12.333 -0.6833 -0.8089 -0.4328
16504TIP3   OH270926   5.778   5.235  16.738  0.2562 -0.1394  0.1352
16504TIP3    H170927   5.828   5.271  16.664  0.5047  0.3750  0.5469
16504TIP3    H270928   5.704   5.190  16.697 -0.4452  1.4097 -0.4027
16505TIP3   OH270929   1.808   4.101   1.623  0.2179  0.5257  0.2417
16505TIP3    H170930   1.757   4.056   1.556  0.7058 -0.1345  0.3027
16505TIP3    H270931   1.830   4.033   1.687  0.8817  0.8672  0.3922
16506TIP3   OH270932   0.633   5.634   0.850 -0.2163  0.6498  0.1760
16506TIP3    H170933   0.575   5.665   0.921 -1.3296 -0.4493 -0.2197
16506TIP3    H270934   0.721   5.661   0.878 -0.7867  1.4750  1.2911
16507TIP3   OH270935   5.467   1.108   2.741  0.4626 -0.2465 -0.1773
16507TIP3    H170936   5.392   1.050   2.727 -0.1055  0.9538 -2.7820
16507TIP3    H270937   5.432   1.180   2.793  0.7169 -1.2936  1.5094
16508TIP3   OH270938   5.763   4.044   5.442 -0.0481  0.2433  0.2185
16508TIP3    H170939   5.796   3.963   5.403 -0.5066  0.1284  0.0544
16508TIP3    H270940   5.789   4.039   5.534  1.9053  0.9740 -0.2512
16509TIP3   OH270941   5.097   5.250   1.565 -0.0031 -0.1035  0.0007
16509TIP3    H170942   5.072   5.182   1.628  0.1273  0.6923  0.9403
16509TIP3    H270943   5.065   5.218   1.481 -1.7898 -0.3888  0.7421
16510TIP3   OH270944   0.736   1.340   4.912  0.0777  0.3854  0.3132
16510TIP3    H170945   0.697   1.356   4.998 -1.7534 -1.3316 -0.1095
16510TIP3    H270946   0.761   1.247   4.915  2.0970  0.8632 -0.2757
16511TIP3   OH270947   2.833   2.575   4.890  0.1803 -0.8313  0.0179
16511TIP3    H170948   2.782   2.624   4.825 -1.0709 -1.1197  0.7516
16511TIP3    H270949   2.800   2.605   4.975  0.9586 -1.3188  0.5089
16512TIP3   OH270950   5.000   1.949  10.745  0.4437 -0.3439  0.2434
16512TIP3    H170951   5.037   1.901  10.671 -0.1737 -1.3266  0.5456
16512TIP3    H270952   4.907   1.925  10.746  0.7288 -1.6811  2.2735
16513TIP3   OH270953   0.662   5.268   4.922 -0.1624 -0.8382  0.2014
16513TIP3    H170954   0.688   5.297   4.835  0.3331  0.0233  0.6208
16513TIP3    H270955   0.717   5.192   4.939  3.9197  2.0798  1.8919
16514TIP3   OH270956   1.352   2.016   6.643  0.1845 -0.4793  0.2112
16514TIP3    H170957   1.274   2.060   6.609 -0.7168 -1.4908  0.8872
16514TIP3    H270958   1.402   1.993   6.565 -0.9537 -1.1529 -0.3530
16515TIP3   OH270959   6.621   1.181   5.201  0.3487 -0.0829  0.2833
16515TIP3    H170960   6.639   1.267   5.164  1.1182  1.0684  3.0229
16515TIP3    H270961   6.579   1.200   5.285 -1.0615 -2.4680  0.1962
16516TIP3   OH270962   2.703   1.337   1.643 -0.2972  1.2020  0.1067
16516TIP3    H170963   2.689   1.243   1.656 -2.0930  1.1594 -1.7406
16516TIP3    H270964   2.779   1.342   1.586 -0.1039  0.8948  0.3326
16517TIP3   OH270965   2.174   5.612  16.136  0.5789  0.2872 -0.0446
16517TIP3    H170966   2.231   5.682  16.170  0.0758  0.3518  0.7032
16517TIP3    H270967   2.227   5.533  16.145  1.0326  0.5251 -0.5856
16518TIP3   OH270968   0.563   5.982   5.910 -0.2442 -0.1687 -0.1787
16518TIP3    H170969   0.540   6.038   5.836  1.8035  1.6960  0.4874
16518TIP3    H270970   0.554   6.039   5.987 -0.1682 -1.4056  0.7799
16519TIP3   OH270971   2.795   3.827  11.822 -0.0594  0.1305 -0.0917
16519TIP3    H170972   2.753   3.806  11.905 -1.1813 -1.0826 -0.9068
16519TIP3    H270973   2.870   3.767  11.818 -0.2187 -0.0715 -0.1042
16520TIP3   OH270974   3.280   4.850  13.268 -0.0411  0.1635 -0.1282
16520TIP3    H170975   3.189   4.878  13.270 -0.2174 -0.2668 -1.1703
16520TIP3    H270976   3.294   4.805  13.351 -0.8988 -0.1091 -0.1258
16521TIP3   OH270977   4.343   0.743   3.606 -0.1971  0.4381  0.2483
16521TIP3    H170978   4.255   0.712   3.588 -0.0028 -0.4078  0.7045
16521TIP3    H270979   4.361   0.807   3.537 -0.0099 -1.6150 -1.7339
16522TIP3   OH270980   4.551   3.911   3.082 -0.1968  0.1460  0.0173
16522TIP3    H170981   4.555   4.005   3.099  0.8540 -0.2097  2.0647
16522TIP3    H270982   4.637   3.888   3.048  0.2861 -0.3584  1.4787
16523TIP3   OH270983   0.512   1.565   4.389  0.1464  0.1595  0.2609
16523TIP3    H170984   0.447   1.570   4.458 -0.8647 -0.5540 -0.6022
16523TIP3    H270985   0.587   1.615   4.422 -0.8201  0.9734  1.2832
16524TIP3   OH270986   3.868   1.512   2.725 -0.3847  0.1615 -0.2423
16524TIP3    H170987   3.851   1.452   2.653  1.2116 -0.0343 -0.4967
16524TIP3    H270988   3.827   1.594   2.699  2.2508  0.8714 -2.6117
16525TIP3   OH270989   2.250   5.683   5.593 -0.3618  0.4656 -0.2995
16525TIP3    H170990   2.245   5.705   5.686  1.4491  0.0712 -0.0821
16525TIP3    H270991   2.343   5.691   5.571 -0.5150 -1.0624 -1.6652
16526TIP3   OH270992   2.817   2.186  14.448  0.1464 -0.7524 -0.1400
16526TIP3    H170993   2.760   2.217  14.378 -0.0902  0.5219  0.5935
16526TIP3    H270994   2.762   2.185  14.526  0.8107 -0.6576  0.3392
16527TIP3   OH270995   0.055   4.366  15.444 -0.0875 -0.4705 -0.2966
16527TIP3    H170996   0.029   4.420  15.519 -0.0651 -0.2383 -0.4556
16527TIP3    H270997   0.103   4.293  15.483 -0.4145 -0.5609 -0.0517
16528TIP3   OH270998   1.559   3.498   3.315 -0.2337 -0.8246  0.0108
16528TIP3    H170999   1.603   3.491   3.231 -1.7298 -1.7970 -0.7368
16528TIP3    H271000   1.595   3.427   3.368  1.1445  0.1559  0.4388
16529TIP3   OH271001   3.493   1.087   4.151 -0.2325  0.7779 -0.4848
16529TIP3    H171002   3.433   1.121   4.218 -1.5946 -0.6782 -0.8768
16529TIP3    H271003   3.513   0.998   4.180  2.9656  1.6674  0.3681
16530TIP3   OH271004   4.194   0.114   0.623 -0.5203 -0.1450  0.1187
16530TIP3    H171005   4.149   0.116   0.538 -0.5419  2.2177  0.1141
16530TIP3    H271006   4.130   0.076   0.683 -1.3411  0.2265 -0.5006
16531TIP3   OH271007   4.499   5.649  17.006  1.2207 -0.7075  0.2184
16531TIP3    H171008   4.439   5.701  16.952  0.3905 -0.0842  1.6754
16531TIP3    H271009   4.586   5.685  16.987  0.7997  0.3718  0.2558
16532TIP3   OH271010   1.432   2.116  13.485  0.6730 -0.4401 -0.3984
16532TIP3    H171011   1.385   2.127  13.567 -0.3029 -0.1069 -0.9852
16532TIP3    H271012   1.445   2.021  13.478 -0.4763 -0.6054 -0.5157
16533TIP3   OH271013   5.474   5.014  16.822  0.0899  0.2766 -0.1764
16533TIP3    H171014   5.558   5.051  16.850 -1.0476  1.2364  2.2479
16533TIP3    H271015   5.486   4.920  16.828  0.7977  0.4230  0.8528
16534TIP3   OH271016   0.432   0.064  16.551 -0.3448 -0.4052 -0.3791
16534TIP3    H171017   0.451   0.157  16.553  0.6567 -0.5789  2.3640
16534TIP3    H271018   0.466   0.034  16.466  1.6804  1.2900 -0.2348
16535TIP3   OH271019   3.254   3.568  16.913 -0.2150  0.5018  0.2247
16535TIP3    H171020   3.340   3.583  16.874  0.3027 -1.4073  0.5367
16535TIP3    H271021   3.254   3.621  16.993  1.4615 -0.9604  1.2481
16536TIP3   OH271022   6.596   2.140   1.722 -0.3138  0.1194 -0.3049
16536TIP3    H171023   6.508   2.170   1.744 -0.6477 -0.2548 -1.0863
16536TIP3    H271024   6.582   2.066   1.663  0.4491 -2.2269  2.2101
16537TIP3   OH271025   3.253   4.362   5.590  0.2937 -0.0414 -0.6652
16537TIP3    H171026   3.333   4.408   5.564  0.5960  1.5747  2.5760
16537TIP3    H271027   3.201   4.429   5.635 -1.2759 -1.8789  0.4072
16538TIP3   OH271028   4.059   2.251  12.020  0.6509  0.1897 -0.0247
16538TIP3    H171029   4.091   2.255  11.930  1.0543  0.1203  0.1128
16538TIP3    H271030   4.120   2.306  12.069 -0.1400  1.0205  0.0420
16539TIP3   OH271031   6.112   1.614  13.814  0.5757  0.0942  0.2527
16539TIP3    H171032   6.090   1.682  13.750  0.9037  0.0372  0.0745
16539TIP3    H271033   6.091   1.532  13.771  1.0940  0.0400  0.0890
16540TIP3   OH271034   5.510   4.824  10.319  0.2761 -0.2570  0.5407
16540TIP3    H171035   5.446   4.754  10.334  1.6977 -1.9548 -0.8790
16540TIP3    H271036   5.460   4.904  10.328 -1.5061 -1.4429  1.9128
16541TIP3   OH271037   3.890   0.138  16.986  0.3143 -0.2727 -0.0816
16541TIP3    H171038   3.896   0.206  16.919 -0.9746  0.4361  0.4988
16541TIP3    H271039   3.835   0.070  16.947 -1.1166  0.5002  0.5053
16542TIP3   OH271040   0.048   0.174   2.223  0.0478 -0.5602  0.7658
16542TIP3    H171041   0.080   0.208   2.307 -2.4418 -1.6277  2.2650
16542TIP3    H271042   0.014   0.251   2.178  0.0605 -0.1785  1.3961
16543TIP3   OH271043   4.905   0.259  11.385  0.3257 -0.0808 -0.0883
16543TIP3    H171044   4.821   0.215  11.398 -0.3589  1.1113 -0.2870
16543TIP3    H271045   4.970   0.198  11.421 -0.5790 -1.1700 -0.2351
16544TIP3   OH271046   2.359   2.960   5.827 -0.7714  0.3492  0.9926
16544TIP3    H171047   2.408   2.967   5.908  0.5141 -0.6646  0.3476
16544TIP3    H271048   2.341   2.866   5.818  2.3447 -0.1761 -1.6324
16545TIP3   OH271049   6.025   6.700  13.724  0.3807  0.3131 -0.0928
16545TIP3    H171050   5.982   6.780  13.693  1.2172  1.2517  1.0564
16545TIP3    H271051   5.984   6.683  13.809  0.3680 -0.3597 -0.2312
16546TIP3   OH271052   3.231   2.764  13.523 -0.3384  0.3688  0.0925
16546TIP3    H171053   3.259   2.695  13.463 -1.2387  0.1825 -0.1256
16546TIP3    H271054   3.251   2.730  13.610  2.6613  1.3737 -0.0800
16547TIP3   OH271055   4.143   2.018  13.040 -0.6071  0.4685 -0.1125
16547TIP3    H171056   4.216   2.076  13.060 -1.2431  0.5803  2.2300
16547TIP3    H271057   4.184   1.934  13.018  0.2531  0.5917  0.9458
16548TIP3   OH271058   2.146   5.500  14.843  0.3830 -0.5829 -0.6162
16548TIP3    H171059   2.070   5.456  14.806  0.3091 -0.1827 -0.9423
16548TIP3    H271060   2.121   5.522  14.932  0.0576 -0.3063 -0.7760
16549TIP3   OH271061   4.831   1.363   0.890 -0.1822  0.0283  0.4528
16549TIP3    H171062   4.771   1.433   0.866 -0.1906  0.7499  2.3920
16549TIP3    H271063   4.774   1.293   0.923 -0.1609 -0.8346 -1.2717
16550TIP3   OH271064   1.826   0.465  13.183  0.0445 -0.3715 -0.1166
16550TIP3    H171065   1.807   0.377  13.149  2.4955 -0.3987 -1.6537
16550TIP3    H271066   1.822   0.455  13.278 -1.0957 -1.7909 -0.2787
16551TIP3   OH271067   2.197   3.400  16.398 -0.1652 -0.0311  0.6336
16551TIP3    H171068   2.271   3.441  16.443  1.3510 -3.4555  1.5280
16551TIP3    H271069   2.128   3.397  16.465  0.7945 -1.6791  1.6069
16552TIP3   OH271070   3.712   2.595   3.988  0.2824 -0.5699 -0.3700
16552TIP3    H171071   3.690   2.502   3.994  0.2388 -0.4905  1.0594
16552TIP3    H271072   3.750   2.605   3.901 -1.2141 -1.5885 -1.1936
16553TIP3   OH271073   3.894   0.452   4.006  0.9135  0.6168 -0.4686
16553TIP3    H171074   3.899   0.413   4.093 -0.5104 -0.8064 -0.9934
16553TIP3    H271075   3.949   0.530   4.013  0.9091  0.5072  1.6767
16554TIP3   OH271076   1.898   0.611  11.427 -0.0158  0.4627 -0.7396
16554TIP3    H171077   1.938   0.697  11.444  0.9941  0.3267 -2.2277
16554TIP3    H271078   1.875   0.613  11.334 -0.1033 -0.8308 -0.7644
16555TIP3   OH271079   1.352   2.328  14.295 -0.6702  0.2582  0.2048
16555TIP3    H171080   1.273   2.369  14.260 -0.0877  2.7496  1.5619
16555TIP3    H271081   1.332   2.309  14.387  0.4762  1.5487  0.7548
16556TIP3   OH271082   1.654   0.926  13.017  0.7079 -0.3401 -0.1447
16556TIP3    H171083   1.691   0.856  12.963 -0.6635 -0.5829 -0.7983
16556TIP3    H271084   1.689   1.007  12.978  1.2653 -0.5912 -0.1826
16557TIP3   OH271085   2.991   3.731   2.221 -0.2519 -0.1664 -0.1614
16557TIP3    H171086   2.971   3.782   2.143 -3.2582 -1.4106 -0.3368
16557TIP3    H271087   2.952   3.780   2.293  0.6218 -0.0975  0.2810
16558TIP3   OH271088   0.523   6.065  11.605  0.5795 -0.4777 -0.7313
16558TIP3    H171089   0.613   6.032  11.605  0.9971  0.5453 -1.9821
16558TIP3    H271090   0.472   5.993  11.569  0.8697 -1.0990  0.0622
16559TIP3   OH271091   6.158   1.990  14.237 -0.3800 -0.2201 -0.1022
16559TIP3    H171092   6.242   1.982  14.191  0.1816  1.6003  0.5143
16559TIP3    H271093   6.094   2.005  14.168  0.4744  2.6306 -0.3991
16560TIP3   OH271094   4.028   2.265  11.101 -0.0476 -0.4933  0.1338
16560TIP3    H171095   4.109   2.315  11.107  0.2589 -1.0073  0.4173
16560TIP3    H271096   3.971   2.317  11.044  0.1985  0.2514  0.5505
16561TIP3   OH271097   6.657   4.670   3.719  0.6363  0.2621  0.1218
16561TIP3    H171098   6.640   4.587   3.676  1.4274  0.3769 -0.4250
16561TIP3    H271099   6.750   4.667   3.741  1.9949  2.8695 -4.1546
16562TIP3   OH271100   4.542   6.332   0.205 -0.1504  0.6762  0.1344
16562TIP3    H171101   4.480   6.400   0.180 -0.1093  1.1173  1.1840
16562TIP3    H271102   4.593   6.371   0.276  1.6882  0.5227 -1.0212
16563TIP3   OH271103   2.063   2.514   4.036  0.1209 -0.2216  0.0162
16563TIP3    H171104   2.009   2.437   4.051  2.4600 -1.9903  0.0085
16563TIP3    H271105   2.050   2.568   4.114  1.2558 -2.4964  1.9153
16564TIP3   OH271106   4.769   5.140   5.493  0.4632 -0.3156  0.4737
16564TIP3    H171107   4.777   5.203   5.564  1.8949 -0.3221  0.3341
16564TIP3    H271108   4.705   5.076   5.525 -1.1556  1.2588  0.5419
16565TIP3   OH271109   2.738   5.273  12.016  0.3015  0.2050  0.3847
16565TIP3    H171110   2.747   5.368  12.010 -0.1761  0.2872  0.8906
16565TIP3    H271111   2.748   5.242  11.926  1.3614  0.6454  0.3283
16566TIP3   OH271112   4.546   3.423   2.085  0.3171  0.3005  0.4226
16566TIP3    H171113   4.575   3.385   2.003  2.1559  0.7324  0.8319
16566TIP3    H271114   4.484   3.359   2.121  0.6809 -0.6199 -0.5476
16567TIP3   OH271115   2.517   4.955   0.918  0.4029  0.6535 -0.0014
16567TIP3    H171116   2.459   5.027   0.943  0.4394  0.9942 -0.8396
16567TIP3    H271117   2.523   4.962   0.823 -0.2987 -1.0148 -0.2015
16568TIP3   OH271118   4.657   3.080  10.806  0.7037 -0.3248  0.7538
16568TIP3    H171119   4.622   3.164  10.836 -1.3175 -0.0044 -2.0616
16568TIP3    H271120   4.751   3.096  10.796  0.7700  0.7582  2.6928
16569TIP3   OH271121   1.590   5.196   2.415 -0.3420  0.3363  0.1210
16569TIP3    H171122   1.495   5.183   2.406 -0.3735 -0.4365  1.3018
16569TIP3    H271123   1.627   5.158   2.335 -0.9045 -1.2610  0.5730
16570TIP3   OH271124   6.255   0.843   1.491 -0.0306 -0.4594 -0.1160
16570TIP3    H171125   6.245   0.804   1.577 -1.7362  1.0818  0.4290
16570TIP3    H271126   6.175   0.819   1.444 -1.0013  1.9865  0.1344
16571TIP3   OH271127   4.200   4.171  16.644  0.7642 -0.2443  0.0671
16571TIP3    H171128   4.133   4.150  16.579  1.3430 -0.2929 -0.5269
16571TIP3    H271129   4.216   4.089  16.689  1.2561 -0.5182 -0.5875
16572TIP3   OH271130   4.756   6.410  11.471 -0.1854 -0.1091  0.3071
16572TIP3    H171131   4.689   6.370  11.526 -1.2794 -0.0389 -0.9433
16572TIP3    H271132   4.826   6.345  11.467 -0.7934 -0.7886  0.4684
16573TIP3   OH271133   3.657   2.591   1.320 -0.3250 -0.5049 -0.8547
16573TIP3    H171134   3.583   2.582   1.260 -0.6662  1.2215 -0.7379
16573TIP3    H271135   3.716   2.652   1.277  0.6201 -1.1791 -0.5355
16574TIP3   OH271136   4.944   4.028  12.839  0.6663 -0.5079 -0.2133
16574TIP3    H171137   5.003   4.060  12.770  0.1940  1.3740  0.2119
16574TIP3    H271138   4.860   4.068  12.819 -0.0957 -1.8922  0.1045
16575TIP3   OH271139   4.948   3.954  10.814 -0.2426  0.5637 -0.0230
16575TIP3    H171140   5.029   4.001  10.796 -0.5363  0.1900 -2.7454
16575TIP3    H271141   4.958   3.870  10.770 -2.0008  0.4138 -0.2296
16576TIP3   OH271142   4.869   6.273   0.416  0.2631 -0.1492  1.2369
16576TIP3    H171143   4.850   6.183   0.392  2.3591 -0.2868 -0.0955
16576TIP3    H271144   4.939   6.266   0.482  2.2478  0.4854 -0.6921
16577TIP3   OH271145   0.425   4.507  16.989 -0.0487  0.9916 -0.7694
16577TIP3    H171146   0.497   4.534  16.932 -0.3025  0.0740 -1.5413
16577TIP3    H271147   0.447   4.544  17.075  1.9961 -0.2783 -0.6745
16578TIP3   OH271148   3.122   2.860   5.908  0.1007 -0.2935  0.3547
16578TIP3    H171149   3.113   2.773   5.869  1.5261  0.7949 -2.6645
16578TIP3    H271150   3.212   2.862   5.942  0.5971  0.4807 -0.9657
16579TIP3   OH271151   2.832   5.174   1.958 -0.0074  0.2400  0.2842
16579TIP3    H171152   2.907   5.144   1.906 -0.1738  0.2528  0.0412
16579TIP3    H271153   2.798   5.250   1.910  0.2310  0.6461  0.7422
16580TIP3   OH271154   4.263   4.370   5.581 -0.1574 -0.0045 -0.0567
16580TIP3    H171155   4.342   4.333   5.541 -0.3146 -0.4878  0.0742
16580TIP3    H271156   4.191   4.337   5.526 -0.2577  0.5543 -0.2645
16581TIP3   OH271157   2.173   2.957   3.825 -0.2553 -0.4146 -0.0805
16581TIP3    H171158   2.142   2.868   3.845  0.4050 -1.0754 -1.7793
16581TIP3    H271159   2.135   2.976   3.739  0.5200  0.4897 -0.2383
16582TIP3   OH271160   2.208   1.377   1.053  0.3836 -0.1787  0.4469
16582TIP3    H171161   2.141   1.440   1.024 -0.3089 -0.9080  0.4220
16582TIP3    H271162   2.254   1.422   1.124 -0.2357  0.2824  0.5689
16583TIP3   OH271163   6.299   2.543   4.501 -0.3240 -0.2545  0.5766
16583TIP3    H171164   6.248   2.462   4.505 -0.5585 -0.1117  0.4809
16583TIP3    H271165   6.386   2.515   4.472 -0.7259 -0.3413 -0.6281
16584TIP3   OH271166   0.091   0.794  11.470 -0.4730  0.0597 -0.1131
16584TIP3    H171167   0.065   0.718  11.522  0.4970 -0.5431 -0.4903
16584TIP3    H271168   0.019   0.805  11.407 -1.8394  1.0154  1.5219
16585TIP3   OH271169   5.603   3.389  10.242 -0.6793 -0.0504  0.1009
16585TIP3    H171170   5.552   3.419  10.167 -0.3269  0.8192  0.1935
16585TIP3    H271171   5.549   3.412  10.318  0.1311  1.5297  0.2388
16586TIP3   OH271172   0.461   5.318  12.185 -0.2845 -0.3917 -0.7861
16586TIP3    H171173   0.445   5.283  12.097 -0.4739  0.1705 -0.9819
16586TIP3    H271174   0.422   5.405  12.183  1.7777  0.5647 -0.8939
16587TIP3   OH271175   3.541   4.446   1.056  0.1377  0.4225 -0.3211
16587TIP3    H171176   3.609   4.479   1.114  0.9095  1.1288 -1.5952
16587TIP3    H271177   3.557   4.489   0.972 -2.1574  0.9891 -0.5381
16588TIP3   OH271178   5.175   2.397   2.363  0.2243 -0.0965 -0.5458
16588TIP3    H171179   5.111   2.444   2.417 -0.7729 -2.2942  0.3268
16588TIP3    H271180   5.232   2.354   2.427  1.6087  0.5395 -1.3135
16589TIP3   OH271181   4.248   5.912  16.324  0.0194 -0.1933  0.1090
16589TIP3    H171182   4.168   5.924  16.273 -0.6311  0.2048  1.2046
16589TIP3    H271183   4.318   5.918  16.259 -0.6277  2.6313 -0.4567
16590TIP3   OH271184   6.207   2.496  16.773  0.2882  0.2594 -0.1235
16590TIP3    H171185   6.253   2.560  16.827  0.5738 -0.1963  0.1827
16590TIP3    H271186   6.173   2.546  16.700 -1.0724  1.1164  1.0407
16591TIP3   OH271187   5.617   0.955   1.977  1.5893 -0.0623 -0.7743
16591TIP3    H171188   5.677   0.982   2.046  0.6233  2.3425 -0.7597
16591TIP3    H271189   5.546   0.912   2.023  1.6855  0.1546 -0.4142
16592TIP3   OH271190   0.370   2.380  17.091 -0.4083 -0.4306  0.6501
16592TIP3    H171191   0.300   2.415  17.146  0.0626 -0.2802  1.1604
16592TIP3    H271192   0.398   2.455  17.037 -2.2346 -1.0532 -1.2754
16593TIP3   OH271193   2.002   1.096   0.059 -0.1286  0.4240  0.1860
16593TIP3    H171194   2.044   1.113  -0.025  0.0098 -0.6107  0.0210
16593TIP3    H271195   2.064   1.128   0.124 -0.6515  2.0940 -0.1049
16594TIP3   OH271196   5.510   4.343   4.682 -0.0732 -0.4418 -0.2770
16594TIP3    H171197   5.556   4.427   4.681 -0.4525 -0.2221  0.1169
16594TIP3    H271198   5.443   4.351   4.615  0.4594 -0.7628 -0.8531
16595TIP3   OH271199   2.760   5.608   1.470 -0.3733 -0.0180  0.1443
16595TIP3    H171200   2.815   5.626   1.393 -0.0884 -0.3073  0.2756
16595TIP3    H271201   2.758   5.512   1.476 -0.0732  0.0095  0.7251
16596TIP3   OH271202   3.558   6.580  12.844 -0.1127  0.0375  0.1588
16596TIP3    H171203   3.516   6.511  12.896 -0.2355  0.1772  0.2439
16596TIP3    H271204   3.529   6.662  12.883 -1.5920  0.1963 -1.1429
16597TIP3   OH271205   5.954   6.065   1.047 -0.4492  0.4510 -0.0818
16597TIP3    H171206   5.859   6.057   1.044 -0.4319  0.4509 -1.4216
16597TIP3    H271207   5.986   5.985   1.006  0.0458  1.4101 -1.6665
16598TIP3   OH271208   5.541   3.598   4.390  0.5067  0.0213 -0.0120
16598TIP3    H171209   5.556   3.677   4.442 -0.0523  0.6218 -0.7385
16598TIP3    H271210   5.627   3.556   4.385  0.2993 -0.9380  2.7519
16599TIP3   OH271211   2.585   0.722  15.348 -0.3333 -0.3851 -0.1041
16599TIP3    H171212   2.677   0.694  15.342  0.1187  1.1643 -0.7965
16599TIP3    H271213   2.555   0.688  15.433  0.4801 -1.9963 -0.4155
16600TIP3   OH271214   5.128   3.580   5.032 -0.1159 -0.6523 -0.3452
16600TIP3    H171215   5.139   3.654   4.973  1.3384 -0.4033  0.2052
16600TIP3    H271216   5.153   3.504   4.980 -0.7766 -0.6761 -0.6432
16601TIP3   OH271217   6.476   5.321  14.035  0.3343  0.0676  0.3961
16601TIP3    H171218   6.520   5.317  14.120 -0.1286  1.6694  0.7460
16601TIP3    H271219   6.424   5.241  14.031  2.0635 -1.1108  0.6295
16602TIP3   OH271220   4.724   2.924   3.578 -0.1343 -0.1250 -0.5197
16602TIP3    H171221   4.703   2.897   3.667  1.4704  0.8712  0.2130
16602TIP3    H271222   4.640   2.925   3.532 -0.8791 -1.4454  0.7408
16603TIP3   OH271223   3.285   1.704   0.583 -0.3476  0.0041 -0.1048
16603TIP3    H171224   3.198   1.666   0.596 -0.4368 -0.3385 -1.5430
16603TIP3    H271225   3.285   1.733   0.492  1.3488 -0.8518 -0.4236
16604TIP3   OH271226   4.231   1.094  12.729  0.6562  0.0531  0.4346
16604TIP3    H171227   4.267   1.173  12.768  2.4096  0.5503 -2.0026
16604TIP3    H271228   4.242   1.027  12.796  1.2225  1.3584  1.6946
16605TIP3   OH271229   6.439   3.641   5.841  0.6741  0.1638  0.3087
16605TIP3    H171230   6.386   3.669   5.767  1.0061  1.9546  0.6802
16605TIP3    H271231   6.435   3.546   5.840 -0.6935  0.2027 -0.9954
16606TIP3   OH271232   6.136   0.170  12.603 -0.5491 -0.3158  0.1475
16606TIP3    H171233   6.164   0.112  12.674 -0.7554 -2.3123 -1.3149
16606TIP3    H271234   6.049   0.199  12.630 -0.7273 -1.2481  0.6282
16607TIP3   OH271235   6.357   2.041   4.862  0.2889 -0.0173  0.0359
16607TIP3    H171236   6.350   2.109   4.930  0.8075  0.3519 -0.2730
16607TIP3    H271237   6.449   2.013   4.866  0.2796 -0.1097 -0.4009
16608TIP3   OH271238   3.129   3.506   2.285 -0.3114  0.5996  0.4234
16608TIP3    H171239   3.094   3.473   2.367  0.7076  0.1870  0.7096
16608TIP3    H271240   3.082   3.588   2.269 -0.0672  1.0106  1.7411
16609TIP3   OH271241   0.038   1.769   1.648  0.5078  0.4077  0.4520
16609TIP3    H171242   0.034   1.719   1.730  0.3508 -2.3043 -1.1003
16609TIP3    H271243  -0.050   1.807   1.640  0.7043  1.2212  1.7961
16610TIP3   OH271244   4.076   4.267   2.542  0.9019  0.4475 -0.2592
16610TIP3    H171245   4.153   4.283   2.488  0.7748  0.8814 -0.3107
16610TIP3    H271246   4.076   4.172   2.554 -0.3287  0.0022 -2.9434
16611TIP3   OH271247   1.118   6.519  17.192  0.0006 -0.1652  0.3735
16611TIP3    H171248   1.052   6.469  17.143 -1.3092  1.2716  0.5796
16611TIP3    H271249   1.151   6.458  17.257  1.4984 -2.0298 -1.9518
16612TIP3   OH271250   1.396   4.337   0.662 -0.1256 -0.5815 -0.3666
16612TIP3    H171251   1.440   4.301   0.585 -1.6556 -0.5795 -1.2899
16612TIP3    H271252   1.343   4.410   0.628 -1.4178 -1.0590  0.5375
16613TIP3   OH271253   0.735   6.500   0.312  0.7495 -0.0519 -0.2764
16613TIP3    H171254   0.710   6.408   0.326 -0.3937  0.3485  0.3938
16613TIP3    H271255   0.797   6.518   0.383  1.5154 -0.4911 -0.8163
16614TIP3   OH271256   4.581   0.502   1.351  0.6218 -0.1609  0.1144
16614TIP3    H171257   4.556   0.420   1.392  0.3872  0.3024  0.9248
16614TIP3    H271258   4.674   0.512   1.372  0.6906 -0.2932 -0.1214
16615TIP3   OH271259   6.586   0.769  14.513 -0.0307  0.2504  0.3514
16615TIP3    H171260   6.532   0.710  14.566  0.7651 -1.5788 -0.8141
16615TIP3    H271261   6.610   0.718  14.436 -0.1964  2.4685 -1.2481
16616TIP3   OH271262   5.457   4.023   3.173 -0.0719 -0.2144  0.4549
16616TIP3    H171263   5.525   3.962   3.203 -0.4293  0.1515  2.1226
16616TIP3    H271264   5.380   3.967   3.158  0.4025 -0.5439 -0.8340
16617TIP3   OH271265   4.114   2.529  11.657 -0.1719  0.2665  0.3169
16617TIP3    H171266   4.097   2.595  11.590  0.4884 -0.3483 -0.4787
16617TIP3    H271267   4.036   2.474  11.657  0.0838 -0.1024 -0.3982
16618TIP3   OH271268   6.729   0.424   1.707 -0.3302 -0.3891 -0.1929
16618TIP3    H171269   6.679   0.501   1.679 -1.1529  0.3412  2.8678
16618TIP3    H271270   6.665   0.354   1.715 -0.0376 -0.7039 -0.5974
16619TIP3   OH271271   3.225   2.048  15.348 -0.2677  0.2629  0.5021
16619TIP3    H171272   3.224   2.071  15.255 -0.3374 -1.1856  0.1190
16619TIP3    H271273   3.315   2.021  15.366  0.0241  1.5988  1.1520
16620TIP3   OH271274   4.580   6.661   4.064 -0.5434 -0.6840  0.1810
16620TIP3    H171275   4.660   6.627   4.024 -0.5693 -0.4753 -0.0570
16620TIP3    H271276   4.545   6.588   4.116  0.0021 -0.6547  0.5936
16621TIP3   OH271277   1.448   6.201   1.522  0.2081 -0.0061  0.1384
16621TIP3    H171278   1.381   6.229   1.584  0.0506 -1.5256  0.7026
16621TIP3    H271279   1.405   6.135   1.468  1.3195 -1.2793  0.7543
16622TIP3   OH271280   2.623   5.820  14.280 -0.5147  0.4593  0.1909
16622TIP3    H171281   2.541   5.823  14.330  0.5287 -1.0670  2.1632
16622TIP3    H271282   2.610   5.748  14.218 -0.8958  0.6217  0.0818
16623TIP3   OH271283   4.499   3.174   4.040  0.9846  0.2990  0.7819
16623TIP3    H171284   4.576   3.212   3.998  1.0587  0.4348  1.0408
16623TIP3    H271285   4.491   3.087   4.002 -0.6036  1.4059 -1.6918
16624TIP3   OH271286   0.813   2.076   0.618  0.2781 -0.2855  0.2132
16624TIP3    H171287   0.867   2.071   0.539  0.9150 -1.3936  0.7054
16624TIP3    H271288   0.804   1.986   0.647 -2.3201 -0.2139 -0.1545
16625TIP3   OH271289   0.438   4.158  11.989  0.0199 -0.0975 -0.0912
16625TIP3    H171290   0.444   4.097  12.063  3.3809 -1.4812 -1.2737
16625TIP3    H271291   0.502   4.227  12.009 -0.1390  0.3297 -0.9939
16626TIP3   OH271292   5.631   4.597  13.590 -0.1613  0.7092 -0.3233
16626TIP3    H171293   5.716   4.556  13.608 -0.5823  0.0123  0.1243
16626TIP3    H271294   5.609   4.643  13.670 -0.9592 -0.4708  0.1541
16627TIP3   OH271295   6.741   1.914   5.089 -0.5946 -0.2984 -0.1333
16627TIP3    H171296   6.772   2.003   5.075 -1.7407  0.3080  1.0026
16627TIP3    H271297   6.759   1.896   5.182 -0.6477 -1.1465 -0.2728
16628TIP3   OH271298   4.132   1.888  15.997 -0.4705  0.1487  0.2615
16628TIP3    H171299   4.116   1.802  16.037 -1.1042 -0.4693 -1.2353
16628TIP3    H271300   4.061   1.898  15.934  0.1566  1.3435 -0.2691
16629TIP3   OH271301   4.362   4.723   0.728  0.0141 -0.4409 -0.4540
16629TIP3    H171302   4.432   4.768   0.682 -0.7674 -0.8264 -2.0727
16629TIP3    H271303   4.406   4.653   0.776  0.6200 -1.8225 -2.8810
16630TIP3   OH271304   6.214   0.194   1.065 -0.5504  0.5966 -0.0441
16630TIP3    H171305   6.197   0.234   1.150  0.0046 -0.1834  0.4496
16630TIP3    H271306   6.306   0.214   1.048 -1.0232  1.9847 -1.1538
16631TIP3   OH271307   5.310   5.556   5.919  0.0626  0.0611 -0.3757
16631TIP3    H171308   5.358   5.625   5.873  1.4631 -0.5860  0.0828
16631TIP3    H271309   5.341   5.474   5.880  0.4785 -0.4467  0.9675
16632TIP3   OH271310   3.443   4.023   3.822 -0.5980 -0.3235 -0.1231
16632TIP3    H171311   3.428   4.086   3.893 -1.5735 -1.9839  1.1995
16632TIP3    H271312   3.387   4.054   3.751 -0.8702  0.4364  0.4083
16633TIP3   OH271313   2.283   5.748   4.817 -0.3507 -0.6827 -0.8342
16633TIP3    H171314   2.270   5.728   4.909  1.0326  1.6332 -0.0664
16633TIP3    H271315   2.222   5.819   4.799  0.1493 -0.3835 -1.3938
16634TIP3   OH271316   1.038   0.525   1.534  0.3500  0.1433  0.2996
16634TIP3    H171317   0.996   0.575   1.464 -1.7865 -1.3046  0.4461
16634TIP3    H271318   1.114   0.484   1.492  0.1256  0.7107 -0.6882
16635TIP3   OH271319   0.501   6.008  16.028  0.5256  0.1251  0.4233
16635TIP3    H171320   0.547   6.060  16.094 -0.1806  0.7413  0.4511
16635TIP3    H271321   0.408   6.026  16.045  0.2838 -0.8769  0.2000
16636TIP3   OH271322   5.336   3.748  17.170 -0.3929 -0.2754 -0.5796
16636TIP3    H171323   5.390   3.689  17.222  0.2722  0.3617 -0.5319
16636TIP3    H271324   5.266   3.775  17.230  0.2294  0.2587 -0.0748
16637TIP3   OH271325   2.003   0.879  12.753 -0.1369 -0.1452  0.6109
16637TIP3    H171326   1.971   0.851  12.839 -2.1321 -1.2601 -0.4086
16637TIP3    H271327   1.970   0.812  12.693  0.7007  0.9140 -1.0989
16638TIP3   OH271328   3.448   3.256   1.156  0.2686  0.3283 -0.0862
16638TIP3    H171329   3.356   3.279   1.169 -0.2138 -0.8107 -1.2039
16638TIP3    H271330   3.461   3.265   1.062  0.7640 -1.2770 -0.2093
16639TIP3   OH271331   5.715   0.192  11.212  0.0305 -0.5287 -0.7085
16639TIP3    H171332   5.690   0.101  11.196 -0.6246 -0.2381 -1.4536
16639TIP3    H271333   5.704   0.235  11.127  0.1383  0.2900 -0.3232
16640TIP3   OH271334   3.754   0.924   0.057 -0.4932 -0.2497 -0.2387
16640TIP3    H171335   3.798   0.919   0.142  2.5856  0.2573 -1.6901
16640TIP3    H271336   3.712   0.838   0.048  1.2046 -1.2476  0.7675
16641TIP3   OH271337   5.984   2.646  13.758 -0.1103  0.1031 -0.4619
16641TIP3    H171338   5.936   2.728  13.763 -1.5641 -0.5694 -2.2672
16641TIP3    H271339   6.005   2.636  13.665 -1.8872 -2.5466 -0.7105
16642TIP3   OH271340   3.860   3.054   3.619 -0.0276 -0.2748 -0.0927
16642TIP3    H171341   3.857   3.097   3.704 -0.6554  0.0113 -0.2533
16642TIP3    H271342   3.774   3.070   3.581  0.5881  0.4854 -1.2171
16643TIP3   OH271343   1.233   5.818   4.133 -0.6955 -0.0889 -0.2762
16643TIP3    H171344   1.138   5.829   4.144 -0.8408  0.4930 -1.8504
16643TIP3    H271345   1.268   5.907   4.136 -0.2070 -0.2945  0.1816
16644TIP3   OH271346   6.506   4.269   5.108  0.3394 -0.3120 -0.6591
16644TIP3    H171347   6.437   4.322   5.147  1.6656  1.6941 -0.8833
16644TIP3    H271348   6.533   4.210   5.179 -0.0777  0.4380  0.1520
16645TIP3   OH271349   4.743   5.762   4.644 -0.2033  0.0176 -1.0552
16645TIP3    H171350   4.799   5.692   4.679 -1.1316 -0.0064  0.4413
16645TIP3    H271351   4.799   5.839   4.641 -0.0815  0.0180  0.5254
16646TIP3   OH271352   0.419   5.335  15.515  0.3339  0.1647 -0.2303
16646TIP3    H171353   0.389   5.380  15.595  1.5489  2.4119 -0.9711
16646TIP3    H271354   0.354   5.358  15.449  0.6416  0.3097 -0.4798
16647TIP3   OH271355   5.047   1.366   1.106 -0.3814 -0.3207 -0.7195
16647TIP3    H171356   4.995   1.389   1.028 -0.4410 -1.5212 -1.0577
16647TIP3    H271357   4.996   1.399   1.179 -1.0271 -0.3917 -1.1245
16648TIP3   OH271358   3.669   3.321  15.619  0.1318  0.0122 -0.1202
16648TIP3    H171359   3.579   3.350  15.602  1.1032  2.4324 -1.6768
16648TIP3    H271360   3.714   3.398  15.653  1.2813 -1.6019  2.2683
16649TIP3   OH271361   5.565   6.510  14.203  0.0962 -0.2078  0.1483
16649TIP3    H171362   5.595   6.474  14.119  1.4099  1.7352 -0.2876
16649TIP3    H271363   5.554   6.603  14.186 -0.9418  0.0170  1.8218
16650TIP3   OH271364   6.367   2.483  12.246  0.3803  0.2461 -0.0782
16650TIP3    H171365   6.461   2.504  12.249  0.3726  0.2137  1.8580
16650TIP3    H271366   6.352   2.433  12.326 -1.1124 -0.6324 -0.8734
16651TIP3   OH271367   3.003   4.358  12.184 -0.6539  0.8319  0.0278
16651TIP3    H171368   3.036   4.269  12.174 -0.1077  1.0161  0.1306
16651TIP3    H271369   2.991   4.390  12.095 -1.2893  0.5053 -0.0130
16652TIP3   OH271370   4.352   3.583   4.044 -0.5236 -0.6479  0.1076
16652TIP3    H171371   4.440   3.621   4.046 -1.4567  1.6694  0.9391
16652TIP3    H271372   4.344   3.538   4.129 -0.2728 -0.5349  0.1922
16653TIP3   OH271373   0.724   5.405  15.994 -0.3947  1.0439 -0.5814
16653TIP3    H171374   0.778   5.328  16.012 -0.1253  0.8585 -2.1052
16653TIP3    H271375   0.782   5.480  16.009 -0.5447  0.9521  0.5203
16654TIP3   OH271376   4.412   2.549   0.041  0.4977 -0.3244  0.0692
16654TIP3    H171377   4.453   2.468   0.070  0.4192  0.0630  1.3521
16654TIP3    H271378   4.318   2.531   0.043  0.5258 -0.6168 -0.9831
16655TIP3   OH271379   6.059   6.588  17.208  0.9290  0.1436 -0.0543
16655TIP3    H171380   5.976   6.601  17.254  0.7583  1.8941 -0.7851
16655TIP3    H271381   6.110   6.531  17.266  0.9775  2.7454  2.6852
16656TIP3   OH271382   3.894   5.769  14.872  0.5880  0.0051  0.3565
16656TIP3    H171383   3.881   5.785  14.965  0.0576 -0.1607  0.3139
16656TIP3    H271384   3.902   5.674  14.864  0.2627 -0.0120  0.1934
16657TIP3   OH271385   3.359   4.768  16.620 -0.3476 -0.3915 -0.2836
16657TIP3    H171386   3.380   4.675  16.612  0.6848 -0.3682  1.5900
16657TIP3    H271387   3.427   4.803  16.677 -0.9105  1.4629 -0.6854
16658TIP3   OH271388   3.614   4.709   5.240  0.2787  0.3769  0.4324
16658TIP3    H171389   3.535   4.656   5.228  1.0067 -0.9274  1.1280
16658TIP3    H271390   3.621   4.720   5.335  2.3536 -1.8708  0.6271
16659TIP3   OH271391   5.443   3.789  14.127 -0.4919  0.2022  0.0858
16659TIP3    H171392   5.465   3.862  14.185 -1.0736  0.1291  0.4061
16659TIP3    H271393   5.502   3.719  14.153 -1.7614 -0.3435  1.6514
16660TIP3   OH271394   5.941   1.703  17.317  0.8583  0.2474  0.0602
16660TIP3    H171395   5.872   1.716  17.253 -0.9775 -3.8129  0.9134
16660TIP3    H271396   5.920   1.764  17.388 -0.9159  0.1966 -0.3879
16661TIP3   OH271397   3.276   6.590   4.711 -0.5189 -0.9647  0.0835
16661TIP3    H171398   3.304   6.506   4.746  0.0064 -0.4758  0.8585
16661TIP3    H271399   3.221   6.628   4.780  1.3748  0.4694  0.8657
16662TIP3   OH271400   0.878   5.633  15.945  0.8734  0.1287 -0.1570
16662TIP3    H171401   0.897   5.595  15.859  2.8991 -1.2893  0.8231
16662TIP3    H271402   0.941   5.704  15.954  1.9060 -0.8719  0.8195
16663TIP3   OH271403   2.210   0.323  12.898  0.6518  0.3372 -0.3795
16663TIP3    H171404   2.298   0.285  12.900  0.6882  0.4428  1.8295
16663TIP3    H271405   2.222   0.413  12.927 -0.0289  0.7390 -1.3081
16664TIP3   OH271406   5.796   5.778   0.326 -0.2093 -0.2496 -0.1164
16664TIP3    H171407   5.865   5.712   0.325  1.8837  1.8254 -0.1921
16664TIP3    H271408   5.758   5.775   0.238 -0.7603 -1.8942  0.1521
16665TIP3   OH271409   4.288   1.239  16.413 -0.2106 -0.3985 -0.3084
16665TIP3    H171410   4.288   1.333  16.430 -0.7263 -0.4236 -0.1625
16665TIP3    H271411   4.352   1.228  16.342  1.9334 -0.2804  1.4972
16666TIP3   OH271412   5.288   5.403   1.231 -0.1595 -0.2549 -0.3127
16666TIP3    H171413   5.326   5.371   1.313  2.7221  1.1304 -0.9792
16666TIP3    H271414   5.264   5.323   1.184  1.4243 -1.2383  0.4569
16667TIP3   OH271415   2.360   3.912   5.139 -0.7326  0.4750  0.0218
16667TIP3    H171416   2.301   3.887   5.068 -1.0779 -0.5720  0.6510
16667TIP3    H271417   2.306   3.964   5.198 -1.8504 -2.5041  1.8715
16668TIP3   OH271418   0.688   2.833   0.313  0.3390  0.5443 -0.0465
16668TIP3    H171419   0.663   2.767   0.249  1.2319  0.8286 -0.7121
16668TIP3    H271420   0.761   2.793   0.361 -0.9882 -0.0846  1.5334
16669TIP3   OH271421   0.830   4.922   0.531  0.4594 -0.3945 -0.0831
16669TIP3    H171422   0.769   4.992   0.552  1.4965  0.6712 -0.4624
16669TIP3    H271423   0.778   4.842   0.532 -0.9134  0.4713 -0.3384
16670TIP3   OH271424   3.492   0.140  14.942 -0.4416 -0.0432  0.5050
16670TIP3    H171425   3.506   0.086  15.020 -0.5135  0.9709  1.2361
16670TIP3    H271426   3.539   0.094  14.872  1.5627  0.2046  1.6180
16671TIP3   OH271427   5.693   0.540   1.571  0.1704 -0.1875  0.5783
16671TIP3    H171428   5.694   0.635   1.560  1.0811 -0.0894  1.3860
16671TIP3    H271429   5.601   0.516   1.559  0.1732  0.5760 -1.2405
16672TIP3   OH271430   5.910   0.866  11.520  0.5762 -0.0397 -0.3013
16672TIP3    H171431   5.823   0.899  11.498 -0.6971 -3.3615 -0.8567
16672TIP3    H271432   5.927   0.898  11.608 -1.6172 -0.0402  0.1605
16673TIP3   OH271433   4.034   1.649  12.332  0.9441 -0.1818  0.3882
16673TIP3    H171434   3.996   1.669  12.417  1.5819  2.6217  0.1319
16673TIP3    H271435   4.127   1.672  12.341  1.1525 -0.4482 -0.8746
16674TIP3   OH271436   3.839   5.744   5.616  0.1464  0.0068  0.0255
16674TIP3    H171437   3.885   5.692   5.551  0.5960  0.4042  0.0269
16674TIP3    H271438   3.851   5.834   5.588  0.0648  0.1609  0.4795
16675TIP3   OH271439   2.572   6.687  14.739  0.1847 -0.4138 -0.1646
16675TIP3    H171440   2.492   6.740  14.731  0.8301  0.6163  0.0133
16675TIP3    H271441   2.550   6.604  14.697 -0.5055  0.3952 -1.4852
16676TIP3   OH271442   5.545   2.523   4.807  0.0125 -0.5902  0.1329
16676TIP3    H171443   5.496   2.588   4.857 -1.2328 -0.4941 -1.1403
16676TIP3    H271444   5.602   2.574   4.750  0.6193 -0.6812  0.6406
16677TIP3   OH271445   2.978   4.837  13.318 -0.3020  0.3587  0.2551
16677TIP3    H171446   2.941   4.856  13.404 -1.7424 -1.4430  0.0914
16677TIP3    H271447   2.982   4.741  13.314  0.9710  0.4288 -1.1927
16678TIP3   OH271448   4.941   2.068  14.877 -0.4813  0.2474 -0.7541
16678TIP3    H171449   4.990   2.043  14.955 -2.0444  0.6671  0.3889
16678TIP3    H271450   4.969   2.158  14.859 -1.2105  0.6756  0.2098
16679TIP3   OH271451   4.606   2.890  13.702 -0.1385  0.0353  0.3241
16679TIP3    H171452   4.579   2.832  13.773 -0.6799  1.5637  1.4069
16679TIP3    H271453   4.526   2.903  13.651  0.3872 -1.5651 -0.9979
16680TIP3   OH271454   0.858   5.119   5.604  0.0665 -0.3410 -0.1787
16680TIP3    H171455   0.874   5.047   5.664  0.5687 -0.8579 -0.9188
16680TIP3    H271456   0.806   5.081   5.533 -0.8458  0.3486  0.1078
16681TIP3   OH271457   4.214   0.188  15.676  0.7193 -0.2265  0.1747
16681TIP3    H171458   4.266   0.164  15.600  1.2926 -0.6317  0.6876
16681TIP3    H271459   4.134   0.135  15.668  1.2251 -1.0433  0.3897
16682TIP3   OH271460   4.962   3.507  17.084  0.0880 -0.6223 -0.3748
16682TIP3    H171461   4.925   3.466  17.006  0.1655  0.1821 -0.8423
16682TIP3    H271462   4.994   3.591  17.054  3.6354 -1.8030 -0.3416
16683TIP3   OH271463   1.302   2.572  11.534 -0.6440  0.4137 -0.3389
16683TIP3    H171464   1.260   2.657  11.546  0.4857  1.2734 -2.0439
16683TIP3    H271465   1.291   2.528  11.618 -0.6852  2.5083  0.8281
16684TIP3   OH271466   3.260   0.858  10.850  0.1138  0.4254 -0.0965
16684TIP3    H171467   3.204   0.860  10.773 -1.4145  0.4761  0.9759
16684TIP3    H271468   3.200   0.844  10.923  1.6427 -0.8554  0.9777
16685TIP3   OH271469   5.360   4.450   3.965 -0.0606  0.3800  0.0104
16685TIP3    H171470   5.350   4.533   3.918 -0.6447 -0.1673 -0.8371
16685TIP3    H271471   5.280   4.402   3.947 -0.1315 -0.0063  1.2614
16686TIP3   OH271472   3.311   2.730   0.407 -0.2445 -0.5771 -0.0459
16686TIP3    H171473   3.376   2.795   0.436  2.2352 -2.8126 -0.1559
16686TIP3    H271474   3.297   2.750   0.315  1.6049 -0.9890 -0.4623
16687TIP3   OH271475   2.418   2.042   5.659 -0.2093 -0.7159  0.2895
16687TIP3    H171476   2.473   1.996   5.722 -1.9172 -0.1342  2.2860
16687TIP3    H271477   2.428   2.135   5.682 -0.8081 -0.4825 -0.3547
16688TIP3   OH271478   0.115   1.823   5.875 -0.2870 -0.5231 -0.0836
16688TIP3    H171479   0.051   1.755   5.857 -1.6519  0.2111  1.6993
16688TIP3    H271480   0.144   1.807   5.965  0.4133  0.4341 -0.1142
16689TIP3   OH271481   3.673   0.987  14.584 -0.4578  0.1555 -0.0861
16689TIP3    H171482   3.611   0.986  14.511  0.1450  0.4800 -0.6075
16689TIP3    H271483   3.619   1.006  14.661 -0.7374  2.6352 -0.8060
16690TIP3   OH271484   0.277   3.508  13.068  0.7331 -0.3263  0.5863
16690TIP3    H171485   0.182   3.506  13.064  0.6260  2.4727 -1.1060
16690TIP3    H271486   0.298   3.593  13.107  2.5054 -0.4293 -0.0300
16691TIP3   OH271487   5.368   0.836  12.697 -0.2964 -0.0645 -0.1048
16691TIP3    H171488   5.383   0.850  12.791  1.3994  1.0130 -0.4852
16691TIP3    H271489   5.293   0.892  12.677  0.9974  1.8822  0.1372
16692TIP3   OH271490   3.656   0.654  14.778 -0.3706 -0.0021  0.2095
16692TIP3    H171491   3.585   0.683  14.722 -1.0670 -1.3208  0.3796
16692TIP3    H271492   3.735   0.694  14.740 -1.1976  1.7301  0.2065
16693TIP3   OH271493   1.510   4.539  14.913 -0.2711  0.1743  0.1184
16693TIP3    H171494   1.595   4.574  14.885  0.4333 -0.3052  1.5758
16693TIP3    H271495   1.526   4.505  15.001 -1.9398 -0.0990  0.3409
16694TIP3   OH271496   4.920   6.356  16.966 -0.1061 -0.4417 -0.3632
16694TIP3    H171497   4.868   6.290  17.011  0.3726 -0.9179 -0.4900
16694TIP3    H271498   4.988   6.306  16.921  0.4915  0.1635 -0.1543
16695TIP3   OH271499   3.420   5.460   4.151  0.3208  0.0230 -0.1994
16695TIP3    H171500   3.506   5.451   4.193  0.2724 -0.9295 -0.2769
16695TIP3    H271501   3.366   5.505   4.216  0.7580  0.2135  0.0325
16696TIP3   OH271502   6.591   5.597  15.460 -0.1531 -0.2674  0.7622
16696TIP3    H171503   6.668   5.551  15.494  0.2879  1.2211  1.8876
16696TIP3    H271504   6.562   5.543  15.387  2.5873 -0.3712 -0.3920
16697TIP3   OH271505   6.471   5.209  11.698  0.2134 -0.8615 -0.4951
16697TIP3    H171506   6.464   5.229  11.605  0.6199 -0.8901 -0.5314
16697TIP3    H271507   6.468   5.114  11.702 -1.2881 -0.8243 -0.3563
16698TIP3   OH271508   4.567   4.316   1.451  0.3622 -0.0714  0.5109
16698TIP3    H171509   4.626   4.335   1.523  0.8470 -0.7921  0.3144
16698TIP3    H271510   4.600   4.235   1.413  0.1655  0.3304 -0.5699
16699TIP3   OH271511   3.853   4.381  11.430 -0.2213  0.3694  0.3654
16699TIP3    H171512   3.901   4.381  11.512  1.7984 -0.5597 -0.7368
16699TIP3    H271513   3.855   4.471  11.400  0.6120  0.3967  0.4826
16700TIP3   OH271514   4.857   2.412  10.718  0.2260 -0.1132 -0.6780
16700TIP3    H171515   4.810   2.372  10.645 -0.0801 -1.3302  0.1369
16700TIP3    H271516   4.794   2.474  10.756 -1.1331 -2.2843  0.8794
16701TIP3   OH271517   5.653   6.001  16.299  0.8909 -0.4262 -0.1892
16701TIP3    H171518   5.589   5.963  16.358  0.0862  0.2615 -0.5917
16701TIP3    H271519   5.720   6.038  16.356  1.4882 -2.0699  0.2145
16702TIP3   OH271520   6.001   2.013   0.005  0.0195 -0.4936 -0.5378
16702TIP3    H171521   5.982   2.101  -0.029  2.4835  0.3770  0.0828
16702TIP3    H271522   6.036   2.029   0.093  1.4259 -1.9828 -0.7759
16703TIP3   OH271523   1.476   3.153  15.832 -0.3138  0.4689  0.0633
16703TIP3    H171524   1.496   3.202  15.752 -1.4082 -0.5938 -0.8850
16703TIP3    H271525   1.438   3.219  15.891  0.8122  1.3339 -0.1332
16704TIP3   OH271526   4.802   0.155   1.314 -0.1504 -0.3008  0.0128
16704TIP3    H171527   4.851   0.196   1.243  0.7559  1.0325  1.3385
16704TIP3    H271528   4.719   0.129   1.274  1.4749 -2.4101 -2.2464
16705TIP3   OH271529   2.403   6.693  12.116  0.1302 -0.7004 -0.1843
16705TIP3    H171530   2.444   6.721  12.034  0.7007  0.1700  0.3793
16705TIP3    H271531   2.475   6.693  12.180 -0.5071 -0.3365  0.5509
16706TIP3   OH271532   3.795   1.555  15.919 -0.1497  0.6788 -0.0203
16706TIP3    H171533   3.732   1.535  15.850 -0.5635  0.5980  0.3758
16706TIP3    H271534   3.750   1.617  15.976 -0.5044 -0.6343  1.1806
16707TIP3   OH271535   5.723   4.984   3.204 -0.3281  0.2383  0.2489
16707TIP3    H171536   5.769   4.963   3.285 -1.3060  1.2198  1.0999
16707TIP3    H271537   5.678   4.903   3.180 -0.9479  0.2383  1.3359
16708TIP3   OH271538   1.427   2.514  12.666  0.3238 -0.2322  0.4172
16708TIP3    H171539   1.373   2.571  12.611  0.4870  0.4810  0.9782
16708TIP3    H271540   1.482   2.466  12.605  1.2445  1.3043 -0.0214
16709TIP3   OH271541   1.054   1.253  15.992  0.3940  0.5673 -0.0585
16709TIP3    H171542   1.096   1.220  16.072 -0.5226  0.1699  0.2729
16709TIP3    H271543   1.018   1.175  15.950 -0.1037  0.9077 -0.2787
16710TIP3   OH271544   0.222   4.066   4.269  0.2502  0.0418 -0.0413
16710TIP3    H171545   0.229   4.067   4.173  0.1783 -2.4160 -0.1340
16710TIP3    H271546   0.148   4.123   4.288 -0.8515 -0.7957 -1.6011
16711TIP3   OH271547   3.013   3.190  14.231  0.7849 -0.4742  0.0968
16711TIP3    H171548   3.026   3.280  14.200 -3.4701  0.8122  1.4027
16711TIP3    H271549   2.990   3.141  14.152  2.8807 -0.4887 -0.5839
16712TIP3   OH271550   2.867   0.926   1.843 -0.0935 -0.0411  0.1367
16712TIP3    H171551   2.949   0.944   1.889  0.0365 -0.5711  0.1189
16712TIP3    H271552   2.879   0.967   1.757  1.1191 -2.0607 -0.7496
16713TIP3   OH271553   1.573   1.205   6.711  0.1239 -0.0969 -0.1103
16713TIP3    H171554   1.624   1.140   6.663  0.1991 -2.1369  2.5190
16713TIP3    H271555   1.639   1.266   6.745  0.5375 -0.9894  0.7423
16714TIP3   OH271556   5.059   1.035   6.121  0.0034  0.3009  0.1384
16714TIP3    H171557   5.130   1.041   6.057 -1.1869 -0.4353 -1.2872
16714TIP3    H271558   5.022   0.948   6.109 -2.2817  1.2782 -0.4005
16715TIP3   OH271559   0.392   5.268  11.453  0.4008  0.4534  0.4655
16715TIP3    H171560   0.452   5.339  11.428  0.8894  0.3102  1.1702
16715TIP3    H271561   0.379   5.218  11.373  1.5561  0.2549  0.3774
16716TIP3   OH271562   3.957   0.946  12.866 -0.2741 -0.5428  0.2203
16716TIP3    H171563   3.941   0.872  12.924  1.4454 -1.9957 -1.0538
16716TIP3    H271564   4.052   0.958  12.866 -0.4256  1.0057 -0.4169
16717TIP3   OH271565   0.034   4.966  12.690  0.1152  0.3742  0.1492
16717TIP3    H171566   0.015   4.924  12.775 -0.9955  2.5280  1.0425
16717TIP3    H271567   0.041   5.059  12.711 -0.4157  0.9929 -2.1790
16718TIP3   OH271568   4.065   2.441   3.103 -0.1435  0.1628 -0.6445
16718TIP3    H171569   4.128   2.508   3.077 -0.6027  0.7777 -0.1983
16718TIP3    H271570   4.101   2.359   3.068  0.2295  0.6917 -1.5261
16719TIP3   OH271571   5.263   0.195  11.989  0.0224  0.5562 -0.4720
16719TIP3    H171572   5.207   0.233  12.056 -0.1927 -0.8043  0.1424
16719TIP3    H271573   5.217   0.212  11.907  0.8905  3.3603 -0.4982
16720TIP3   OH271574   4.101   5.722  14.262  0.1426 -0.1092  0.5425
16720TIP3    H171575   4.139   5.778  14.331 -1.2855 -0.0498  1.3169
16720TIP3    H271576   4.079   5.783  14.192  0.5501 -0.0056  0.5024
16721TIP3   OH271577   5.409   5.382   6.179 -0.2308  0.1349  0.3055
16721TIP3    H171578   5.337   5.437   6.150  0.5824  0.7471 -0.6173
16721TIP3    H271579   5.393   5.369   6.273 -1.6238  0.0962  0.0778
16722TIP3   OH271580   6.533   0.085  16.552  0.4580 -0.2235 -0.4599
16722TIP3    H171581   6.593   0.025  16.596  0.0591  0.3899  0.9792
16722TIP3    H271582   6.548   0.070  16.458  0.2083 -2.6863 -0.1587
16723TIP3   OH271583   3.829   0.812   2.736  0.4297  0.3135 -0.3787
16723TIP3    H171584   3.823   0.763   2.818 -0.2508  1.4459  0.2598
16723TIP3    H271585   3.750   0.865   2.733  0.1902 -0.0917 -2.0325
16724TIP3   OH271586   4.782   5.935  12.886 -0.2550  0.1789  0.1024
16724TIP3    H171587   4.805   5.845  12.865 -2.2461 -0.2727 -0.3322
16724TIP3    H271588   4.729   5.929  12.965  0.4237  1.0952  0.6528
16725TIP3   OH271589   2.720   3.036   2.956  0.1738  0.0141  0.2991
16725TIP3    H171590   2.760   3.105   2.903 -1.0616 -0.4432 -1.3023
16725TIP3    H271591   2.689   2.971   2.893 -2.5901  0.0786  1.4109
16726TIP3   OH271592   3.140   2.955  13.216  0.3750  0.8014 -0.1927
16726TIP3    H171593   3.073   2.899  13.178  0.6342 -0.1249  0.6834
16726TIP3    H271594   3.221   2.904  13.208  0.6304  1.0825  0.5437
16727TIP3   OH271595   1.377   4.807  12.667 -0.2890  0.1540 -0.3518
16727TIP3    H171596   1.460   4.771  12.699 -0.4850  0.0554  0.0669
16727TIP3    H271597   1.311   4.743  12.696 -0.5440  0.4037 -0.3740
16728TIP3   OH271598   6.059   3.831  11.777 -0.0362  0.1072  0.1306
16728TIP3    H171599   6.143   3.816  11.820  0.2310  0.3368 -0.3089
16728TIP3    H271600   5.995   3.824  11.848  0.4683  1.3679  0.7361
16729TIP3   OH271601   2.864   5.823   1.862 -0.0516  0.3026  0.4770
16729TIP3    H171602   2.892   5.765   1.933 -0.3037 -0.0557  0.2848
16729TIP3    H271603   2.916   5.903   1.874  2.4841 -1.0078 -1.0090
16730TIP3   OH271604   1.737   1.809   0.734 -0.2914 -0.4466  0.3698
16730TIP3    H171605   1.767   1.863   0.660  0.6973 -2.2349 -0.5890
16730TIP3    H271606   1.678   1.867   0.783  0.8885  1.5698 -0.4625
16731TIP3   OH271607   2.795   2.463   2.402  0.2041 -0.0642  0.2095
16731TIP3    H171608   2.825   2.537   2.350 -0.0317 -0.2707 -0.2237
16731TIP3    H271609   2.873   2.410   2.417  0.3124  0.1080  0.2516
16732TIP3   OH271610   4.522   5.981   1.519 -0.0514  0.0120 -0.2077
16732TIP3    H171611   4.430   5.956   1.528 -0.8045  1.4812 -2.7033
16732TIP3    H271612   4.533   6.052   1.582 -1.0237  0.6396 -0.7054
16733TIP3   OH271613   2.114   1.592  14.466 -0.5790  0.0859  0.1063
16733TIP3    H171614   2.207   1.616  14.473 -0.4174 -0.2310 -0.8953
16733TIP3    H271615   2.076   1.624  14.548  0.6521 -0.8885  1.1102
16734TIP3   OH271616   6.085   0.217   5.946 -0.3728  0.3900 -0.1353
16734TIP3    H171617   6.141   0.150   5.986 -1.1418 -0.6232 -0.7084
16734TIP3    H271618   6.127   0.300   5.970  0.2075 -0.2528  1.2033
16735TIP3   OH271619   6.683   2.360  12.728  0.3945 -0.3968 -0.6240
16735TIP3    H171620   6.775   2.342  12.707  0.8492  0.5918  0.4247
16735TIP3    H271621   6.680   2.364  12.823 -0.5422  0.5207 -0.6722
16736TIP3   OH271622   0.777   5.903   1.304 -0.3461 -0.3603 -0.3372
16736TIP3    H171623   0.711   5.962   1.340 -1.0635  0.6817 -3.1683
16736TIP3    H271624   0.849   5.960   1.279 -1.1588 -0.4979 -3.3654
16737TIP3   OH271625   1.680   0.467  11.870 -0.2787 -0.0984  0.1183
16737TIP3    H171626   1.753   0.459  11.809  0.2888  2.9898  0.2390
16737TIP3    H271627   1.602   0.457  11.815  0.1176 -3.3198 -0.0223
16738TIP3   OH271628   5.217   1.470   3.518  0.0025 -0.2577  0.1606
16738TIP3    H171629   5.148   1.440   3.459  0.6713 -0.6601 -0.4363
16738TIP3    H271630   5.184   1.450   3.606 -0.2584 -1.2800 -0.1565
16739TIP3   OH271631   0.720   4.029   0.957  0.2314 -0.5203  1.0689
16739TIP3    H171632   0.805   4.063   0.932 -0.2266 -1.8965 -3.0191
16739TIP3    H271633   0.731   3.934   0.959 -1.1816 -0.7259  0.4411
16740TIP3   OH271634   4.938   0.298  14.289  0.3109  0.4227  0.0638
16740TIP3    H171635   4.963   0.209  14.262  0.8978  1.0828 -1.7019
16740TIP3    H271636   5.020   0.338  14.318  0.3036  0.8041 -0.4251
16741TIP3   OH271637   3.346   1.158  12.711 -0.3215 -0.5077  0.3835
16741TIP3    H171638   3.386   1.141  12.625 -0.2024 -0.5450  0.4468
16741TIP3    H271639   3.378   1.088  12.767  1.1714  0.5920  0.9767
16742TIP3   OH271640   2.944   2.914  13.436  0.5852  0.6214 -0.4336
16742TIP3    H171641   2.983   2.831  13.462 -1.2189  0.1590  1.0161
16742TIP3    H271642   3.017   2.966  13.401  2.0672 -0.9028  0.2987
16743TIP3   OH271643   5.473   5.969   4.587  0.4317 -0.5037  0.1130
16743TIP3    H171644   5.505   5.899   4.530 -2.6244 -0.0730 -2.4199
16743TIP3    H271645   5.481   6.049   4.535 -1.3800  0.1089  0.6905
16744TIP3   OH271646   6.481   5.440   0.640 -0.2468 -0.1441 -0.1058
16744TIP3    H171647   6.409   5.388   0.604 -0.8556  0.4067  0.2880
16744TIP3    H271648   6.438   5.506   0.694  0.4018  1.6609 -1.6721
16745TIP3   OH271649   5.613   5.375   6.001  0.8386 -0.4352  0.6072
16745TIP3    H171650   5.654   5.462   6.001 -0.3053  0.1466 -0.1531
16745TIP3    H271651   5.542   5.382   6.065  0.2204 -0.5207 -0.0467
16746TIP3   OH271652   5.315   0.968   2.386 -0.2013  0.1588  0.2596
16746TIP3    H171653   5.335   0.966   2.479 -0.8103 -0.3206  0.3914
16746TIP3    H271654   5.226   1.003   2.381 -0.4965 -0.5930 -0.0662
16747TIP3   OH271655   0.469   0.459   5.419 -0.5165 -0.2312 -0.7154
16747TIP3    H171656   0.467   0.414   5.335  1.4173  0.7310 -1.3519
16747TIP3    H271657   0.430   0.398   5.481 -0.2575 -1.7322 -1.9807
16748TIP3   OH271658   3.586   4.527   2.208  0.2245  0.3645  0.1445
16748TIP3    H171659   3.556   4.574   2.286 -1.4589 -0.4205  0.0119
16748TIP3    H271660   3.674   4.561   2.191  0.0012  1.6669  1.4711
16749TIP3   OH271661   3.165   1.286   5.823 -0.4227 -0.0912 -0.0090
16749TIP3    H171662   3.222   1.242   5.759 -0.0779 -2.1271  1.5988
16749TIP3    H271663   3.088   1.229   5.830 -1.1333  0.8841  0.3046
16750TIP3   OH271664   5.730   2.636  16.161  0.3964  0.4095 -0.1562
16750TIP3    H171665   5.654   2.690  16.142  0.4555  0.1583 -1.1403
16750TIP3    H271666   5.697   2.568  16.220  0.6089  2.2546  2.2455
16751TIP3   OH271667   2.618   3.725  13.855 -0.0338 -0.5599  0.2098
16751TIP3    H171668   2.711   3.704  13.853  0.2774  0.5346  1.4558
16751TIP3    H271669   2.609   3.799  13.794  0.1239  0.0254  0.8846
16752TIP3   OH271670   4.261   5.977   5.121  0.0483 -0.2084  0.1119
16752TIP3    H171671   4.280   5.920   5.046 -0.1192 -1.1097  0.7323
16752TIP3    H271672   4.306   6.059   5.101  0.1218 -0.4783 -0.9047
16753TIP3   OH271673   6.532   5.013   5.117 -0.6603 -0.1739 -0.0902
16753TIP3    H171674   6.486   5.096   5.125 -1.8891 -0.7329 -0.9739
16753TIP3    H271675   6.617   5.028   5.159 -1.5159  0.9965  1.3511
16754TIP3   OH271676   2.240   1.553   0.250 -0.0524 -0.5328 -0.0936
16754TIP3    H171677   2.148   1.538   0.272  0.4104 -1.9093  1.0388
16754TIP3    H271678   2.287   1.482   0.293  1.4080 -0.7314 -1.8792
16755TIP3   OH271679   2.301   4.554   4.431 -0.0608 -0.3255 -0.2561
16755TIP3    H171680   2.241   4.519   4.498 -0.4139  1.4242  0.4045
16755TIP3    H271681   2.364   4.605   4.481 -0.8719  1.7956 -1.2718
16756TIP3   OH271682   0.278   4.708   5.291 -0.3399 -0.5910  0.0876
16756TIP3    H171683   0.198   4.744   5.328 -1.1862  0.9113 -2.8682
16756TIP3    H271684   0.254   4.620   5.262 -0.5441 -0.6273  0.3648
16757TIP3   OH271685   2.996   2.444   4.505 -0.1659  0.4217 -0.1296
16757TIP3    H171686   3.054   2.376   4.539 -2.3607 -1.0222  0.9532
16757TIP3    H271687   3.000   2.434   4.410  1.2066  0.2853 -0.0810
16758TIP3   OH271688   5.929   2.327  13.631  0.0332  0.4130 -0.1664
16758TIP3    H171689   5.936   2.321  13.727  1.0312 -1.6840 -0.3083
16758TIP3    H271690   6.014   2.297  13.600 -0.2187  1.2478 -1.7404
16759TIP3   OH271691   5.994   3.470  16.804  0.3995  0.3326  0.5003
16759TIP3    H171692   5.910   3.449  16.845 -0.1219  0.4426 -0.4752
16759TIP3    H271693   5.979   3.555  16.763  0.4792 -0.3505 -1.0171
16760TIP3   OH271694   1.997   3.655   3.277  0.2000 -0.1244  0.5933
16760TIP3    H171695   1.944   3.591   3.323  0.3133  0.7435  1.9918
16760TIP3    H271696   2.065   3.680   3.340 -0.5846  2.2727  0.5689
16761TIP3   OH271697   5.168   2.687  14.641  0.1913  0.2541  0.3111
16761TIP3    H171698   5.198   2.598  14.625 -1.0607 -0.0071 -0.7817
16761TIP3    H271699   5.079   2.677  14.675 -0.9505  1.0646 -2.1500
16762TIP3   OH271700   6.428   3.380  16.747  0.3320  0.6093  0.6034
16762TIP3    H171701   6.475   3.463  16.736  0.0683  0.6270 -0.5604
16762TIP3    H271702   6.449   3.330  16.668 -0.5207  0.0800  0.7002
16763TIP3   OH271703   0.658   3.937  14.457 -0.0195 -0.1436  0.0898
16763TIP3    H171704   0.572   3.899  14.472 -0.9230  1.2827 -1.1330
16763TIP3    H271705   0.641   4.010  14.398  2.0318  0.2268 -0.1019
16764TIP3   OH271706   1.955   2.491   3.497  0.8764 -0.6092 -0.0789
16764TIP3    H171707   2.030   2.546   3.519  0.2993  0.2685 -0.2780
16764TIP3    H271708   1.992   2.423   3.440  1.2634  0.7720 -1.5693
16765TIP3   OH271709   5.405   3.214  14.802  0.2392  0.1299  0.5514
16765TIP3    H171710   5.454   3.146  14.756 -1.7889 -0.4983 -0.8291
16765TIP3    H271711   5.383   3.278  14.734 -0.4990  0.5776  1.1949
16766TIP3   OH271712   5.665   1.460   3.544 -0.2343  0.0432  0.0171
16766TIP3    H171713   5.591   1.419   3.588  0.2624 -2.0341 -0.9562
16766TIP3    H271714   5.736   1.455   3.608 -0.8896  2.1116  0.9818
16767TIP3   OH271715   2.885   1.724  12.501  0.4663 -0.0460  0.0347
16767TIP3    H171716   2.881   1.773  12.583  1.1791  0.6683 -0.3412
16767TIP3    H271717   2.854   1.785  12.435  1.0272 -0.2239 -0.3969
16768TIP3   OH271718   2.923   5.020  11.773 -0.0810  0.0097  0.2925
16768TIP3    H171719   3.006   4.972  11.770 -0.4489 -0.6018 -0.3935
16768TIP3    H271720   2.945   5.108  11.742  0.4404  0.0479  0.7697
16769TIP3   OH271721   2.237   0.829   0.387 -0.4658 -0.3133  0.4385
16769TIP3    H171722   2.321   0.847   0.430  0.0056 -0.4983 -0.3692
16769TIP3    H271723   2.259   0.766   0.318 -0.8346  1.4555 -1.3590
16770TIP3   OH271724   2.986   0.324  14.786 -0.2892  0.0279  0.1441
16770TIP3    H171725   2.990   0.250  14.726 -2.1257 -0.6797  0.8397
16770TIP3    H271726   3.075   0.359  14.787  0.6652 -2.2567 -0.0815
16771TIP3   OH271727   3.389   2.023  14.839 -0.3233  0.1030  0.1965
16771TIP3    H171728   3.346   2.001  14.756 -1.3616 -0.0125  0.7583
16771TIP3    H271729   3.353   2.109  14.863  0.5585  0.5011  0.1481
16772TIP3   OH271730   6.007   4.516   0.339  0.1217  0.1186 -0.3472
16772TIP3    H171731   6.037   4.580   0.403  0.5332 -0.9423  0.5448
16772TIP3    H271732   5.935   4.470   0.382  1.0960 -1.3279 -0.2096
16773TIP3   OH271733   2.842   1.188  10.574 -0.1027  0.4666 -0.0218
16773TIP3    H171734   2.762   1.136  10.577  0.0944  0.1640 -0.0142
16773TIP3    H271735   2.891   1.162  10.652  1.2822 -1.4152 -1.4371
16774TIP3   OH271736   5.874   5.327  15.105  0.5102 -1.1325  0.3049
16774TIP3    H171737   5.805   5.356  15.046  0.5979 -2.3195 -0.4161
16774TIP3    H271738   5.862   5.380  15.184  2.2973  2.8062 -1.7504
16775TIP3   OH271739   1.397   0.799  12.881  0.0871 -0.3975 -0.4256
16775TIP3    H171740   1.463   0.840  12.936 -0.6945 -0.9363  0.9672
16775TIP3    H271741   1.441   0.724  12.842  0.2732 -0.8591  0.6398
16776TIP3   OH271742   3.947   1.956   6.181  0.8005 -0.6480  0.4933
16776TIP3    H171743   3.989   2.007   6.250  1.1100 -0.9766  0.5503
16776TIP3    H271744   3.979   1.867   6.194 -1.9297 -1.5074  2.2151
16777TIP3   OH271745   6.165   6.323   1.369 -0.1302  0.1750 -0.0750
16777TIP3    H171746   6.192   6.316   1.277  0.3126 -1.3603  0.1523
16777TIP3    H271747   6.071   6.308   1.367 -0.1539  0.3388 -0.2936
16778TIP3   OH271748   1.108   0.257  14.794  0.1428  0.0443 -0.0205
16778TIP3    H171749   1.133   0.191  14.859 -0.3665  0.5346  0.6906
16778TIP3    H271750   1.050   0.211  14.734  2.2272 -0.9623 -1.3655
16779TIP3   OH271751   3.206   1.459  13.086 -0.2060  0.0354 -0.3528
16779TIP3    H171752   3.120   1.497  13.071 -0.2247 -0.6313 -2.2269
16779TIP3    H271753   3.233   1.425  13.000  0.2525 -3.2437  0.9436
16780TIP3   OH271754   2.357   6.187   1.241 -0.2010 -0.1099  0.1465
16780TIP3    H171755   2.369   6.097   1.211  0.7361  0.0582 -0.0321
16780TIP3    H271756   2.287   6.182   1.306 -0.3601 -0.9169 -0.0784
16781TIP3   OH271757   1.765   3.258  15.393 -0.4435  0.1282  0.4387
16781TIP3    H171758   1.739   3.327  15.332  0.8968 -1.1852 -1.7589
16781TIP3    H271759   1.809   3.303  15.465  2.5190  1.5578 -2.0373
16782TIP3   OH271760   5.833   5.056  14.469 -0.8706 -0.2775  0.5051
16782TIP3    H171761   5.776   5.095  14.536  0.0741 -1.7018  2.2109
16782TIP3    H271762   5.805   4.965  14.464 -0.3917 -0.3819 -0.4868
16783TIP3   OH271763   5.658   1.443   5.949 -0.0143  0.2004  0.0751
16783TIP3    H171764   5.652   1.363   5.896 -0.8400  0.7714 -0.7155
16783TIP3    H271765   5.603   1.424   6.026  0.1903 -0.1692  0.1365
16784TIP3   OH271766   5.836   0.612   3.092  0.0984  0.5163  0.5824
16784TIP3    H171767   5.917   0.573   3.060  0.7984  1.7924  0.7249
16784TIP3    H271768   5.853   0.630   3.184 -0.8428 -0.4097  0.9557
16785TIP3   OH271769   3.636   3.031   0.774 -0.3380  0.8176  0.0888
16785TIP3    H171770   3.713   3.078   0.805 -0.0158  1.9597 -2.2792
16785TIP3    H271771   3.655   2.939   0.793  1.5320  1.0995 -0.2797
16786TIP3   OH271772   2.770   4.189   5.534  0.1229 -0.0664  0.1364
16786TIP3    H171773   2.724   4.112   5.501 -0.8526  0.6442 -0.1778
16786TIP3    H271774   2.846   4.197   5.477  0.1230 -0.6684  0.0408
16787TIP3   OH271775   2.528   2.318  11.513  0.0768  0.3739 -0.1111
16787TIP3    H171776   2.440   2.279  11.507  0.2902 -0.1213 -0.0766
16787TIP3    H271777   2.561   2.317  11.424  1.2857 -2.3889  0.2518
16788TIP3   OH271778   0.264   6.132  12.186 -0.2259 -0.5665  0.3813
16788TIP3    H171779   0.309   6.049  12.172 -0.1044 -0.5203  0.4866
16788TIP3    H271780   0.311   6.172  12.260  0.5251  0.1761 -0.4787
16789TIP3   OH271781   0.798   3.220  13.057  0.4360 -0.9156 -0.2279
16789TIP3    H171782   0.874   3.174  13.021  0.5923 -0.8738  0.0499
16789TIP3    H271783   0.726   3.158  13.046  1.1501 -2.4603  2.7393
16790TIP3   OH271784   1.814   0.430   2.383  0.4183 -0.1385  0.0470
16790TIP3    H171785   1.813   0.524   2.401  0.5942  0.1171 -1.2275
16790TIP3    H271786   1.742   0.395   2.436 -0.2681  0.8555 -0.2081
16791TIP3   OH271787   2.147   4.403  16.484  0.0277  0.2078 -0.7469
16791TIP3    H171788   2.165   4.312  16.460  0.7453  0.6295 -1.8342
16791TIP3    H271789   2.070   4.426  16.432 -1.1701 -0.2585  0.7384
16792TIP3   OH271790   3.119   2.953   2.000  0.4795 -0.5425 -0.2199
16792TIP3    H171791   3.131   3.044   1.975  1.5513 -0.4652  0.5201
16792TIP3    H271792   3.170   2.903   1.936 -0.3083 -0.6500 -0.7750
16793TIP3   OH271793   6.773   2.042  15.080  0.3154 -0.2679  0.6480
16793TIP3    H171794   6.784   2.072  15.170 -1.1727 -0.4608  0.9232
16793TIP3    H271795   6.846   2.081  15.032  0.3571  0.9687  1.6711
16794TIP3   OH271796   2.387   2.496  10.635  0.5518  0.1976 -0.2369
16794TIP3    H171797   2.471   2.470  10.674  0.8751 -0.7520 -1.5022
16794TIP3    H271798   2.322   2.445  10.684  0.9541 -0.9836 -0.8774
16795TIP3   OH271799   5.818   2.890  12.698  0.3152 -0.3974  0.3972
16795TIP3    H171800   5.838   2.936  12.780 -0.2252 -1.0560  0.9142
16795TIP3    H271801   5.737   2.842  12.717  0.0060 -0.2941 -0.6369
16796TIP3   OH271802   1.264   1.498   5.297 -0.2846 -0.1274  0.4018
16796TIP3    H171803   1.329   1.568   5.288 -0.7205  0.4899  1.7326
16796TIP3    H271804   1.308   1.420   5.265  0.1199  0.7846 -1.3722
16797TIP3   OH271805   0.280   2.098  15.918  0.0516 -0.0050  0.4124
16797TIP3    H171806   0.338   2.025  15.937  1.8408  1.7503  2.2116
16797TIP3    H271807   0.292   2.115  15.825  1.4756 -0.4980  0.4823
16798TIP3   OH271808   2.054   2.901  13.044  0.0720  0.0491  0.4559
16798TIP3    H171809   2.041   2.908  13.139 -2.8027 -0.1436  0.1824
16798TIP3    H271810   2.000   2.971  13.008  0.9534 -0.0178 -1.0686
16799TIP3   OH271811   4.821   3.890   3.455 -0.3459  0.1104  0.3679
16799TIP3    H171812   4.901   3.903   3.405 -0.0486  1.5715  1.1502
16799TIP3    H271813   4.751   3.918   3.396 -0.0022  1.7777  0.7050
16800TIP3   OH271814   5.013   0.950  11.961 -0.1170 -0.2611 -0.3202
16800TIP3    H171815   4.981   0.955  11.871  0.5975  0.0341 -0.5673
16800TIP3    H271816   5.107   0.936  11.952  0.2041  1.2538  0.3580
16801TIP3   OH271817   2.921   2.088   2.862 -0.3516  0.1135 -0.0550
16801TIP3    H171818   2.930   2.022   2.931  0.3702  1.0538  0.7935
16801TIP3    H271819   2.831   2.078   2.830 -1.0089  0.2089  1.6354
16802TIP3   OH271820   5.368   2.070  12.349  0.9367  0.6822 -0.0999
16802TIP3    H171821   5.360   2.146  12.407 -1.3925 -0.4466  1.2299
16802TIP3    H271822   5.407   2.002  12.403 -0.6687 -0.2012  0.0075
16803TIP3   OH271823   1.286   4.928   2.494 -0.3757 -0.5766  0.1329
16803TIP3    H171824   1.293   5.002   2.555  0.1251 -0.1791 -0.3901
16803TIP3    H271825   1.222   4.870   2.534 -1.4516  0.5594  0.1271
16804TIP3   OH271826   3.571   0.171  17.143 -0.5738  0.1303 -0.0935
16804TIP3    H171827   3.511   0.131  17.206  0.0661  1.4566  1.4436
16804TIP3    H271828   3.658   0.158  17.180 -0.1939  1.0697 -0.6014
16805TIP3   OH271829   2.540   4.257  13.539 -0.4057  0.3044  1.3406
16805TIP3    H171830   2.628   4.233  13.509 -0.6677 -0.2581  1.0083
16805TIP3    H271831   2.484   4.186  13.508 -1.7728  2.7201 -2.3475
16806TIP3   OH271832   6.760   1.765   2.678  0.6612 -0.1834  0.4282
16806TIP3    H171833   6.744   1.711   2.756  1.0503  0.6887  1.1369
16806TIP3    H271834   6.809   1.841   2.711 -1.2077  1.4065 -0.2270
16807TIP3   OH271835   6.083   6.503   5.519  0.3323 -0.1722  0.2972
16807TIP3    H171836   6.093   6.584   5.470 -1.3310 -0.6484 -0.9108
16807TIP3    H271837   6.103   6.527   5.610 -0.5898  1.7133  0.0431
16808TIP3   OH271838   3.578   3.697   0.245 -0.1205 -0.0921  0.3313
16808TIP3    H171839   3.492   3.668   0.274 -1.0345  2.0865 -0.0059
16808TIP3    H271840   3.572   3.699   0.149  1.1078 -2.0955  0.1497
16809TIP3   OH271841   4.749   0.032   5.812  0.2738  0.1121  0.1948
16809TIP3    H171842   4.698   0.094   5.760  0.6446  0.4438  0.2232
16809TIP3    H271843   4.802  -0.016   5.748 -0.1015 -0.2601  0.1610
16810TIP3   OH271844   4.011   6.328   1.460  0.5111  0.2832 -0.1766
16810TIP3    H171845   4.030   6.271   1.534  0.4616  1.3532  0.6680
16810TIP3    H271846   4.088   6.319   1.403  0.2401 -1.0749 -0.3598
16811TIP3   OH271847   2.737   1.690   3.848  0.0931 -0.1378 -0.2304
16811TIP3    H171848   2.674   1.619   3.856 -0.1725  0.2422  1.6111
16811TIP3    H271849   2.712   1.736   3.767 -1.4589 -0.5017  0.0153
16812TIP3   OH271850   6.327   6.326   3.865  0.3793  0.7557  0.0160
16812TIP3    H171851   6.342   6.421   3.863 -0.2986  0.8731  0.0989
16812TIP3    H271852   6.397   6.292   3.920  0.5203  1.2328  0.1396
16813TIP3   OH271853   5.829   2.658   0.300 -0.1657 -0.2561  0.3569
16813TIP3    H171854   5.798   2.568   0.286 -1.3209  0.0624  0.6962
16813TIP3    H271855   5.829   2.698   0.213  1.2621 -0.8404  0.0654
16814TIP3   OH271856   5.896   4.098   3.823 -0.1803 -0.3338 -0.5896
16814TIP3    H171857   5.836   4.071   3.893 -1.1508 -0.2880 -1.3908
16814TIP3    H271858   5.966   4.033   3.825  0.6070  0.4866  1.3856
16815TIP3   OH271859   2.630   2.753   3.171 -0.2058  0.1868  0.3275
16815TIP3    H171860   2.675   2.824   3.218 -1.0548  0.9919 -0.0551
16815TIP3    H271861   2.613   2.687   3.238  2.2829 -0.5438  0.3376
16816TIP3   OH271862   4.076   2.508   4.662 -0.9400 -0.0061 -0.2813
16816TIP3    H171863   4.146   2.463   4.614 -0.0865 -1.2642  1.9965
16816TIP3    H271864   4.018   2.437   4.689 -0.2420  0.3164  2.3086
16817TIP3   OH271865   2.551   6.277  13.035  0.5664 -0.0829 -0.3890
16817TIP3    H171866   2.485   6.345  13.018  0.3288  0.2539  1.6581
16817TIP3    H271867   2.570   6.285  13.128  3.5875 -0.1472 -0.9276
16818TIP3   OH271868   4.232   1.603   4.937  0.7888 -0.1216  0.2171
16818TIP3    H171869   4.317   1.560   4.938 -0.3610 -2.6038 -0.4033
16818TIP3    H271870   4.176   1.548   4.993 -1.0488 -0.1342 -1.5095
16819TIP3   OH271871   5.918   0.905  13.517  0.1113  0.1933  0.6325
16819TIP3    H171872   5.909   0.812  13.496  2.1758  0.5511 -2.4420
16819TIP3    H271873   5.939   0.906  13.611 -0.4921 -2.3719  0.8561
16820TIP3   OH271874   5.647   5.602   4.763  0.2098 -0.3659 -0.3978
16820TIP3    H171875   5.699   5.526   4.790 -1.8656 -0.8512  2.6699
16820TIP3    H271876   5.556   5.574   4.774 -0.6357  2.2885  0.0672
16821TIP3   OH271877   6.332   2.890  12.487  0.5518  0.2161 -0.0767
16821TIP3    H171878   6.379   2.866  12.408  0.3191 -0.5803  0.0239
16821TIP3    H271879   6.253   2.837  12.485  0.5994  0.1037  0.7518
16822TIP3   OH271880   1.484   6.530   5.491 -0.2891  0.0487 -0.0708
16822TIP3    H171881   1.536   6.598   5.448 -0.2564 -0.1679 -0.3732
16822TIP3    H271882   1.472   6.562   5.580  2.1026 -0.8077  0.6525
16823TIP3   OH271883   4.622   3.355  12.631  0.0379 -0.1051 -0.2672
16823TIP3    H171884   4.559   3.303  12.680  1.3454 -0.5072  1.0863
16823TIP3    H271885   4.594   3.446  12.642 -0.7534 -0.3331 -0.3907
16824TIP3   OH271886   4.284   2.226  16.489  0.3917  0.3246  0.4896
16824TIP3    H171887   4.288   2.297  16.553 -0.9677 -0.1643  1.1643
16824TIP3    H271888   4.262   2.148  16.541  1.7459 -0.5917 -0.2492
16825TIP3   OH271889   6.640   1.657  14.786  0.0166  0.4122 -0.1444
16825TIP3    H171890   6.580   1.717  14.741 -0.3428 -1.4529 -2.3200
16825TIP3    H271891   6.582   1.595  14.831  0.3867  1.4285  1.8697
16826TIP3   OH271892   3.715   3.314  14.294 -0.1944 -0.4290  0.3439
16826TIP3    H171893   3.691   3.329  14.202 -0.1489 -0.1415  0.3754
16826TIP3    H271894   3.683   3.392  14.340  1.7664  0.5506  0.2070
16827TIP3   OH271895   1.882   4.841   0.463 -0.0928  0.1772 -0.3505
16827TIP3    H171896   1.801   4.791   0.452  0.6792 -0.8729 -1.6842
16827TIP3    H271897   1.926   4.834   0.378  0.5794  2.2297 -0.2219
16828TIP3   OH271898   2.345   3.716   1.776 -0.0818  0.2578 -0.2774
16828TIP3    H171899   2.313   3.728   1.866  0.7011  0.4271 -0.0168
16828TIP3    H271900   2.413   3.649   1.784  1.9793  2.2459 -0.2732
16829TIP3   OH271901   1.101   4.890  11.938  0.2445 -0.5753 -0.0197
16829TIP3    H171902   1.144   4.919  11.858 -1.2515 -0.0084 -0.6485
16829TIP3    H271903   1.115   4.962  12.000  0.8617 -0.7426  0.0418
16830TIP3   OH271904   0.308   6.623   2.779 -0.6011 -0.0418  0.0751
16830TIP3    H171905   0.367   6.650   2.849 -1.0085  0.5118  0.2108
16830TIP3    H271906   0.253   6.555   2.818 -0.3728 -0.2164  0.0909
16831TIP3   OH271907   1.279   4.846  12.223 -0.3313 -0.1043 -0.6347
16831TIP3    H171908   1.232   4.891  12.294 -1.0067 -2.3818  0.4382
16831TIP3    H271909   1.221   4.775  12.197  1.0801 -0.9289 -1.6282
16832TIP3   OH271910   5.432   3.098  13.520  0.6096 -0.4228  0.3112
16832TIP3    H171911   5.522   3.123  13.542  0.7070 -0.1945 -0.3411
16832TIP3    H271912   5.441   3.028  13.455  0.3398  1.5623 -1.9905
16833TIP3   OH271913   4.112   0.140   6.127  0.9635 -0.1317 -0.7528
16833TIP3    H171914   4.098   0.218   6.074  1.2521  1.2308  1.0927
16833TIP3    H271915   4.136   0.173   6.214 -5.1386 -1.9644  2.2069
16834TIP3   OH271916   2.687   3.980   5.764  0.4004 -0.0759 -0.5292
16834TIP3    H171917   2.688   3.992   5.859  1.1874  1.0529 -0.6634
16834TIP3    H271918   2.649   3.893   5.751  2.3739 -1.2329  0.9244
16835TIP3   OH271919   1.107   2.536   1.552 -0.0685 -0.2065 -0.7814
16835TIP3    H171920   1.103   2.452   1.598 -0.4850  0.1333 -0.1802
16835TIP3    H271921   1.063   2.519   1.468  0.3892 -0.7417 -0.9173
16836TIP3   OH271922   0.007   6.333   5.104 -0.0474 -0.0436 -0.0249
16836TIP3    H171923  -0.001   6.295   5.017  2.5974  0.4779 -0.5627
16836TIP3    H271924  -0.034   6.269   5.162 -1.2102 -0.7373 -1.5436
16837TIP3   OH271925   0.346   6.251   1.479  0.7805 -0.4484  0.1556
16837TIP3    H171926   0.354   6.333   1.431  3.3731 -0.4333  0.4607
16837TIP3    H271927   0.273   6.206   1.438  0.1470  1.4234 -0.8990
16838TIP3   OH271928   0.678   0.791   6.174  0.2520  0.0307  0.3207
16838TIP3    H171929   0.605   0.752   6.222 -0.3217  0.8759  0.1481
16838TIP3    H271930   0.736   0.824   6.242  0.6269 -0.9045  0.4644
16839TIP3   OH271931   2.038   4.240   2.147 -0.0814  0.1280  0.0626
16839TIP3    H171932   2.116   4.195   2.115 -0.5969 -0.4640 -0.3781
16839TIP3    H271933   2.030   4.317   2.091 -0.7438 -0.6833 -0.9980
16840TIP3   OH271934   6.306   1.692   4.416 -0.4931  0.2769  0.3703
16840TIP3    H171935   6.344   1.762   4.362  0.7243 -1.0838 -0.6062
16840TIP3    H271936   6.305   1.616   4.359  0.5250 -1.1490  2.1339
16841TIP3   OH271937   6.402   4.427  16.775  0.1914  0.0976  0.4754
16841TIP3    H171938   6.474   4.442  16.714  1.4284 -1.4220  1.4904
16841TIP3    H271939   6.325   4.418  16.718  1.2769 -1.1448 -0.9040
16842TIP3   OH271940   3.888   5.268  11.291 -0.0788 -0.2278 -0.5253
16842TIP3    H171941   3.982   5.258  11.300 -0.3143 -0.7955  2.4780
16842TIP3    H271942   3.875   5.308  11.205  2.7361 -1.7606 -1.7782
16843TIP3   OH271943   5.831   1.678   3.453 -0.1800  0.4218  0.1955
16843TIP3    H171944   5.839   1.754   3.510  2.0780  0.1105  0.4083
16843TIP3    H271945   5.771   1.619   3.498 -1.9611  2.0269  0.0274
16844TIP3   OH271946   0.051   4.917   6.139  0.0057  0.0348 -0.1545
16844TIP3    H171947   0.079   5.005   6.164 -0.3514 -0.0176  0.4726
16844TIP3    H271948  -0.011   4.892   6.208  0.3031 -0.8076 -0.1815
16845TIP3   OH271949   4.256   5.316   0.148  0.3898 -0.1869 -0.1462
16845TIP3    H171950   4.203   5.323   0.068  0.5536 -2.9304 -0.5709
16845TIP3    H271951   4.334   5.368   0.129  0.6423 -1.1399 -1.9905
16846TIP3   OH271952   2.503   4.904   3.148  0.3169 -0.7775 -0.1865
16846TIP3    H171953   2.553   4.925   3.227 -0.7385 -0.7742  0.4978
16846TIP3    H271954   2.556   4.938   3.076  1.7880 -1.6584  0.4303
16847TIP3   OH271955   1.357   4.770  14.891 -0.3778 -0.0847 -0.3447
16847TIP3    H171956   1.430   4.825  14.862 -0.8710 -0.0330 -1.5714
16847TIP3    H271957   1.394   4.682  14.894 -0.3355 -0.1208 -1.3526
16848TIP3   OH271958   6.141   1.014  16.133 -0.5896  0.1099  0.4964
16848TIP3    H171959   6.180   0.927  16.124 -0.6701  0.1211  0.0157
16848TIP3    H271960   6.212   1.075  16.109 -0.3793  0.2004  1.3292
16849TIP3   OH271961   3.924   1.886  11.212  0.7480 -0.0598 -0.0883
16849TIP3    H171962   3.861   1.820  11.182 -0.2222  0.7289  0.1757
16849TIP3    H271963   4.009   1.841  11.207  0.0665 -1.5046  0.5461
16850TIP3   OH271964   0.962   0.087   1.328  0.4003  0.7599 -0.2924
16850TIP3    H171965   1.046   0.117   1.293  0.9346 -1.1818 -0.7908
16850TIP3    H271966   0.980  -0.001   1.361 -1.6896 -0.2098 -1.5337
16851TIP3   OH271967   1.465   2.749  15.176  0.4166  0.0592  0.5172
16851TIP3    H171968   1.495   2.665  15.210  0.2532 -0.3304 -0.2766
16851TIP3    H271969   1.531   2.812  15.203  0.7133 -0.3861  0.8253
16852TIP3   OH271970   2.873   6.266   2.954 -0.2632 -0.1153 -0.0883
16852TIP3    H171971   2.820   6.306   3.023  0.1917  2.2547 -1.0180
16852TIP3    H271972   2.809   6.230   2.892 -0.8227  1.4835 -0.4921
16853TIP3   OH271973   5.733   1.026   0.394  0.0067 -0.5925  0.3319
16853TIP3    H171974   5.680   0.948   0.414  0.3682 -0.9803 -0.2038
16853TIP3    H271975   5.779   1.004   0.313  0.7467 -0.1344  0.6184
16854TIP3   OH271976   2.689   6.569  12.954 -0.0370  0.0188 -0.1445
16854TIP3    H171977   2.749   6.583  12.880  0.1196  0.2746  0.0308
16854TIP3    H271978   2.743   6.528  13.021  0.7585  2.9704  1.1701
16855TIP3   OH271979   6.377   4.786  11.331  0.8791 -0.6516 -0.0767
16855TIP3    H171980   6.350   4.850  11.265 -0.9000 -1.9055 -0.6364
16855TIP3    H271981   6.301   4.778  11.388  1.6882 -1.0509  0.9662
16856TIP3   OH271982   1.167   5.176  11.963 -0.1463 -0.0493  0.4554
16856TIP3    H171983   1.086   5.143  11.925  0.3065 -1.7795  0.8905
16856TIP3    H271984   1.150   5.180  12.057  0.1422 -0.0268  0.5093
16857TIP3   OH271985   1.354   6.660  16.724 -0.5788 -0.4440  0.4632
16857TIP3    H171986   1.331   6.567  16.718 -1.5398 -0.3334  1.9376
16857TIP3    H271987   1.270   6.705  16.732 -0.1182  0.5589 -0.2163
16858TIP3   OH271988   6.179   2.580  11.468  0.0650  0.1374  0.4710
16858TIP3    H171989   6.237   2.648  11.502  0.3274  0.1872 -0.0602
16858TIP3    H271990   6.228   2.543  11.394 -0.0411 -0.6712  0.7970
16859TIP3   OH271991   0.747   4.162   4.390  0.4332 -0.0014  0.3276
16859TIP3    H171992   0.798   4.084   4.410  1.0389 -0.2501 -1.8859
16859TIP3    H271993   0.660   4.129   4.368 -0.5550  0.3576  3.3286
16860TIP3   OH271994   2.358   1.045   2.351 -0.2357  0.1870  0.2978
16860TIP3    H171995   2.370   1.019   2.260  1.2624 -1.1308  0.8210
16860TIP3    H271996   2.426   0.997   2.399 -0.2662  1.6849  1.9626
16861TIP3   OH271997   4.482   1.368   3.392 -0.5007  0.1370  0.1612
16861TIP3    H171998   4.577   1.372   3.399 -0.5478  0.1691  0.9136
16861TIP3    H271999   4.465   1.300   3.326  0.0492  1.0805 -0.9759
16862TIP3   OH272000   0.055   2.017   3.045 -0.3190  0.0205  0.0044
16862TIP3    H172001  -0.039   2.029   3.030 -0.4740 -0.2039  0.7511
16862TIP3    H272002   0.094   2.099   3.015 -0.6634 -0.1533 -0.9882
16863TIP3   OH272003   2.855   0.416   3.585  0.4345 -0.1720 -0.0112
16863TIP3    H172004   2.876   0.323   3.597 -0.5365 -0.1412  2.8065
16863TIP3    H272005   2.921   0.462   3.637  0.1568  0.6412 -0.3620
16864TIP3   OH272006   5.045   1.497  16.476 -0.2523  0.7469 -0.1013
16864TIP3    H172007   5.099   1.517  16.552 -1.1329 -0.0482  0.7539
16864TIP3    H272008   5.033   1.402  16.479 -0.2300  0.6902 -1.2868
16865TIP3   OH272009   6.614   1.876   2.476  0.0654  0.3644  0.2407
16865TIP3    H172010   6.682   1.912   2.419  0.8395 -0.3625  0.6780
16865TIP3    H272011   6.662   1.829   2.544 -0.8639  0.6167  1.0927
16866TIP3   OH272012   0.383   5.344   0.317  0.0147  1.0026  0.2102
16866TIP3    H172013   0.296   5.378   0.339  0.5238  1.3840  1.8052
16866TIP3    H272014   0.365   5.264   0.268 -1.2695  0.7218  1.0637
16867TIP3   OH272015   4.276   1.808   3.743 -0.2232  0.2385  0.5278
16867TIP3    H172016   4.220   1.752   3.797  1.4144 -0.1672  1.9347
16867TIP3    H272017   4.334   1.746   3.697 -0.8000  0.6468 -0.7896
16868TIP3   OH272018   5.269   6.437  14.869  0.2958  0.2748 -0.1916
16868TIP3    H172019   5.225   6.370  14.921 -0.1023 -0.0118 -0.8771
16868TIP3    H272020   5.338   6.471  14.926 -0.5215  0.4107  0.7492
16869TIP3   OH272021   4.193   3.944  11.547  1.0696 -0.0515 -0.0948
16869TIP3    H172022   4.098   3.946  11.535  0.8227 -2.1024  1.1321
16869TIP3    H272023   4.206   3.931  11.641  2.5809  0.1129 -0.2486
16870TIP3   OH272024   1.471   1.373  13.191 -0.2135  0.6937  0.3547
16870TIP3    H172025   1.481   1.374  13.096  1.3843 -0.8789  0.4391
16870TIP3    H272026   1.386   1.332  13.206 -0.2953  0.5715 -0.4038
16871TIP3   OH272027   0.318   5.477  11.735  0.0471 -0.2297  0.7192
16871TIP3    H172028   0.385   5.437  11.790  1.1672  1.4546  0.6250
16871TIP3    H272029   0.237   5.465  11.785  0.6188 -1.0254  1.4966
16872TIP3   OH272030   5.529   5.162   3.127  0.0901  0.0580 -0.6780
16872TIP3    H172031   5.602   5.103   3.148  0.1230 -0.1958 -1.4443
16872TIP3    H272032   5.481   5.171   3.209 -0.5812 -1.9866 -0.7712
16873TIP3   OH272033   4.388   1.487   2.119 -0.6108  0.2312  0.8104
16873TIP3    H172034   4.308   1.460   2.074  0.1332  1.3881 -1.4082
16873TIP3    H272035   4.358   1.535   2.196 -2.0812  0.7712 -0.0581
16874TIP3   OH272036   0.541   2.560  15.484  0.1583 -0.1919 -0.4552
16874TIP3    H172037   0.536   2.542  15.578  0.0629  1.6851 -0.0688
16874TIP3    H272038   0.453   2.544  15.451 -0.6327  2.0431  0.3832
16875TIP3   OH272039   4.584   2.163   1.637 -0.3253  0.0638 -0.0968
16875TIP3    H172040   4.679   2.155   1.636 -0.3783 -1.3641 -2.9460
16875TIP3    H272041   4.555   2.101   1.704  0.7029  0.8862  1.1617
16876TIP3   OH272042   4.335   1.495   1.226  0.3292  0.5591  0.2714
16876TIP3    H172043   4.379   1.550   1.291  1.5434  1.3792 -1.1550
16876TIP3    H272044   4.329   1.551   1.148 -0.4152 -0.6141 -0.5518
16877TIP3   OH272045   1.787   3.751   2.895 -0.2409 -0.0024 -0.1011
16877TIP3    H172046   1.822   3.783   2.978  0.4266  0.7100 -0.6423
16877TIP3    H272047   1.700   3.791   2.888 -0.0025  0.5212 -0.0834
16878TIP3   OH272048   4.451   5.750   5.409  0.4491 -0.4747 -0.6005
16878TIP3    H172049   4.459   5.802   5.329 -0.7205  3.1419  1.3685
16878TIP3    H272050   4.541   5.728   5.433  1.0678  1.0462 -1.3630
16879TIP3   OH272051   3.202   5.364  14.770 -0.4188 -0.3909 -0.3885
16879TIP3    H172052   3.161   5.373  14.856  2.5154  2.3659  0.9250
16879TIP3    H272053   3.252   5.283  14.776 -0.8545 -0.6228  0.2163
16880TIP3   OH272054   4.022   0.499  16.073 -0.2523  0.7486  0.0821
16880TIP3    H172055   4.084   0.464  16.009 -0.9877 -1.1378  0.3321
16880TIP3    H272056   4.036   0.594  16.071  0.4232  0.6643 -2.1536
16881TIP3   OH272057   0.192   6.746   0.877  0.4493 -0.7344  0.5777
16881TIP3    H172058   0.174   6.835   0.907  0.9828 -0.4197 -0.0049
16881TIP3    H272059   0.175   6.691   0.953  0.6366 -0.0758  1.1085
16882TIP3   OH272060   0.233   2.026  12.982  0.4575 -0.2186  0.1133
16882TIP3    H172061   0.239   1.989  13.070  0.7147  1.8072  1.0118
16882TIP3    H272062   0.218   2.120  12.997 -1.1989 -0.0618 -2.0104
16883TIP3   OH272063   0.566   4.255  11.105 -0.7505  0.1127  0.0245
16883TIP3    H172064   0.621   4.183  11.137 -1.5314 -0.1366  0.8429
16883TIP3    H272065   0.626   4.328  11.094  0.1651 -0.7780 -1.3174
16884TIP3   OH272066   3.710   3.843  14.974 -0.5611  0.1212 -0.1285
16884TIP3    H172067   3.770   3.782  14.932 -2.0504 -1.0344 -0.6675
16884TIP3    H272068   3.762   3.922  14.987  0.3488  0.0852 -2.9495
16885TIP3   OH272069   5.548   3.224  15.443  0.4211 -0.2266  0.4306
16885TIP3    H172070   5.632   3.184  15.421  1.3094  1.6961  0.0392
16885TIP3    H272071   5.566   3.275  15.522 -0.6138 -0.4689  0.8317
16886TIP3   OH272072   3.415   1.345   0.301  0.1095 -0.2383  0.4336
16886TIP3    H172073   3.372   1.376   0.222  1.6662 -0.8736 -0.7252
16886TIP3    H272074   3.353   1.364   0.372 -0.1279  3.0410 -0.5050
16887TIP3   OH272075   6.421   6.773   2.682 -0.1018 -0.1576 -0.0512
16887TIP3    H172076   6.482   6.703   2.659  0.4902  0.1056  0.6655
16887TIP3    H272077   6.436   6.788   2.776 -1.2623 -0.0694  0.1321
16888TIP3   OH272078   0.950   5.060  13.266  0.1359 -0.1030  0.2323
16888TIP3    H172079   0.949   4.965  13.276  0.6932 -0.0842  0.4910
16888TIP3    H272080   1.013   5.077  13.196 -0.3886  0.0459 -0.2144
16889TIP3   OH272081   2.367   6.665   4.035 -0.4681  0.6028  0.0863
16889TIP3    H172082   2.437   6.601   4.021 -0.7375  0.0680  1.1052
16889TIP3    H272083   2.325   6.674   3.950  0.7009  0.7638 -0.4877
16890TIP3   OH272084   0.549   6.304   5.193 -0.5616 -0.0389  0.0982
16890TIP3    H172085   0.630   6.320   5.242 -0.5619 -0.8616  0.3813
16890TIP3    H272086   0.544   6.376   5.131  0.3920  0.0204  0.0781
16891TIP3   OH272087   0.382   3.562   1.388 -0.0783 -0.4013 -0.5970
16891TIP3    H172088   0.323   3.506   1.337 -1.9306  0.6185  0.2868
16891TIP3    H272089   0.328   3.637   1.412  1.4737  0.3605  0.6955
16892TIP3   OH272090   6.098   1.143   3.710  0.3413  0.2927 -0.4952
16892TIP3    H172091   6.132   1.101   3.789  0.9361  0.8343 -0.4464
16892TIP3    H272092   6.148   1.225   3.704 -0.5950  0.8571 -0.7296
16893TIP3   OH272093   5.927   6.155   3.013 -0.0760 -0.0023 -0.0442
16893TIP3    H172094   5.981   6.228   2.984  0.9362 -0.6878  0.0819
16893TIP3    H272095   5.945   6.148   3.107 -1.4075  0.5988  0.2789
16894TIP3   OH272096   5.020   5.542  12.197  0.7709 -0.6402  0.0914
16894TIP3    H172097   5.060   5.511  12.116 -3.3108 -1.2187 -1.9652
16894TIP3    H272098   4.943   5.485  12.209  0.4398  0.3223  3.6683
16895TIP3   OH272099   1.593   4.855   6.972  0.0203 -0.2553  0.3806
16895TIP3    H172100   1.609   4.947   6.997 -0.5694  0.1164 -0.5529
16895TIP3    H272101   1.519   4.828   7.027 -1.3598  0.6007 -0.9825
16896TIP3   OH272102   2.280   1.709  12.768 -0.1959  0.7573 -0.3294
16896TIP3    H172103   2.315   1.636  12.819 -2.2283 -1.0968 -1.4180
16896TIP3    H272104   2.329   1.707  12.685  0.3161  1.1954 -0.0470
16897TIP3   OH272105   5.631   4.193   1.619 -0.2264  0.4617  0.1294
16897TIP3    H172106   5.615   4.279   1.581 -2.2182  0.7143  1.4077
16897TIP3    H272107   5.553   4.142   1.596  0.5938 -0.7756  0.0192
16898TIP3   OH272108   2.318   6.669   1.521  0.0139 -0.0059 -0.2792
16898TIP3    H172109   2.404   6.686   1.483 -0.1856  0.8829 -0.3592
16898TIP3    H272110   2.277   6.607   1.461  2.0414 -3.6191  1.7799
16899TIP3   OH272111   2.731   5.647   2.138  0.0746  0.0400  0.0920
16899TIP3    H172112   2.827   5.652   2.146  0.2504 -0.8668 -1.1485
16899TIP3    H272113   2.709   5.559   2.171 -0.2707  0.0705 -0.0495
16900TIP3   OH272114   2.906   1.588  15.298 -0.3146  0.0772  0.1153
16900TIP3    H172115   2.968   1.618  15.365  1.2367 -0.2390 -1.1206
16900TIP3    H272116   2.898   1.494  15.314  0.8847 -0.1921 -0.7597
16901TIP3   OH272117   1.144   3.998  10.822 -0.1803 -0.1502 -0.5532
16901TIP3    H172118   1.232   3.967  10.842 -0.4733  0.2278  1.5106
16901TIP3    H272119   1.087   3.928  10.854 -0.7574  1.4578  2.2235
16902TIP3   OH272120   0.939   1.819   5.088  0.0846  0.4263  0.0846
16902TIP3    H172121   0.931   1.880   5.162 -1.9048  0.2078  0.0896
16902TIP3    H272122   0.949   1.733   5.128 -0.4325  0.3714  0.0952
16903TIP3   OH272123   1.124   5.498  16.175  0.2891  0.3719 -0.4097
16903TIP3    H172124   1.205   5.543  16.150  1.2931 -1.1285 -0.0080
16903TIP3    H272125   1.083   5.473  16.092  1.1443 -0.3840 -0.6152
16904TIP3   OH272126   1.679   6.172   1.643  0.1798  0.2810 -0.8448
16904TIP3    H172127   1.669   6.263   1.615  0.9520  0.6314 -0.0281
16904TIP3    H272128   1.590   6.143   1.663  0.1582  1.8188  1.7245
16905TIP3   OH272129   5.429   1.633   5.228  0.0403  0.3481 -0.9031
16905TIP3    H172130   5.389   1.717   5.206  0.7725  0.4016 -2.0950
16905TIP3    H272131   5.517   1.638   5.192  0.7796 -0.1827  0.7425
16906TIP3   OH272132   1.476   5.042  11.584 -0.0570 -0.4538  0.9648
16906TIP3    H172133   1.446   4.951  11.578  0.2952 -0.5153 -0.1539
16906TIP3    H272134   1.415   5.092  11.530  0.5303 -0.2499  0.4659
16907TIP3   OH272135   1.732   2.293   6.506  0.3321  0.1387  0.2644
16907TIP3    H172136   1.810   2.323   6.552  0.5756 -0.5224  0.3021
16907TIP3    H272137   1.747   2.199   6.492 -0.2039  0.1183 -0.2311
16908TIP3   OH272138   2.692   4.919  14.886  0.1037  0.2764 -0.3083
16908TIP3    H172139   2.749   4.946  14.958  0.3980  0.2869 -0.5427
16908TIP3    H272140   2.684   4.997  14.831  0.4042  0.0897 -0.6255
16909TIP3   OH272141   1.952   1.999   1.217  0.8483 -0.0624  0.6761
16909TIP3    H172142   1.989   2.078   1.256  2.1128  0.7429 -1.9412
16909TIP3    H272143   1.916   2.027   1.133  0.1566 -2.0655  0.2293
16910TIP3   OH272144   0.291   5.979   0.872 -0.3242  0.6258  0.5794
16910TIP3    H172145   0.269   6.048   0.811 -0.2297  1.7682  1.7807
16910TIP3    H272146   0.337   5.914   0.820 -0.2706  1.5495 -0.5524
16911TIP3   OH272147   4.054   1.571   0.723 -0.0829 -0.5297  0.7872
16911TIP3    H172148   4.131   1.521   0.747 -0.5150 -0.6873  1.9365
16911TIP3    H272149   4.080   1.663   0.734 -0.4791 -0.5970  2.7266
16912TIP3   OH272150   3.374   3.141   3.322 -0.0504  0.0377 -0.0555
16912TIP3    H172151   3.350   3.134   3.229 -0.0407  0.8730 -0.1223
16912TIP3    H272152   3.338   3.061   3.361 -1.1867  0.2896 -0.5304
16913TIP3   OH272153   0.341   4.895  16.921 -0.1542 -0.2526  0.2481
16913TIP3    H172154   0.360   4.987  16.903  1.4024 -0.4803  0.5741
16913TIP3    H272155   0.426   4.857  16.943 -0.6405 -1.9503 -0.6544
16914TIP3   OH272156   1.852   3.699  10.850  0.5408 -0.2957  0.2885
16914TIP3    H172157   1.758   3.683  10.841  0.7267 -0.4366 -2.2976
16914TIP3    H272158   1.892   3.613  10.841  0.9511 -0.1931  1.0477
16915TIP3   OH272159   5.412   5.579   1.780  0.0897  0.5219  0.0689
16915TIP3    H172160   5.428   5.659   1.731 -0.2893  0.5598  0.0059
16915TIP3    H272161   5.456   5.593   1.864  0.2624  0.6816 -0.0484
16916TIP3   OH272162   2.881   0.422  13.726 -0.0717 -0.3805  0.3378
16916TIP3    H172163   2.847   0.413  13.815 -1.7560  0.6177 -0.1496
16916TIP3    H272164   2.871   0.516  13.707  1.4018 -0.3651 -0.4847
16917TIP3   OH272165   3.406   5.917   5.725 -1.0222  0.1336 -0.0859
16917TIP3    H172166   3.492   5.957   5.710 -0.5430 -1.2170 -1.1804
16917TIP3    H272167   3.414   5.873   5.810 -0.0066 -1.4528 -0.9575
16918TIP3   OH272168   1.799   4.993   3.667  0.0314 -0.6676  0.3253
16918TIP3    H172169   1.802   5.075   3.716 -0.5435 -0.1993 -0.3955
16918TIP3    H272170   1.823   4.926   3.730  1.1939  0.1242  0.7618
16919TIP3   OH272171   3.813   1.223  13.872  0.1663 -0.0559 -0.5889
16919TIP3    H172172   3.838   1.139  13.911  0.6643  0.4976  0.2978
16919TIP3    H272173   3.885   1.246  13.814  2.4549  2.0655  2.7607
16920TIP3   OH272174   5.788   3.256  14.552 -0.0845  0.0246  0.2105
16920TIP3    H172175   5.792   3.244  14.647 -1.4777 -1.2778  0.1499
16920TIP3    H272176   5.758   3.171  14.518  2.2509 -0.1987 -1.5991
16921TIP3   OH272177   3.410   4.040  13.567  0.4130 -0.2132 -0.1198
16921TIP3    H172178   3.339   4.073  13.513 -0.9716 -2.4987  0.1945
16921TIP3    H272179   3.392   4.075  13.655 -0.0692 -0.3982 -0.1427
16922TIP3   OH272180   6.251   4.173  11.325  0.3426 -0.0058 -0.5312
16922TIP3    H172181   6.274   4.249  11.379 -2.4930  0.1254  0.6458
16922TIP3    H272182   6.223   4.210  11.241  0.4609  0.1298 -0.5104
16923TIP3   OH272183   0.832   6.605  13.115 -0.2556  0.3946  0.0543
16923TIP3    H172184   0.739   6.618  13.095 -0.1851  0.2168 -0.4121
16923TIP3    H272185   0.841   6.510  13.124 -0.4601  0.5234  1.8497
16924TIP3   OH272186   1.546   3.478  16.456 -0.6480  0.9646 -0.5023
16924TIP3    H172187   1.635   3.509  16.471 -0.2162 -0.3358 -0.2484
16924TIP3    H272188   1.545   3.451  16.365 -0.2782 -0.5300 -0.0900
16925TIP3   OH272189   6.156   2.530   1.323 -0.5451 -0.0643  0.3759
16925TIP3    H172190   6.126   2.544   1.233  0.8535 -3.3664 -0.7659
16925TIP3    H272191   6.093   2.578   1.377 -3.2743 -0.4225 -2.2089
16926TIP3   OH272192   6.747   6.111   6.708 -0.3346  0.0426 -0.2299
16926TIP3    H172193   6.789   6.090   6.792  1.8112  1.3620 -0.8911
16926TIP3    H272194   6.762   6.034   6.654 -0.0080 -0.0614  0.0039
16927TIP3   OH272195   6.706   0.513   1.121  0.4705  0.3483 -0.5520
16927TIP3    H172196   6.643   0.443   1.105  1.4029  0.2025 -4.5907
16927TIP3    H272197   6.672   0.559   1.198 -3.0234 -1.3509 -0.8970
16928TIP3   OH272198   4.830   0.349   5.601  0.0128  0.1788 -0.2671
16928TIP3    H172199   4.827   0.445   5.607 -1.5864  0.2861 -1.8328
16928TIP3    H272200   4.855   0.320   5.689 -0.0509  2.0093  0.4024
16929TIP3   OH272201   5.427   6.591  14.435 -0.0294  0.0301  0.1920
16929TIP3    H172202   5.433   6.686  14.426  0.2804 -0.0382 -0.3978
16929TIP3    H272203   5.458   6.557  14.350 -1.1437 -0.5667  0.0061
16930TIP3   OH272204   2.192   4.605   0.648 -0.2820  0.3579 -0.3320
16930TIP3    H172205   2.230   4.517   0.638 -3.2285 -1.2074  0.9637
16930TIP3    H272206   2.099   4.589   0.663 -1.3538  3.8439 -2.1346
16931TIP3   OH272207   3.304   0.219   2.863  0.5482 -0.2176 -0.1920
16931TIP3    H172208   3.293   0.293   2.923  1.0640  2.1506 -2.7874
16931TIP3    H272209   3.396   0.196   2.870  0.7477  0.4683 -0.5136
16932TIP3   OH272210   3.175   0.818   3.613 -0.1389 -0.6377  0.1797
16932TIP3    H172211   3.197   0.833   3.521 -0.6496 -0.5003  0.0714
16932TIP3    H272212   3.167   0.723   3.621 -2.5070 -0.5787 -0.5410
16933TIP3   OH272213   1.144   6.550  15.555 -0.1121  0.2794 -0.1730
16933TIP3    H172214   1.233   6.544  15.519  0.1661  0.9906  0.3575
16933TIP3    H272215   1.103   6.619  15.504  0.3608  1.4586  0.9781
16934TIP3   OH272216   6.237   0.212  15.786  0.4226  0.1985  0.8010
16934TIP3    H172217   6.268   0.277  15.723 -0.5036 -0.0481  0.0643
16934TIP3    H272218   6.265   0.128  15.750 -0.0142  0.0629  0.7684
16935TIP3   OH272219   6.725   4.121  12.596 -0.2244 -0.1995 -0.5612
16935TIP3    H172220   6.657   4.097  12.532  1.2037  0.5642 -2.4575
16935TIP3    H272221   6.786   4.176  12.547  1.3679 -0.2122  1.2881
16936TIP3   OH272222   4.108   1.452  13.490  0.7306  0.4953 -0.3311
16936TIP3    H172223   4.058   1.514  13.436  0.9750  0.8894 -0.1114
16936TIP3    H272224   4.176   1.419  13.432  0.4518  0.2438 -0.5200
16937TIP3   OH272225   4.664   4.008   4.131  0.2250 -0.1844  0.1444
16937TIP3    H172226   4.592   3.957   4.168 -2.4852  2.1251 -1.5569
16937TIP3    H272227   4.648   4.097   4.162  1.4128  0.6777 -1.5705
16938TIP3   OH272228   6.151   5.656   3.277 -0.5315 -0.3481 -0.4066
16938TIP3    H172229   6.093   5.715   3.230 -0.9474 -0.2080  0.2715
16938TIP3    H272230   6.110   5.645   3.363  0.8169  0.3464  0.3669
16939TIP3   OH272231   5.382   6.599   4.756 -0.2255 -0.1736  0.0307
16939TIP3    H172232   5.292   6.618   4.782 -0.3789 -1.0350  0.1726
16939TIP3    H272233   5.374   6.519   4.703  0.4505 -0.2196 -0.0002
16940TIP3   OH272234   2.184   0.225  14.746 -0.4913 -0.4003 -0.8964
16940TIP3    H172235   2.275   0.250  14.735  0.4830 -1.9558  2.3112
16940TIP3    H272236   2.143   0.300  14.790  0.4552 -1.2768  1.6485
16941TIP3   OH272237   1.785   5.042   4.411  1.1536  0.1821  0.0146
16941TIP3    H172238   1.757   5.099   4.340 -1.2531 -0.2067  0.5566
16941TIP3    H272239   1.866   5.082   4.443  2.3128  0.3799 -2.8538
16942TIP3   OH272240   2.713   1.441  12.850 -0.3395 -0.4953  0.7574
16942TIP3    H172241   2.701   1.523  12.802  0.0815 -0.5047  0.6351
16942TIP3    H272242   2.629   1.426  12.893 -1.3022 -1.3426 -1.2776
16943TIP3   OH272243   5.257   1.356  11.846 -0.7849 -0.1296 -0.0538
16943TIP3    H172244   5.243   1.330  11.755 -1.3871 -0.7624  0.2028
16943TIP3    H272245   5.170   1.348  11.886 -0.4840 -0.0691  0.6218
16944TIP3   OH272246   2.265   3.548   1.111 -0.2237 -0.3333 -0.5466
16944TIP3    H172247   2.295   3.575   1.024  0.3725 -0.7531 -0.4751
16944TIP3    H272248   2.175   3.581   1.116 -0.3268 -0.4646 -1.3915
16945TIP3   OH272249   3.649   5.295  13.052  0.0594  0.5619 -0.6948
16945TIP3    H172250   3.676   5.378  13.013  0.4469  0.8888  0.2340
16945TIP3    H272251   3.667   5.306  13.146 -0.0549 -0.5015 -0.5367
16946TIP3   OH272252   3.320   6.576  13.359 -0.5941 -0.2752 -0.6196
16946TIP3    H172253   3.313   6.661  13.402 -1.5094  0.0224 -1.3229
16946TIP3    H272254   3.229   6.549  13.345 -0.3111 -0.9739 -1.1670
16947TIP3   OH272255   5.878   5.345   2.553  0.0744  0.1428 -0.6212
16947TIP3    H172256   5.872   5.258   2.514  0.3496 -0.1084 -0.1220
16947TIP3    H272257   5.787   5.376   2.556 -0.3304 -1.0064  1.1067
16948TIP3   OH272258   4.961   0.778  14.621 -0.2083 -0.5358  0.3446
16948TIP3    H172259   4.938   0.868  14.644 -1.8985 -0.5091 -1.2370
16948TIP3    H272260   5.035   0.787  14.561  0.3154 -0.2739  1.0218
16949TIP3   OH272261   3.564   0.118  13.888 -0.3430  0.0912 -0.5608
16949TIP3    H172262   3.499   0.047  13.889 -1.1794  0.8349 -0.2334
16949TIP3    H272263   3.634   0.088  13.946 -1.6986  0.4092  1.3431
16950TIP3   OH272264   2.478   1.092   4.376 -0.5358 -0.8348 -0.3818
16950TIP3    H172265   2.434   1.155   4.434  0.0893  0.9042 -1.7252
16950TIP3    H272266   2.569   1.092   4.405 -0.5887 -1.3587 -0.2033
16951TIP3   OH272267   1.156   3.104  13.367 -0.4500 -0.0863  0.0686
16951TIP3    H172268   1.224   3.099  13.434  0.2425 -0.7757 -0.6740
16951TIP3    H272269   1.200   3.138  13.290 -1.2951  0.9192  0.0113
16952TIP3   OH272270   2.374   6.188   3.434  0.2400 -0.5199  0.2310
16952TIP3    H172271   2.461   6.226   3.431  0.5622 -1.2701 -0.4499
16952TIP3    H272272   2.332   6.228   3.510  0.9443  0.3311  0.1824
16953TIP3   OH272273   6.261   5.398   1.078 -0.5419  0.0807 -0.9924
16953TIP3    H172274   6.209   5.454   1.020 -0.9545 -0.8679 -1.5562
16953TIP3    H272275   6.349   5.401   1.041 -0.9238 -1.0028 -2.0689
16954TIP3   OH272276   6.189   5.075  13.524  0.0642  0.1605 -0.2604
16954TIP3    H172277   6.196   5.107  13.614  1.3717  0.1168 -0.3217
16954TIP3    H272278   6.153   5.149  13.475  1.1412  0.8722 -0.0302
16955TIP3   OH272279   4.783   3.245   4.243  0.2720  0.1067 -0.1441
16955TIP3    H172280   4.798   3.236   4.149  2.6953  0.6022  0.1165
16955TIP3    H272281   4.697   3.207   4.258  0.8975 -2.3403 -2.1751
16956TIP3   OH272282   5.867   0.568  12.646  0.3849  0.1386  0.2296
16956TIP3    H172283   5.957   0.577  12.676  0.8140  0.8662 -1.1635
16956TIP3    H272284   5.870   0.595  12.554 -1.3562  0.7781  0.3181
16957TIP3   OH272285   3.442   0.566   4.119 -0.6090 -0.1879  0.1345
16957TIP3    H172286   3.397   0.517   4.050 -0.7899  0.6097 -0.3223
16957TIP3    H272287   3.385   0.641   4.136  0.3904  0.6813 -0.2427
16958TIP3   OH272288   2.642   6.682   1.637 -0.0832  0.2411 -0.1817
16958TIP3    H172289   2.596   6.765   1.647  0.7675  0.7718 -0.5182
16958TIP3    H272290   2.644   6.666   1.543 -0.9578 -0.5830 -0.0641
16959TIP3   OH272291   4.934   2.817  10.626  0.0274 -0.2637 -0.0023
16959TIP3    H172292   5.011   2.763  10.645 -0.6510 -1.3184 -0.1652
16959TIP3    H272293   4.944   2.894  10.682 -0.8861 -2.2977  3.2225
16960TIP3   OH272294   4.259   0.767  14.639  0.3335  0.2091 -0.1445
16960TIP3    H172295   4.313   0.781  14.718 -1.9772  0.9021  1.4004
16960TIP3    H272296   4.179   0.816  14.655 -0.4609 -0.0898 -2.7375
16961TIP3   OH272297   3.754   0.121   1.509  0.6902  0.1275 -0.0614
16961TIP3    H172298   3.693   0.189   1.480  0.2557 -0.3703 -0.3536
16961TIP3    H272299   3.767   0.067   1.431  0.0847 -0.8126  0.4649
16962TIP3   OH272300   1.547   5.510   3.014  0.1717  0.7390  0.4218
16962TIP3    H172301   1.495   5.560   2.951 -0.9205  1.3026  1.7222
16962TIP3    H272302   1.635   5.547   3.007  0.7754 -0.9352 -2.5861
16963TIP3   OH272303   3.993   4.133   2.126  0.1782  0.7408 -0.0886
16963TIP3    H172304   3.915   4.077   2.120 -1.3232  2.5950  1.0367
16963TIP3    H272305   4.065   4.071   2.140 -1.0975 -1.0259 -0.9241
16964TIP3   OH272306   0.169   3.262   4.294 -0.4010  0.2345 -0.4463
16964TIP3    H172307   0.156   3.282   4.387  0.3062  1.4868 -0.6007
16964TIP3    H272308   0.185   3.167   4.293  2.9339  0.6009  1.1854
16965TIP3   OH272309   5.878   3.152  12.287 -0.2039  0.4121  0.3225
16965TIP3    H172310   5.816   3.091  12.327 -0.4943  1.1530  1.0247
16965TIP3    H272311   5.949   3.096  12.254  0.1025 -0.2302  1.9518
16966TIP3   OH272312   4.020   4.137   4.959  0.4020  0.1069 -0.4041
16966TIP3    H172313   4.090   4.073   4.941  0.7441 -0.0945  1.3671
16966TIP3    H272314   3.941   4.084   4.966  0.7986 -0.3298  1.8027
16967TIP3   OH272315   1.652   2.900  15.289  0.1328 -0.1052  0.9029
16967TIP3    H172316   1.662   2.821  15.342  3.2202 -0.5227 -0.1299
16967TIP3    H272317   1.739   2.916  15.252 -1.0852  2.0702 -1.3463
16968TIP3   OH272318   0.609   4.943  12.318 -0.3706 -0.1143 -0.0474
16968TIP3    H172319   0.583   4.923  12.228 -0.1456  0.3559 -0.2227
16968TIP3    H272320   0.528   4.940  12.368 -0.4260 -0.8557 -0.1738
16969TIP3   OH272321   4.345   6.335  12.875 -0.1460  0.0424 -0.0158
16969TIP3    H172322   4.333   6.408  12.936 -0.8033 -0.6383  0.6941
16969TIP3    H272323   4.406   6.368  12.809  2.5613  0.0829  2.2798
16970TIP3   OH272324   1.299   4.503   6.229 -0.4281  0.0117 -0.1263
16970TIP3    H172325   1.254   4.493   6.313 -2.1441 -2.2386 -1.2011
16970TIP3    H272326   1.347   4.421   6.218  2.8431  1.6935  0.2246
16971TIP3   OH272327   1.777   4.022   3.130  0.1585  0.7227  0.3101
16971TIP3    H172328   1.779   3.932   3.164  1.0936  0.3119 -0.7664
16971TIP3    H272329   1.794   4.077   3.206  1.6892 -0.1452  0.6320
16972TIP3   OH272330   0.897   4.004  16.630 -0.3374  0.0468 -0.3163
16972TIP3    H172331   0.820   4.025  16.577 -0.1669 -0.3715 -0.7305
16972TIP3    H272332   0.923   4.088  16.669 -2.2020 -0.1212  1.4661
16973TIP3   OH272333   1.404   6.703   1.174  0.6296 -0.5107 -0.2608
16973TIP3    H172334   1.437   6.629   1.123  0.8419  0.3369 -1.4166
16973TIP3    H272335   1.479   6.731   1.227  0.4003 -1.4213  0.5641
16974TIP3   OH272336   6.598   1.151   4.624  0.4042  0.4630 -0.6902
16974TIP3    H172337   6.632   1.216   4.686 -0.8767 -2.0130  2.9330
16974TIP3    H272338   6.504   1.152   4.639  0.3159 -1.9211 -0.7692
16975TIP3   OH272339   5.377   1.195   6.783  0.6232  0.6256  0.2709
16975TIP3    H172340   5.342   1.220   6.869  0.3204  1.3234 -0.0497
16975TIP3    H272341   5.422   1.273   6.752  1.2275  0.1972  0.0339
16976TIP3   OH272342   5.142   3.189  14.450 -0.2949 -0.0017 -0.4630
16976TIP3    H172343   5.114   3.257  14.389 -1.2150 -0.7327 -0.8827
16976TIP3    H272344   5.074   3.188  14.518 -0.2249 -0.4104 -0.3938
16977TIP3   OH272345   5.044   5.227   6.306 -0.0596  0.2732  0.4127
16977TIP3    H172346   5.125   5.176   6.301  1.4450  2.5137  0.5243
16977TIP3    H272347   5.030   5.242   6.399  0.2045  1.0940  0.3233
16978TIP3   OH272348   5.191   2.126   1.364 -0.1460  0.1746  0.0354
16978TIP3    H172349   5.275   2.151   1.324  0.9516 -1.2104  1.3721
16978TIP3    H272350   5.148   2.210   1.381  0.2216  0.8769 -2.1151
16979TIP3   OH272351   4.529   4.614   4.993 -0.1787  0.2670  0.0516
16979TIP3    H172352   4.606   4.558   4.980  0.8049  1.3949  0.7587
16979TIP3    H272353   4.485   4.615   4.908  0.3323 -0.7796 -0.2331
16980TIP3   OH272354   2.818   4.650   3.153 -0.0590 -0.5025  0.4851
16980TIP3    H172355   2.813   4.572   3.209 -1.2578  0.1067  1.2550
16980TIP3    H272356   2.733   4.654   3.110  1.0300 -1.3018 -1.9300
16981TIP3   OH272357   5.793   3.553   1.097 -0.2349 -0.0209 -0.1711
16981TIP3    H172358   5.855   3.596   1.039 -0.7855  1.2974  0.1892
16981TIP3    H272359   5.707   3.576   1.062 -0.5453 -1.2719 -0.2783
16982TIP3   OH272360   4.469   1.362  15.074  0.8528  0.2800  0.2174
16982TIP3    H172361   4.451   1.406  15.157 -1.2077  0.9601 -0.5388
16982TIP3    H272362   4.407   1.289  15.072  2.0651 -0.7865  0.0049
16983TIP3   OH272363   2.761   5.700   4.249  0.5472  0.4616  0.3780
16983TIP3    H172364   2.673   5.691   4.285  0.7777  0.4836  0.9631
16983TIP3    H272365   2.785   5.791   4.265  0.6042  0.5043  0.0535
16984TIP3   OH272366   2.965   4.029   0.337 -0.2004 -0.2718 -0.3452
16984TIP3    H172367   2.911   3.962   0.295 -1.3805  1.3763 -1.5845
16984TIP3    H272368   3.012   4.071   0.266  0.7499  0.0373  0.4405
16985TIP3   OH272369   0.168   3.243  16.617  0.0803  0.5046 -0.4597
16985TIP3    H172370   0.192   3.185  16.545  0.3731 -1.5369  1.2016
16985TIP3    H272371   0.073   3.251  16.611 -0.1518 -1.4543  0.1903
16986TIP3   OH272372   2.497   0.918   4.878  0.4852  0.2492 -0.1462
16986TIP3    H172373   2.467   0.962   4.958  0.3516  0.4271 -0.2918
16986TIP3    H272374   2.578   0.874   4.904 -0.5274 -1.2843  0.5767
16987TIP3   OH272375   0.618   6.738  10.687 -0.7634 -0.1358  0.1219
16987TIP3    H172376   0.570   6.757  10.607 -2.2085 -0.2448  0.9269
16987TIP3    H272377   0.634   6.643  10.684  0.2305  0.0412 -0.5729
16988TIP3   OH272378   5.118   0.195   2.254 -0.3218  0.3508  0.6478
16988TIP3    H172379   5.148   0.135   2.322 -0.1312  1.2972  1.4158
16988TIP3    H272380   5.162   0.165   2.174 -0.3849 -0.6370  0.9773
16989TIP3   OH272381   1.521   5.721   2.095 -0.2399  0.0024  0.2279
16989TIP3    H172382   1.615   5.704   2.085 -0.4422 -2.0166  1.2213
16989TIP3    H272383   1.480   5.668   2.027 -0.7073 -0.1471  0.6207
16990TIP3   OH272384   4.508   4.302   3.667  0.5425 -0.2852 -0.4582
16990TIP3    H172385   4.571   4.254   3.721 -0.4345  0.0430  1.0247
16990TIP3    H272386   4.538   4.288   3.577  2.8769  0.0758  0.1965
16991TIP3   OH272387   6.470   0.009   3.628  0.1135 -0.3711  0.6251
16991TIP3    H172388   6.458  -0.062   3.691  0.8404 -2.3195 -1.3387
16991TIP3    H272389   6.384   0.052   3.624 -0.9003 -2.3079  0.5156
16992TIP3   OH272390   2.574   1.133   0.808  0.7979 -0.2103 -0.0986
16992TIP3    H172391   2.623   1.160   0.730 -1.1250 -1.4873 -1.8825
16992TIP3    H272392   2.489   1.106   0.774  0.7635 -3.4298  2.1002
16993TIP3   OH272393   2.037   5.303   3.937 -0.1303 -0.1765 -0.1812
16993TIP3    H172394   2.053   5.392   3.970  0.3009 -0.5731  0.7203
16993TIP3    H272395   2.092   5.297   3.859  0.6180  0.0254  0.3174
16994TIP3   OH272396   2.067   2.700  16.404  0.0367 -0.2134  0.0413
16994TIP3    H172397   2.081   2.753  16.326  0.7716  0.1618  0.4174
16994TIP3    H272398   2.037   2.762  16.471  1.8379 -0.0728  0.7604
16995TIP3   OH272399   6.289   2.544   5.233  0.5741 -0.1242  0.4973
16995TIP3    H172400   6.372   2.502   5.257  0.7742 -0.3048 -0.4285
16995TIP3    H272401   6.305   2.580   5.145  0.4398  2.0158  1.2932
16996TIP3   OH272402   1.074   6.266   5.784  0.7152  0.1709  0.2814
16996TIP3    H172403   1.033   6.193   5.738 -1.3613  1.2817  0.2463
16996TIP3    H272404   1.013   6.339   5.773  1.8336  1.4322  1.8569
16997TIP3   OH272405   3.265   1.279  11.096 -0.1093 -0.0395  0.2336
16997TIP3    H172406   3.309   1.247  11.017  1.1686  1.4043  0.3059
16997TIP3    H272407   3.177   1.303  11.066  0.2703  0.2320 -0.6980
16998TIP3   OH272408   5.125   1.062  16.690 -0.1472  0.1454  0.1173
16998TIP3    H172409   5.034   1.041  16.712 -0.6656 -0.1898 -2.1480
16998TIP3    H272410   5.118   1.131  16.624  1.2096 -0.5441 -0.7853
16999TIP3   OH272411   5.966   2.255   1.637 -0.0003 -0.1367  0.2970
16999TIP3    H172412   6.056   2.282   1.652 -0.0322 -0.7357  1.6130
16999TIP3    H272413   5.962   2.164   1.666 -0.3549 -1.0559 -2.3657
17000TIP3   OH272414   4.740   3.955  12.106  0.8406  0.2003  0.5345
17000TIP3    H172415   4.736   4.034  12.053  1.7283  0.0320  0.1957
17000TIP3    H272416   4.829   3.955  12.142  0.6540 -0.3351  1.0039
17001TIP3   OH272417   3.342   6.095  12.834 -0.4706 -0.1437  0.6934
17001TIP3    H172418   3.303   6.072  12.919 -0.6485 -3.0916 -0.0779
17001TIP3    H272419   3.330   6.017  12.780  0.4285  1.3306 -1.7999
17002TIP3   OH272420   4.697   4.152  12.806  0.0968 -0.3438  0.3055
17002TIP3    H172421   4.674   4.172  12.715  1.3433 -0.5250 -0.0703
17002TIP3    H272422   4.616   4.166  12.855 -1.0263 -1.7587 -1.0503
17003TIP3   OH272423   1.925   3.657  14.751 -0.0141  0.6642  0.7414
17003TIP3    H172424   1.933   3.634  14.658  0.7827  1.6977  0.5463
17003TIP3    H272425   1.991   3.724  14.766 -0.8486  1.2863  1.8072
17004TIP3   OH272426   2.271   3.937  10.929 -0.2353  0.1283 -0.3640
17004TIP3    H172427   2.298   3.932  11.021 -1.4803 -0.8269 -0.0252
17004TIP3    H272428   2.352   3.956  10.882  0.3932  0.8991  0.9407
17005TIP3   OH272429   1.935   0.068  15.539  0.7573  0.0000 -0.4553
17005TIP3    H172430   2.002   0.009  15.505  0.2943  0.4528 -2.2311
17005TIP3    H272431   1.856   0.044  15.491  0.0560  0.6828  0.3217
17006TIP3   OH272432   3.786   3.528   0.275  0.2764  0.4059  0.1370
17006TIP3    H172433   3.722   3.599   0.267  0.0358  0.3253  1.1484
17006TIP3    H272434   3.733   3.450   0.293  0.6867  0.7274  3.3796
17007TIP3   OH272435   3.917   0.660   0.075 -0.0909  0.1718 -0.0614
17007TIP3    H172436   3.833   0.631   0.039 -0.1692 -2.0731  1.6758
17007TIP3    H272437   3.893   0.721   0.145 -0.2200  0.4613 -0.3590
17008TIP3   OH272438   5.782   3.002  11.553 -0.3552 -0.6433 -0.0213
17008TIP3    H172439   5.845   3.000  11.625  0.1102 -0.6370 -0.4222
17008TIP3    H272440   5.827   2.959  11.480 -0.6736 -0.3050 -0.4235
17009TIP3   OH272441   5.861   2.538   3.098 -0.2858  0.4645 -0.1600
17009TIP3    H172442   5.785   2.565   3.150  0.0634  0.5491  0.3110
17009TIP3    H272443   5.936   2.551   3.156  0.1784  1.1134 -0.8883
17010TIP3   OH272444   6.329   4.235  13.466  0.0665  0.1737  0.2550
17010TIP3    H172445   6.305   4.317  13.423  0.7539 -0.2159 -0.9205
17010TIP3    H272446   6.300   4.246  13.557  0.0304  1.6602  0.0880
17011TIP3   OH272447   1.285   2.860   2.996 -0.1847  0.5395 -0.5102
17011TIP3    H172448   1.191   2.854   2.983 -0.2795 -3.3096  0.5510
17011TIP3    H272449   1.295   2.911   3.076 -1.2566  1.7352 -1.1065
17012TIP3   OH272450   0.169   6.137  11.916  0.0364 -0.5054 -0.2739
17012TIP3    H172451   0.185   6.148  12.009  0.8626  0.1640 -0.4824
17012TIP3    H272452   0.079   6.166  11.903  0.6089  1.5673 -0.0182
17013TIP3   OH272453   3.459   1.043  14.119  0.2571 -0.1024  0.0101
17013TIP3    H172454   3.391   0.988  14.078 -0.7979 -0.1944  1.7780
17013TIP3    H272455   3.452   1.127  14.074  0.8954 -0.9210 -1.7238
17014TIP3   OH272456   0.097   1.482  17.148 -0.0068 -0.2392 -0.9714
17014TIP3    H172457   0.086   1.577  17.161  0.2651 -0.4599  1.2709
17014TIP3    H272458   0.008   1.447  17.153  0.0417 -0.2601 -0.2658
17015TIP3   OH272459   6.662   3.773  15.123 -0.4967  0.2374 -0.2159
17015TIP3    H172460   6.710   3.690  15.125  0.3722  0.7575  1.3201
17015TIP3    H272461   6.570   3.747  15.135 -0.4154 -0.5921 -1.1821
17016TIP3   OH272462   6.573   3.670  12.077  0.5877 -0.1543  0.4617
17016TIP3    H172463   6.538   3.583  12.094  1.4069 -0.2411  1.8368
17016TIP3    H272464   6.529   3.698  11.997 -0.4904 -1.3882  0.5848
17017TIP3   OH272465   1.232   1.045   4.561  0.1901  0.0860  0.1132
17017TIP3    H172466   1.230   1.127   4.512 -1.2120  0.8570  1.3729
17017TIP3    H272467   1.312   1.051   4.614  0.8916 -0.0634 -0.9065
17018TIP3   OH272468   0.773   0.179   1.507 -0.2215  0.1642  0.5899
17018TIP3    H172469   0.835   0.199   1.577  0.3342  1.2978 -0.1945
17018TIP3    H272470   0.813   0.108   1.458 -0.9950 -1.2079  1.8735
17019TIP3   OH272471   2.207   5.711   3.641 -0.1604 -0.4911 -0.2273
17019TIP3    H172472   2.118   5.718   3.676  0.7176 -1.8191  2.5336
17019TIP3    H272473   2.211   5.780   3.575 -2.7250  0.7216  0.7074
17020TIP3   OH272474   2.180   3.567  15.057  0.0053 -0.1471 -0.3784
17020TIP3    H172475   2.227   3.498  15.105 -0.6518 -1.6656 -1.8308
17020TIP3    H272476   2.092   3.531  15.044 -0.6615  1.4138 -0.3056
17021TIP3   OH272477   3.357   0.512   5.732  0.2785 -0.6776  0.4094
17021TIP3    H172478   3.333   0.433   5.684 -0.9083  1.4818 -2.9074
17021TIP3    H272479   3.278   0.536   5.780  0.7122 -1.5601  1.6070
17022TIP3   OH272480   0.594   2.692   1.225 -0.5912  0.0579  0.2370
17022TIP3    H172481   0.660   2.713   1.290  1.0101 -1.1769 -0.8870
17022TIP3    H272482   0.515   2.737   1.254  1.0078  2.4986  1.0568
17023TIP3   OH272483   0.546   1.946  11.515  0.7620  0.1842 -0.0893
17023TIP3    H172484   0.458   1.982  11.524  1.1111  1.2270 -0.6619
17023TIP3    H272485   0.584   1.956  11.603 -0.1327 -1.5772  0.5418
17024TIP3   OH272486   2.514   3.240  14.387 -0.4538  0.0712  0.7004
17024TIP3    H172487   2.541   3.300  14.457 -0.7263 -0.0625  0.9228
17024TIP3    H272488   2.477   3.298  14.320 -0.8140  0.1455  0.9611
17025TIP3   OH272489   4.996   0.554  10.928 -0.2769  0.4055  0.3155
17025TIP3    H172490   4.968   0.629  10.875 -0.6847 -1.7193 -2.7228
17025TIP3    H272491   5.091   0.563  10.934 -0.2702  0.9230 -0.4192
17026TIP3   OH272492   3.011   4.175  14.021  0.1808 -0.1101  0.6650
17026TIP3    H172493   3.105   4.175  14.007  0.1555  1.5734  0.2455
17026TIP3    H272494   2.999   4.212  14.108 -0.0919 -0.1641  0.6513
17027TIP3   OH272495   3.046   0.338   4.235 -0.0694 -0.0236 -0.4405
17027TIP3    H172496   2.973   0.375   4.184 -2.8149 -1.6814  1.9351
17027TIP3    H272497   3.083   0.413   4.282 -0.5621  0.8146 -1.3570
17028TIP3   OH272498   5.025   6.476   1.497 -0.4925  0.6926  0.1628
17028TIP3    H172499   4.960   6.488   1.567 -1.4909  2.9653 -1.0464
17028TIP3    H272500   5.094   6.538   1.518  0.5990 -0.6254  0.5976
17029TIP3   OH272501   1.907   1.139  11.202 -0.3489 -1.4504 -0.2199
17029TIP3    H172502   1.973   1.207  11.216  0.1465 -2.1229  0.8294
17029TIP3    H272503   1.899   1.133  11.107  0.7745 -1.0444 -0.3554
17030TIP3   OH272504   0.901   4.585   5.979  0.2487 -0.4039  0.4708
17030TIP3    H172505   0.986   4.552   5.952  0.3586 -0.1857  0.5477
17030TIP3    H272506   0.899   4.572   6.074  0.8798  1.1105  0.7284
17031TIP3   OH272507   1.764   4.407  14.462  0.2275  0.4184  0.2328
17031TIP3    H172508   1.721   4.448  14.386 -0.3419  1.0354  0.8684
17031TIP3    H272509   1.857   4.422  14.448  0.1970 -0.2017 -0.7544
17032TIP3   OH272510   1.203   1.952   3.957 -0.3449  0.0893  0.7910
17032TIP3    H172511   1.196   2.033   4.008 -0.3772 -0.4616  1.6931
17032TIP3    H272512   1.298   1.937   3.950 -0.3275  0.4304  0.2425
17033TIP3   OH272513   2.366   0.345   3.218  0.6910  0.6906  0.4563
17033TIP3    H172514   2.383   0.316   3.129  1.1170 -0.3907  0.8777
17033TIP3    H272515   2.445   0.322   3.267 -0.0190  0.1338  1.3694
17034TIP3   OH272516   0.524   6.530   1.501 -0.0546 -0.8169  0.0519
17034TIP3    H172517   0.559   6.476   1.431 -0.2228  1.9664 -2.3698
17034TIP3    H272518   0.440   6.562   1.467  0.4845  1.7209  0.8683
17035TIP3   OH272519   1.414   6.283  11.893 -0.5626  0.5740  0.1185
17035TIP3    H172520   1.469   6.211  11.924  0.5046  0.6346 -1.5595
17035TIP3    H272521   1.419   6.348  11.963  0.7750  0.2061  0.3963
17036TIP3   OH272522   1.931   0.485  12.931 -0.2204  0.5908 -0.2302
17036TIP3    H172523   1.933   0.486  13.027 -1.0436  1.0375 -0.2097
17036TIP3    H272524   2.020   0.464  12.906  0.2603  1.5336  0.6179
17037TIP3   OH272525   3.970   4.908   4.000 -0.4235  0.0959 -1.0027
17037TIP3    H172526   3.970   4.815   3.978 -1.5070  0.4404 -2.5866
17037TIP3    H272527   4.044   4.944   3.952  0.9324 -0.1379  0.7754
17038TIP3   OH272528   1.063   0.138  15.488 -0.2304  0.0044  0.1492
17038TIP3    H172529   1.022   0.208  15.537 -1.1406 -0.7264  0.4558
17038TIP3    H272530   1.002   0.065  15.495  0.4096 -0.6271 -0.6752
17039TIP3   OH272531   4.291   5.612   5.984 -0.8757  0.8322  0.0314
17039TIP3    H172532   4.268   5.521   6.000 -0.5467  0.7811  0.2265
17039TIP3    H272533   4.223   5.663   6.028 -0.4515  0.6883  0.8779
17040TIP3   OH272534   5.345   4.467  13.815 -0.6055 -0.0615  0.4138
17040TIP3    H172535   5.426   4.417  13.825 -0.2311  0.6468  1.0209
17040TIP3    H272536   5.375   4.553  13.784 -1.2098 -0.0901 -0.2830
17041TIP3   OH272537   0.437   4.300   1.378  0.1740 -0.7559 -0.2693
17041TIP3    H172538   0.413   4.347   1.298 -0.5749 -0.1928  0.2635
17041TIP3    H272539   0.532   4.310   1.384 -0.0649  1.7124  0.4130
17042TIP3   OH272540   0.763   4.942   5.825 -0.1023  0.0463 -0.3435
17042TIP3    H172541   0.776   4.852   5.795  0.9559  0.4976 -1.3293
17042TIP3    H272542   0.668   4.955   5.823 -0.2511 -0.9720 -0.4026
17043TIP3   OH272543   6.519   5.399   2.697  0.5474  0.0692 -0.4851
17043TIP3    H172544   6.583   5.397   2.768  0.4277 -2.2148 -0.3690
17043TIP3    H272545   6.569   5.423   2.619  0.8039  1.9221  0.1940
17044TIP3   OH272546   0.472   4.120   4.388  1.0601  0.3550  0.0639
17044TIP3    H172547   0.447   4.212   4.395 -0.0940  0.0609  0.1141
17044TIP3    H272548   0.393   4.077   4.355  1.8892 -0.4763 -0.8839
17045TIP3   OH272549   4.281   0.980   4.164 -0.3061  0.0913 -0.5507
17045TIP3    H172550   4.307   1.050   4.105  0.1130 -0.9880 -1.6859
17045TIP3    H272551   4.358   0.923   4.169 -1.0813 -0.9918 -0.7072
17046TIP3   OH272552   1.366   0.550   4.658 -0.3188  0.3823  0.5336
17046TIP3    H172553   1.442   0.519   4.609  1.2041  0.2636  2.8411
17046TIP3    H272554   1.335   0.474   4.708 -1.1487  0.7583  0.6199
17047TIP3   OH272555   5.518   5.268  13.651 -0.6593 -0.1040 -0.1604
17047TIP3    H172556   5.451   5.328  13.616 -1.1046 -2.1361 -3.1736
17047TIP3    H272557   5.598   5.294  13.606 -0.8354 -1.6057 -1.4099
17048TIP3   OH272558   0.549   6.740  16.331 -0.6218 -0.1388 -0.2227
17048TIP3    H172559   0.544   6.687  16.252 -2.8016 -1.1124  0.5130
17048TIP3    H272560   0.560   6.830  16.298  0.3027 -0.6969 -1.5433
17049TIP3   OH272561   1.302   3.696  15.218  0.0557 -0.4221 -0.3673
17049TIP3    H172562   1.380   3.642  15.209 -0.0272 -0.4409 -1.0545
17049TIP3    H272563   1.237   3.654  15.161 -0.5836 -0.6404  0.5086
17050TIP3   OH272564   6.533   1.869  12.794  0.4717  0.4180  0.0881
17050TIP3    H172565   6.554   1.873  12.888  0.3972  1.6992  0.0685
17050TIP3    H272566   6.497   1.955  12.774  1.6312  0.5939 -1.3944
17051TIP3   OH272567   2.357   2.646  13.110 -0.1912  0.1630 -0.4430
17051TIP3    H172568   2.359   2.581  13.180 -3.5749 -1.9630 -2.0541
17051TIP3    H272569   2.323   2.725  13.151  0.6000 -0.1503  0.8577
17052TIP3   OH272570   2.502   5.583   1.596  0.1088 -0.3173  0.7348
17052TIP3    H172571   2.569   5.638   1.556  1.9282 -1.8040  1.5907
17052TIP3    H272572   2.496   5.507   1.538 -1.3495  0.0669  0.3271
17053TIP3   OH272573   0.550   4.903   4.756  0.0560 -0.6467 -0.4309
17053TIP3    H172574   0.456   4.897   4.740  0.2820  1.6033 -3.1239
17053TIP3    H272575   0.591   4.872   4.675  1.5898  0.5184 -0.1459
17054TIP3   OH272576   6.698   4.353   0.065 -0.7249  0.0002  0.5476
17054TIP3    H172577   6.707   4.275   0.010 -0.5891 -0.5090  1.2700
17054TIP3    H272578   6.713   4.321   0.154  0.4242  1.0608  0.7581
17055TIP3   OH272579   1.232   2.306   4.979 -0.0730  0.2133  0.1468
17055TIP3    H172580   1.206   2.345   4.895 -0.3865 -2.1462 -0.9201
17055TIP3    H272581   1.155   2.316   5.035 -0.3903  0.4943 -0.3268
17056TIP3   OH272582   6.328   4.529  15.416  0.0095  0.9210 -0.1576
17056TIP3    H172583   6.288   4.510  15.500 -0.1453  0.8387 -0.2505
17056TIP3    H272584   6.329   4.625  15.410 -0.3177  0.9197 -0.2263
17057TIP3   OH272585   6.716   6.769   3.427 -0.0604 -0.2667 -0.3064
17057TIP3    H172586   6.640   6.779   3.484 -1.1476 -1.9317 -1.3800
17057TIP3    H272587   6.788   6.747   3.486 -0.3469  1.3917  0.7358
17058TIP3   OH272588   3.331   1.982   4.577  0.0527  0.4933  0.2087
17058TIP3    H172589   3.306   2.061   4.529  0.6354  0.0156 -0.9117
17058TIP3    H272590   3.341   1.915   4.510  0.1500 -0.3907  1.0844
17059TIP3   OH272591   4.396   3.810   6.253  0.1122  0.1617  0.3884
17059TIP3    H172592   4.355   3.838   6.171  2.3329 -1.5170 -1.4333
17059TIP3    H272593   4.481   3.854   6.255  0.4549 -0.4929  1.3291
17060TIP3   OH272594   5.033   4.823   1.992 -0.1759  0.2377  0.0532
17060TIP3    H172595   5.081   4.903   2.014  0.0926 -0.2848  1.4962
17060TIP3    H272596   5.015   4.782   2.077 -1.1513 -0.7537 -0.6026
17061TIP3   OH272597   6.596   5.628   5.361  0.0690  0.2225 -0.3480
17061TIP3    H172598   6.534   5.607   5.292  1.0400 -1.4085 -0.7889
17061TIP3    H272599   6.629   5.716   5.339 -2.2775  1.2838  0.1137
17062TIP3   OH272600   1.591   1.680  13.301  0.1302 -0.1397  0.0528
17062TIP3    H172601   1.512   1.713  13.259 -0.3409  0.0228  1.0454
17062TIP3    H272602   1.661   1.700  13.239 -0.6264 -0.5079 -0.9468
17063TIP3   OH272603   6.614   4.915  11.967  0.0210 -0.0978 -0.2610
17063TIP3    H172604   6.610   4.896  11.873 -0.9784 -0.3286 -0.1881
17063TIP3    H272605   6.628   5.009  11.972 -1.4329  0.1680 -0.6682
17064TIP3   OH272606   2.728   4.416   4.760  0.1157 -0.3257  0.0176
17064TIP3    H172607   2.768   4.467   4.690 -0.1570 -2.6071 -1.9237
17064TIP3    H272608   2.635   4.438   4.755  0.3049  0.6980  0.7512
17065TIP3   OH272609   3.566   1.569  12.878 -0.1240  0.3832  0.5566
17065TIP3    H172610   3.656   1.540  12.885 -0.8626 -2.8328 -1.3396
17065TIP3    H272611   3.544   1.601  12.966  1.9959 -1.5008  1.8711
17066TIP3   OH272612   3.514   1.872   2.289  0.3536  0.0899 -0.6266
17066TIP3    H172613   3.556   1.914   2.364 -0.4721 -0.7811  0.3538
17066TIP3    H272614   3.583   1.819   2.249  0.0927 -1.9379  1.4156
17067TIP3   OH272615   2.990   6.576   1.247  0.7266  0.3330 -0.0011
17067TIP3    H172616   3.008   6.598   1.338  4.2426  3.2834 -1.1220
17067TIP3    H272617   3.060   6.515   1.222 -0.5375 -0.9247 -0.6464
17068TIP3   OH272618   5.783   4.325  13.969  0.0181  0.2250  0.3019
17068TIP3    H172619   5.724   4.381  14.019  0.7313  0.2461  1.1480
17068TIP3    H272620   5.863   4.378  13.958 -1.2181  1.6681 -3.9271
17069TIP3   OH272621   4.742   0.498   4.368 -0.3900 -0.2232 -0.1168
17069TIP3    H172622   4.658   0.490   4.413 -0.6190 -0.3198 -0.5510
17069TIP3    H272623   4.762   0.409   4.340 -0.3865 -0.1200 -0.4454
17070TIP3   OH272624   2.120   1.696  15.141  0.0300  0.3038  0.4883
17070TIP3    H172625   2.205   1.723  15.107 -0.1202  2.5720  1.6766
17070TIP3    H272626   2.115   1.602  15.123  2.8737  0.0474  0.6378
17071TIP3   OH272627   5.321   1.549   1.594 -0.2260  0.1281 -0.7998
17071TIP3    H172628   5.375   1.553   1.673  0.9601 -1.5037 -1.4760
17071TIP3    H272629   5.380   1.575   1.523 -1.0857  0.9013 -1.2566
17072TIP3   OH272630   2.166   5.961   5.970 -0.0066  0.4367  0.4452
17072TIP3    H172631   2.217   5.973   5.889 -1.7811  0.0851 -0.7840
17072TIP3    H272632   2.120   6.044   5.981 -1.4250 -0.2465 -0.1432
17073TIP3   OH272633   3.411   2.033   1.269 -0.1028  0.5725 -0.0529
17073TIP3    H172634   3.353   2.038   1.344 -1.3877  0.3356 -0.9968
17073TIP3    H272635   3.416   2.123   1.236 -1.5937  0.3006 -1.1460
17074TIP3   OH272636   0.795   2.639  12.198 -0.7404 -0.2462 -0.0994
17074TIP3    H172637   0.879   2.596  12.215 -0.3968  0.3981 -0.1435
17074TIP3    H272638   0.744   2.574  12.150 -0.5622 -0.9359  0.6182
17075TIP3   OH272639   4.377   4.658   6.074  0.2908 -0.5818  0.1662
17075TIP3    H172640   4.459   4.695   6.041 -0.6250  1.0749 -0.3556
17075TIP3    H272641   4.336   4.620   5.996  0.5688 -1.4569  0.4367
17076TIP3   OH272642   1.573   4.238   3.258 -0.0981 -0.3339 -0.1066
17076TIP3    H172643   1.627   4.308   3.293  1.9311 -2.0537  0.4498
17076TIP3    H272644   1.520   4.208   3.332  1.7165 -1.7330  0.6996
17077TIP3   OH272645   0.972   5.476   0.303 -0.3759  0.4420 -0.4383
17077TIP3    H172646   1.055   5.440   0.270  0.3326  1.1934  0.4727
17077TIP3    H272647   0.932   5.404   0.351 -0.7099 -0.2059 -1.6400
17078TIP3   OH272648   3.167   3.927  14.943 -0.3394  0.4428  0.0739
17078TIP3    H172649   3.175   3.837  14.973 -0.7051 -0.3142 -1.9395
17078TIP3    H272650   3.077   3.934  14.912 -0.5672  1.7719  0.9520
17079TIP3   OH272651   4.968   0.103   6.201 -0.3047  0.5671 -0.2654
17079TIP3    H172652   4.954   0.195   6.180  3.1489  1.5165  1.0057
17079TIP3    H272653   5.053   0.081   6.163 -1.3817 -2.4240 -1.2935
17080TIP3   OH272654   4.873   1.617  13.564  0.1844  0.2825 -0.1266
17080TIP3    H172655   4.896   1.709  13.568  2.2616 -0.2252  1.1208
17080TIP3    H272656   4.884   1.592  13.472  1.9968  0.7382 -0.0542
17081TIP3   OH272657   6.338   2.407   3.772  0.2936 -0.3166  0.0736
17081TIP3    H172658   6.398   2.372   3.707 -0.3121 -1.1614 -0.0623
17081TIP3    H272659   6.394   2.450   3.836  0.9863 -0.5044 -0.3920
17082TIP3   OH272660   2.534   2.755   0.536 -0.1388  0.2091  0.2782
17082TIP3    H172661   2.487   2.695   0.478  0.8305  1.6110 -2.1083
17082TIP3    H272662   2.475   2.829   0.546  0.1685  0.4802  0.0985
17083TIP3   OH272663   3.253   5.239   2.010 -0.6592 -0.0061 -0.3246
17083TIP3    H172664   3.274   5.233   1.917  0.4610 -0.6539 -0.0592
17083TIP3    H272665   3.284   5.325   2.037  0.8915 -0.5676 -0.1590
17084TIP3   OH272666   2.214   4.233   2.522 -0.0233  0.1858 -0.0449
17084TIP3    H172667   2.238   4.164   2.583 -0.9314 -2.5567 -2.5547
17084TIP3    H272668   2.131   4.267   2.556  1.4933  1.7637  2.4135
17085TIP3   OH272669   5.595   5.333  12.962  0.2095 -0.0252  0.3396
17085TIP3    H172670   5.585   5.240  12.982 -0.5181 -0.2414 -0.8954
17085TIP3    H272671   5.507   5.362  12.938  0.8893  0.2357 -2.1788
17086TIP3   OH272672   4.674   2.923  15.579 -0.3497 -0.1067  0.3358
17086TIP3    H172673   4.627   2.990  15.530  2.2246  1.3396 -0.3358
17086TIP3    H272674   4.658   2.945  15.671 -0.3359  0.8507  0.1212
17087TIP3   OH272675   5.311   2.467  14.323 -0.2723  0.2762  0.3159
17087TIP3    H172676   5.382   2.485  14.386  0.0805 -1.0453  0.3250
17087TIP3    H272677   5.356   2.428  14.248 -0.9572 -0.1957  0.1512
17088TIP3   OH272678   5.261   4.437   0.745 -0.1710 -0.1557  0.3667
17088TIP3    H172679   5.331   4.414   0.806 -1.1330 -0.9173  1.2366
17088TIP3    H272680   5.275   4.529   0.725  1.6956 -0.5439 -0.3514
17089TIP3   OH272681   2.279   6.347  15.564 -0.6628 -0.6386  0.7156
17089TIP3    H172682   2.296   6.439  15.548  1.0546 -1.0253  0.0928
17089TIP3    H272683   2.187   6.343  15.590 -0.7188  1.2466  0.8885
17090TIP3   OH272684   6.437   0.731   0.986  0.0329 -0.0837 -0.4000
17090TIP3    H172685   6.423   0.768   0.899 -2.0293 -0.6835 -0.3758
17090TIP3    H272686   6.532   0.732   0.997  0.2821  1.0791 -2.1701
17091TIP3   OH272687   1.330   2.461   0.781 -0.1268 -0.3743 -0.2222
17091TIP3    H172688   1.286   2.529   0.831 -2.2531 -2.2520  0.6269
17091TIP3    H272689   1.266   2.434   0.715 -0.2885 -3.0123  0.8847
17092TIP3   OH272690   0.302   5.660   5.984 -0.0955  0.2617  0.2674
17092TIP3    H172691   0.291   5.717   6.059 -0.3674 -0.8110  1.0648
17092TIP3    H272692   0.397   5.649   5.976 -0.0642  0.4308  0.4207
17093TIP3   OH272693   2.810   5.569   5.116 -0.1746 -0.0308 -0.2238
17093TIP3    H172694   2.809   5.487   5.164  0.6250 -0.9262 -1.6861
17093TIP3    H272695   2.730   5.567   5.063  0.4856 -0.4893 -1.2308
17094TIP3   OH272696   5.970   5.222   5.468  0.3920 -0.6533  0.1300
17094TIP3    H172697   5.966   5.257   5.557  1.1004 -1.2073  0.3882
17094TIP3    H272698   5.960   5.299   5.412 -1.4743 -0.4652  0.6555
17095TIP3   OH272699   3.944   2.024  12.370 -0.2393 -0.5962 -0.4646
17095TIP3    H172700   3.985   2.016  12.284  0.3734 -0.1690 -0.2189
17095TIP3    H272701   3.985   1.956  12.423  2.0470  1.3747  0.4887
17096TIP3   OH272702   6.089   1.930   6.445 -0.2375 -0.6186  0.1348
17096TIP3    H172703   6.162   1.990   6.430  0.4321 -1.5551 -0.4082
17096TIP3    H272704   6.123   1.843   6.423 -1.2153 -1.2024  0.8142
17097TIP3   OH272705   6.344   4.190  16.006 -0.6359  0.2170  0.3965
17097TIP3    H172706   6.288   4.157  15.935 -0.4461  0.4766  0.1185
17097TIP3    H272707   6.304   4.273  16.031  1.7435  2.5068 -2.5534
17098TIP3   OH272708   3.004   3.260  13.628 -0.5891  0.1662  0.0206
17098TIP3    H172709   2.921   3.283  13.670 -0.0413  1.2273  0.5658
17098TIP3    H272710   3.015   3.167  13.645 -2.0411 -0.1671 -0.7276
17099TIP3   OH272711   2.472   6.050  14.056 -0.0997 -0.5056  0.4472
17099TIP3    H172712   2.518   6.106  14.118  0.0350  0.2721 -0.3247
17099TIP3    H272713   2.489   6.090  13.970 -0.8586 -1.1404 -0.0220
17100TIP3   OH272714   3.067   4.578   3.669 -0.1038 -0.2165 -0.2847
17100TIP3    H172715   3.151   4.600   3.710 -0.5347  0.8112  0.0792
17100TIP3    H272716   3.047   4.490   3.701 -0.9895  0.9584  2.7193
17101TIP3   OH272717   2.732   3.309   0.431 -0.1668  0.3835  0.6085
17101TIP3    H172718   2.767   3.309   0.520 -0.0161  1.4421  0.5621
17101TIP3    H272719   2.751   3.221   0.398 -0.0346  0.0510  1.5448
17102TIP3   OH272720   0.989   3.184   3.113  0.6402 -0.7201 -0.4868
17102TIP3    H172721   0.958   3.115   3.172 -0.5872  0.0508 -0.1846
17102TIP3    H272722   0.982   3.264   3.165  1.7455 -0.3216 -0.9386
17103TIP3   OH272723   5.918   2.048  14.078 -0.5949  0.3208 -0.4140
17103TIP3    H172724   5.929   1.965  14.031  0.3162 -1.7019  2.9929
17103TIP3    H272725   5.837   2.037  14.127  1.0031  0.0202  2.3959
17104TIP3   OH272726   6.383   4.907  13.761 -0.3325  0.3770 -0.2027
17104TIP3    H172727   6.305   4.912  13.816 -0.3077  0.4580 -0.1745
17104TIP3    H272728   6.413   4.998  13.754  1.0251  0.1176  1.5989
17105TIP3   OH272729   2.315   1.302  15.552  0.6179 -0.4586  0.3722
17105TIP3    H172730   2.304   1.377  15.494  1.3105  0.4074  1.3098
17105TIP3    H272731   2.381   1.247  15.509  0.7077 -0.1066  0.0642
17106TIP3   OH272732   2.823   2.212   2.633  0.1198 -0.0112  0.3198
17106TIP3    H172733   2.848   2.238   2.544  1.2617  1.6629  1.0780
17106TIP3    H272734   2.902   2.172   2.669  0.6807  2.0203  1.5253
17107TIP3   OH272735   5.175   5.862  15.138  0.4818  0.3830  0.5015
17107TIP3    H172736   5.201   5.778  15.175 -0.5784 -0.1683  0.0449
17107TIP3    H272737   5.203   5.857  15.046  0.4350  0.5277  0.4791
17108TIP3   OH272738   3.710   5.686  12.500 -0.2959  0.0952 -0.1245
17108TIP3    H172739   3.759   5.611  12.533  2.3413  2.1391  0.9291
17108TIP3    H272740   3.637   5.697  12.561 -1.9885 -2.7142 -1.4474
17109TIP3   OH272741   3.005   5.292  11.694 -0.5944 -0.5406 -0.2599
17109TIP3    H172742   3.036   5.284  11.785 -2.4509 -1.3564  0.3547
17109TIP3    H272743   3.005   5.386  11.677 -0.6629 -0.3390  0.7788
17110TIP3   OH272744   4.206   3.498   3.316 -0.4275 -0.2471  0.4164
17110TIP3    H172745   4.225   3.545   3.235  0.1788  1.0441  1.2595
17110TIP3    H272746   4.281   3.440   3.329 -0.5472 -0.4881  0.0392
17111TIP3   OH272747   6.089   0.261   6.414  0.5895  0.0107 -0.3846
17111TIP3    H172748   6.067   0.222   6.498  2.0605 -1.1586 -0.4882
17111TIP3    H272749   6.185   0.264   6.413  0.5899  0.4982 -1.7954
17112TIP3   OH272750   4.209   4.415  13.127  0.1976  0.0621  0.5677
17112TIP3    H172751   4.140   4.432  13.191 -1.9891 -2.2089 -0.9730
17112TIP3    H272752   4.206   4.320  13.115  1.5352  0.2560 -1.7723
17113TIP3   OH272753   6.072   5.850  12.387 -0.0946  0.4423  0.4537
17113TIP3    H172754   6.078   5.943  12.409  0.1171  0.2424  1.2826
17113TIP3    H272755   6.047   5.808  12.469 -1.8218 -0.0608 -0.2793
17114TIP3   OH272756   6.635   3.981   5.615 -0.7961 -1.0133  0.0502
17114TIP3    H172757   6.565   4.047   5.608 -1.7634 -1.9126  0.9835
17114TIP3    H272758   6.681   3.987   5.532 -0.5276  1.2019  0.2975
17115TIP3   OH272759   1.156   4.282   0.134  0.4035 -0.3104  0.3018
17115TIP3    H172760   1.063   4.265   0.147  0.2515  1.1669  1.3077
17115TIP3    H272761   1.163   4.313   0.044 -0.2132  0.4707  0.5204
17116TIP3   OH272762   2.795   2.935  12.444  0.5756  0.4742  0.1387
17116TIP3    H172763   2.735   3.004  12.415  0.6980  1.6351  2.3995
17116TIP3    H272764   2.869   2.982  12.483  1.2959 -0.9455  0.5612
17117TIP3   OH272765   6.744   1.668  16.808 -0.4902  0.0351 -0.7034
17117TIP3    H172766   6.825   1.618  16.796 -0.2981 -0.1471  1.0676
17117TIP3    H272767   6.746   1.733  16.738  0.1821 -1.2159 -1.9174
17118TIP3   OH272768   6.542   5.629  14.223 -0.7099 -0.9928 -0.4961
17118TIP3    H172769   6.460   5.598  14.184 -1.7228  1.6432 -0.6184
17118TIP3    H272770   6.596   5.654  14.148 -1.0928  0.3200 -0.3500
17119TIP3   OH272771   0.963   5.555  16.687  0.3087 -0.3716  0.2478
17119TIP3    H172772   1.057   5.558  16.667  0.2535 -0.6758 -0.0861
17119TIP3    H272773   0.946   5.463  16.707  0.2291 -0.1836  1.0819
17120TIP3   OH272774   0.566   6.132  15.258 -0.0796  0.1743 -0.4919
17120TIP3    H172775   0.598   6.142  15.168 -0.7782 -1.0167 -0.8999
17120TIP3    H272776   0.640   6.095  15.306  0.5486  1.5221 -0.3668
17121TIP3   OH272777   4.122   5.351   4.460  0.4459  0.5467  1.0083
17121TIP3    H172778   4.026   5.360   4.458  0.1942 -1.4228  1.6770
17121TIP3    H272779   4.140   5.283   4.395  1.6287  2.1519 -0.4474
17122TIP3   OH272780   3.423   1.217   2.999 -0.0635  0.1000 -0.3237
17122TIP3    H172781   3.511   1.241   3.029 -0.8634  0.8430  1.5532
17122TIP3    H272782   3.417   1.254   2.911  2.1829 -1.6790 -1.3364
17123TIP3   OH272783   6.300   4.692   6.293  0.3580 -0.2024 -0.0174
17123TIP3    H172784   6.234   4.761   6.304 -1.9333 -1.7860 -2.5401
17123TIP3    H272785   6.271   4.622   6.352  1.9660  0.3859  1.5823
17124TIP3   OH272786   1.865   3.754   2.414 -0.8480  0.1950 -0.0955
17124TIP3    H172787   1.816   3.784   2.490  0.4667 -1.0022  1.2846
17124TIP3    H272788   1.889   3.835   2.368 -0.8209  1.0053  1.2955
17125TIP3   OH272789   1.582   6.297  14.158  0.5541 -0.1454 -0.1662
17125TIP3    H172790   1.584   6.248  14.239  2.0618  1.0716  0.5774
17125TIP3    H272791   1.671   6.330  14.147  1.0268 -2.0694 -3.4877
17126TIP3   OH272792   5.621   4.810   1.502 -0.8313  0.0771 -1.3804
17126TIP3    H172793   5.530   4.800   1.473 -0.4795 -2.0884 -1.9543
17126TIP3    H272794   5.674   4.788   1.425  0.3234  4.2645 -1.9904
17127TIP3   OH272795   6.024   1.164   2.308 -0.0722  0.2890  0.2388
17127TIP3    H172796   6.058   1.075   2.314 -0.3237  0.2075  0.5071
17127TIP3    H272797   6.004   1.188   2.398 -3.0024 -0.5782 -0.0723
17128TIP3   OH272798   6.038   2.582  16.559  0.0176 -0.2286 -0.3291
17128TIP3    H172799   6.083   2.579  16.475 -0.6960  1.1796 -0.8005
17128TIP3    H272800   5.977   2.655  16.551  0.1306  0.1252  1.5140
17129TIP3   OH272801   5.243   0.023   2.804 -0.0383 -0.5845 -0.2995
17129TIP3    H172802   5.274   0.065   2.724  0.6911  0.4494  0.5075
17129TIP3    H272803   5.190   0.090   2.848 -1.7351 -1.6368 -0.6231
17130TIP3   OH272804   5.475   0.698  15.732  0.4686  0.0513  0.2426
17130TIP3    H172805   5.446   0.788  15.718  0.7331 -0.0883 -1.3280
17130TIP3    H272806   5.570   0.703  15.738  0.5442 -0.1863 -0.5728
17131TIP3   OH272807   2.853   3.900  11.172  0.4034 -0.3114  0.7983
17131TIP3    H172808   2.937   3.945  11.162  0.9569 -1.6848 -1.1985
17131TIP3    H272809   2.817   3.896  11.083 -1.0554 -1.1424  1.3915
17132TIP3   OH272810   2.115   4.503  13.299  0.1244 -0.4850 -0.8938
17132TIP3    H172811   2.046   4.505  13.233 -2.3033  0.2006  1.5118
17132TIP3    H272812   2.163   4.585  13.285  0.5090 -0.9444 -2.5517
17133TIP3   OH272813   0.048   4.696  11.494 -0.2703  0.6031 -0.0417
17133TIP3    H172814   0.058   4.618  11.550 -0.9926  0.7067  0.2401
17133TIP3    H272815   0.122   4.691  11.434  0.1083  0.0898  0.4493
17134TIP3   OH272816   4.694   1.002  15.451  0.7392 -0.7981 -0.2965
17134TIP3    H172817   4.623   0.978  15.391 -0.7001  1.1458  0.5075
17134TIP3    H272818   4.715   0.921  15.497 -2.9485 -0.9928  1.3966
17135TIP3   OH272819   6.376   6.446  10.710  0.1847  0.0613 -0.0105
17135TIP3    H172820   6.462   6.406  10.703  0.7762  1.1719  0.5637
17135TIP3    H272821   6.372   6.508  10.637 -0.2190 -0.1364 -0.1601
17136TIP3   OH272822   3.654   0.320   2.255 -0.2431  0.3042 -0.1144
17136TIP3    H172823   3.745   0.315   2.227 -0.7652 -0.4514 -1.7835
17136TIP3    H272824   3.659   0.318   2.351  1.3912 -2.6432 -0.1178
17137TIP3   OH272825   5.814   3.426  15.718  0.6176 -0.0144 -0.0203
17137TIP3    H172826   5.856   3.357  15.667 -1.6628 -1.3343 -0.2229
17137TIP3    H272827   5.829   3.401  15.809  0.0399 -0.6431 -0.0926
17138TIP3   OH272828   5.312   2.124   6.451  0.0387 -0.5564 -0.1892
17138TIP3    H172829   5.298   2.037   6.489 -0.9518  0.2737  1.4444
17138TIP3    H272830   5.226   2.165   6.452  0.5518  0.5720 -0.6501
17139TIP3   OH272831   1.969   0.781  16.458 -0.0256 -0.4179  1.0344
17139TIP3    H172832   2.054   0.823  16.464  0.6384 -1.4807 -0.2898
17139TIP3    H272833   1.943   0.766  16.549 -0.2972  2.7271  1.5627
17140TIP3   OH272834   6.766   1.355  16.849 -0.2315 -0.3973  0.3603
17140TIP3    H172835   6.715   1.378  16.926 -0.1005 -0.6864  0.5322
17140TIP3    H272836   6.849   1.401  16.861 -0.3972 -0.0311  0.1423
17141TIP3   OH272837   4.241   1.466   1.509 -0.4058  0.0150 -0.2581
17141TIP3    H172838   4.308   1.403   1.484  0.2419  0.8142 -0.6051
17141TIP3    H272839   4.274   1.550   1.476 -0.7090  0.7180  1.1530
17142TIP3   OH272840   1.736   6.471  14.433 -0.2365  0.7525  0.3583
17142TIP3    H172841   1.643   6.449  14.440  0.0673 -0.1498  2.1653
17142TIP3    H272842   1.776   6.394  14.392  0.0129  0.2037  1.5955
17143TIP3   OH272843   0.705   1.892   1.700 -1.2276 -0.0785 -0.4771
17143TIP3    H172844   0.730   1.981   1.726 -2.0149 -0.4067  1.5340
17143TIP3    H272845   0.658   1.904   1.617 -1.3121  1.3824 -0.2406
17144TIP3   OH272846   4.717   1.867  15.975  0.1636 -0.7518 -0.5975
17144TIP3    H172847   4.666   1.820  16.040  1.5191 -1.5946 -0.0935
17144TIP3    H272848   4.735   1.802  15.907 -0.3363 -0.1651 -1.3067
17145TIP3   OH272849   0.353   4.170  12.397 -0.7476 -0.3833 -0.1336
17145TIP3    H172850   0.293   4.098  12.377 -2.3218  1.1150 -1.0585
17145TIP3    H272851   0.325   4.242  12.339  1.1112  0.8114  0.3562
17146TIP3   OH272852   2.809   5.466  16.982 -0.2258  0.5976  0.4667
17146TIP3    H172853   2.856   5.385  16.999  1.2764  1.1618 -0.6613
17146TIP3    H272854   2.781   5.497  17.068  3.0638  1.1063  1.5301
17147TIP3   OH272855   1.351   0.122  15.863 -0.5056  0.0765  0.3842
17147TIP3    H172856   1.319   0.064  15.932 -0.6474 -0.0346  0.2270
17147TIP3    H272857   1.272   0.149  15.817 -0.4098  0.1432  0.2590
17148TIP3   OH272858   1.873   4.402  12.535 -0.1210 -0.0948  0.2470
17148TIP3    H172859   1.789   4.382  12.578 -0.1629  0.3087  0.3526
17148TIP3    H272860   1.852   4.468  12.469 -0.0037 -0.5048 -0.2061
17149TIP3   OH272861   3.710   5.940  14.025 -0.1125 -0.4059 -0.1753
17149TIP3    H172862   3.744   6.008  13.968 -0.9922  0.0776 -0.1416
17149TIP3    H272863   3.618   5.964  14.040 -0.4805 -1.6429 -0.2505
17150TIP3   OH272864   2.428   5.362  15.058 -0.1212 -0.4347  0.9951
17150TIP3    H172865   2.453   5.427  14.993  0.4588 -0.6446  0.9957
17150TIP3    H272866   2.501   5.362  15.120 -0.6525 -0.2572  1.6271
17151TIP3   OH272867   5.647   0.957  11.547 -0.2462  0.3212 -0.1998
17151TIP3    H172868   5.633   0.963  11.452 -0.9514 -1.4101 -0.2400
17151TIP3    H272869   5.687   1.040  11.571  0.3458  0.6193 -2.0934
17152TIP3   OH272870   4.002   5.009  16.148  0.4025 -0.0586  0.5891
17152TIP3    H172871   3.983   5.038  16.059  1.6404 -1.5904 -0.2271
17152TIP3    H272872   4.034   5.088  16.193  0.0999  0.6534 -0.4189
17153TIP3   OH272873   4.096   1.243   4.838 -0.9761  0.0845  0.1684
17153TIP3    H172874   4.056   1.156   4.844 -0.8361 -0.0018 -0.1334
17153TIP3    H272875   4.147   1.252   4.918 -2.2571  0.5249  0.9615
17154TIP3   OH272876   0.784   2.327  15.137  0.1221  0.0114 -0.2184
17154TIP3    H172877   0.796   2.411  15.093 -0.5988  0.0231 -0.4202
17154TIP3    H272878   0.774   2.349  15.230  0.0899  0.1397 -0.2519
17155TIP3   OH272879   5.591   2.656   5.253 -0.2843 -0.2881  0.3110
17155TIP3    H172880   5.657   2.590   5.234 -0.9245 -0.7029 -0.5369
17155TIP3    H272881   5.602   2.675   5.346 -0.0808 -1.5932  0.5717
17156TIP3   OH272882   0.498   3.818   4.249  0.0317 -0.5524 -0.1547
17156TIP3    H172883   0.462   3.889   4.194 -2.2800 -2.2011 -0.8948
17156TIP3    H272884   0.516   3.747   4.187  1.3614 -1.0230  0.7230
17157TIP3   OH272885   3.388   0.620  10.875 -0.1021  0.0016 -0.7550
17157TIP3    H172886   3.343   0.705  10.873 -0.8403 -0.3692 -0.1572
17157TIP3    H272887   3.318   0.556  10.868  0.3956 -0.5758 -0.4804
17158TIP3   OH272888   4.248   0.829  12.284  0.0753 -0.1558 -0.1515
17158TIP3    H172889   4.207   0.915  12.281  1.5251  0.5657 -0.1053
17158TIP3    H272890   4.175   0.768  12.273 -0.8047  1.0954 -1.7200
17159TIP3   OH272891   5.344   1.346  15.131  0.2705 -0.1168 -0.3395
17159TIP3    H172892   5.410   1.342  15.200  2.7430  3.1696 -2.2027
17159TIP3    H272893   5.295   1.427  15.151  1.0391  0.8895 -2.3116
17160TIP3   OH272894   5.767   6.207  12.934  0.5522 -0.1004  0.1410
17160TIP3    H172895   5.762   6.285  12.880  1.2790  0.0561  0.2954
17160TIP3    H272896   5.776   6.135  12.871 -3.7321 -0.5647 -0.2995
17161TIP3   OH272897   3.773   1.419   1.042 -0.1723 -0.7658 -0.1097
17161TIP3    H172898   3.741   1.363   0.971  0.5872  0.6985 -1.6625
17161TIP3    H272899   3.758   1.508   1.012  3.9195  0.0210 -0.3591
17162TIP3   OH272900   3.671   1.179  16.111  0.4976  0.5026 -0.0080
17162TIP3    H172901   3.618   1.162  16.189  0.7054 -2.3009 -0.3742
17162TIP3    H272902   3.719   1.258  16.132 -0.0107  0.2482  2.4278
17163TIP3   OH272903   4.019   0.531  12.620 -0.4522  0.4238 -0.5397
17163TIP3    H172904   3.940   0.498  12.663 -0.2205  1.5852  0.8455
17163TIP3    H272905   4.061   0.453  12.584 -2.0351 -0.2502 -0.9920
17164TIP3   OH272906   0.963   4.016  13.628 -0.3379  0.2291  0.2034
17164TIP3    H172907   1.001   4.082  13.686 -3.7468  1.6531  1.0705
17164TIP3    H272908   0.928   3.950  13.688 -2.5669  0.9589 -0.1950
17165TIP3   OH272909   6.347   6.115   5.395 -0.1824 -0.0098 -0.6911
17165TIP3    H172910   6.402   6.043   5.424  1.3480  1.1243 -0.6646
17165TIP3    H272911   6.257   6.083   5.406  0.4549 -2.1960 -1.5097
17166TIP3   OH272912   1.487   0.151   1.562 -0.0696 -0.1980 -0.3530
17166TIP3    H172913   1.476   0.060   1.535  2.3395 -0.8237  0.5381
17166TIP3    H272914   1.580   0.158   1.586 -0.0248  2.6752 -1.0250
17167TIP3   OH272915   6.489   1.262  12.082 -0.5396  0.6046  0.1736
17167TIP3    H172916   6.583   1.245  12.079 -0.6246  0.3407 -1.2919
17167TIP3    H272917   6.449   1.185  12.042 -1.3249  1.1804 -0.1716
17168TIP3   OH272918   5.183   1.725   5.901 -0.0214 -0.1336 -0.1670
17168TIP3    H172919   5.088   1.719   5.892 -0.0936  1.4144 -0.7428
17168TIP3    H272920   5.205   1.664   5.971 -1.6445  0.6558  1.0921
17169TIP3   OH272921   1.936   4.799  12.574  0.0844 -0.3401 -0.0583
17169TIP3    H172922   2.008   4.739  12.595 -0.7537 -1.1205  0.6448
17169TIP3    H272923   1.866   4.742  12.542 -0.2829  0.3998 -0.6070
17170TIP3   OH272924   3.318   2.777   5.120 -0.6115 -0.0250 -0.1943
17170TIP3    H172925   3.224   2.794   5.106 -1.1799 -0.1942  2.7211
17170TIP3    H272926   3.325   2.682   5.119 -0.4250 -0.0099 -0.5109
17171TIP3   OH272927   5.560   1.315  12.624 -0.6730 -0.0966  0.1856
17171TIP3    H172928   5.590   1.266  12.548 -0.0092 -0.5403  0.7169
17171TIP3    H272929   5.465   1.307  12.623 -0.8758  1.6758 -1.7645
17172TIP3   OH272930   3.428   6.173  17.197 -0.1797  0.4583 -0.3142
17172TIP3    H172931   3.377   6.254  17.200  0.4873  0.9330  3.5983
17172TIP3    H272932   3.453   6.156  17.288  0.0966 -3.9630 -0.9577
17173TIP3   OH272933   4.387   3.560  17.020 -0.4286 -0.1533  0.2247
17173TIP3    H172934   4.368   3.637  17.074  1.7903  2.4294 -2.3012
17173TIP3    H272935   4.482   3.551  17.024 -0.6808 -3.5616  1.2376
17174TIP3   OH272936   1.776   0.441  15.835  0.1527 -0.1602 -0.6074
17174TIP3    H172937   1.836   0.440  15.760  0.7419  0.3130 -0.1504
17174TIP3    H272938   1.690   0.459  15.796  0.6787  1.6601 -1.0487
17175TIP3   OH272939   3.575   5.652   2.998 -0.1729 -0.1134 -0.5963
17175TIP3    H172940   3.615   5.651   2.911 -2.5993 -0.1178 -1.8180
17175TIP3    H272941   3.604   5.734   3.037 -0.8862  1.0610 -2.4057
17176TIP3   OH272942   1.445   1.971  16.223 -0.2997 -0.1460 -0.3742
17176TIP3    H172943   1.351   1.958  16.238 -0.4240  0.3974 -0.6431
17176TIP3    H272944   1.486   1.950  16.306 -0.7740  0.7845  0.1151
17177TIP3   OH272945   5.077   5.077  14.395  0.0067 -0.4067 -0.3379
17177TIP3    H172946   5.038   4.995  14.427  0.4061 -0.7976 -0.8185
17177TIP3    H272947   5.131   5.049  14.320 -0.0269  0.3311 -0.6381
17178TIP3   OH272948   2.075   2.244   3.420 -0.6054  0.2042  0.0098
17178TIP3    H172949   2.092   2.206   3.334 -0.1992 -1.8381  0.9405
17178TIP3    H272950   2.161   2.250   3.461 -0.9431 -0.1296  0.7749
17179TIP3   OH272951   5.604   5.277   4.099  0.3245 -0.3367  0.6020
17179TIP3    H172952   5.532   5.225   4.133  0.4010 -0.6437  0.2985
17179TIP3    H272953   5.579   5.299   4.009  0.0559  0.6010  0.8936
17180TIP3   OH272954   5.595   4.957   4.995  0.5211  0.5778 -0.3422
17180TIP3    H172955   5.577   4.863   4.989  1.0135  0.4885 -0.4820
17180TIP3    H272956   5.512   4.999   4.973  1.2222  0.2263 -4.5379
17181TIP3   OH272957   6.196   3.073   3.523  0.4367 -0.2081 -0.0766
17181TIP3    H172958   6.103   3.066   3.547  0.2888 -0.2648 -0.6364
17181TIP3    H272959   6.213   2.994   3.472  0.2351  0.7515 -1.7000
17182TIP3   OH272960   1.831   1.810  13.771  0.2694 -0.0726  0.3336
17182TIP3    H172961   1.761   1.746  13.758 -0.7713  0.9843  0.5577
17182TIP3    H272962   1.816   1.844  13.859  0.8054  0.4707  0.2191
17183TIP3   OH272963   4.389   4.460   3.164 -0.4350 -0.2205 -0.1711
17183TIP3    H172964   4.477   4.425   3.181  0.8641  2.7183 -0.2418
17183TIP3    H272965   4.339   4.442   3.243  1.1022  0.4786  0.9931
17184TIP3   OH272966   1.024   3.059  12.919  0.3917 -0.0512 -0.3784
17184TIP3    H172967   1.108   3.098  12.895  1.3069 -1.7156 -0.0343
17184TIP3    H272968   1.008   2.993  12.851 -1.5837  1.4556 -1.4832
17185TIP3   OH272969   3.600   1.859   1.243  0.0271  0.3193  0.1796
17185TIP3    H172970   3.528   1.916   1.269 -0.4341 -0.7622  1.4140
17185TIP3    H272971   3.672   1.882   1.302 -0.0079 -0.0376  0.3672
17186TIP3   OH272972   5.956   6.159   5.092  0.2113 -0.6932 -0.0857
17186TIP3    H172973   5.869   6.132   5.120  0.0264 -0.2674 -0.2381
17186TIP3    H272974   5.940   6.228   5.027  0.6400 -1.4155 -0.9898
17187TIP3   OH272975   3.140   2.585  13.000  0.6419 -0.0827 -0.0902
17187TIP3    H172976   3.066   2.630  12.960 -0.7624 -0.1042  2.2958
17187TIP3    H272977   3.127   2.597  13.094  3.2088 -0.8636  0.4393
17188TIP3   OH272978   0.158   3.179  12.163  0.0214  0.0306 -0.1946
17188TIP3    H172979   0.211   3.226  12.228 -0.2448 -0.5104  0.4307
17188TIP3    H272980   0.219   3.119  12.121  0.1191  0.1203 -0.1818
17189TIP3   OH272981   2.304   6.262   2.780 -0.2750  0.4922  0.1438
17189TIP3    H172982   2.220   6.300   2.807  0.6896  1.6933  1.6233
17189TIP3    H272983   2.356   6.337   2.752  0.4065 -0.2034 -0.4697
17190TIP3   OH272984   2.700   2.693  16.282  0.5040  0.7394  0.4187
17190TIP3    H172985   2.755   2.668  16.357  0.6759  1.3674  0.5130
17190TIP3    H272986   2.753   2.671  16.206  1.3122  2.1864  0.5145
17191TIP3   OH272987   4.028   6.355  15.293  0.0074  0.1231  0.6905
17191TIP3    H172988   4.030   6.269  15.334 -1.4022 -0.9986 -1.3863
17191TIP3    H272989   4.104   6.355  15.234  0.8476  0.9048  1.7544
17192TIP3   OH272990   4.073   3.054  10.788  0.3786 -0.1632  0.5177
17192TIP3    H172991   4.066   3.109  10.710  1.3957 -0.2092  0.3745
17192TIP3    H272992   3.989   3.008  10.794  0.4375 -0.4693 -0.7816
17193TIP3   OH272993   5.464   2.418   0.556 -0.1630 -0.3259 -0.5941
17193TIP3    H172994   5.508   2.350   0.505 -1.3587 -1.2579 -0.4265
17193TIP3    H272995   5.531   2.485   0.570  1.1676 -1.6437 -0.4360
17194TIP3   OH272996   1.779   4.094   2.442  0.7391 -0.0055 -0.4676
17194TIP3    H172997   1.813   4.155   2.376 -0.7263  0.4712 -0.8372
17194TIP3    H272998   1.743   4.151   2.510  0.7426 -0.4863 -0.0589
17195TIP3   OH272999   0.541   5.318  13.796  0.3776 -0.4495  0.5904
17195TIP3    H173000   0.460   5.340  13.841 -0.3963 -1.4925 -0.2521
17195TIP3    H273001   0.575   5.402  13.766 -1.3178 -0.1479 -0.5900
17196TIP3   OH273002   5.002   5.665  13.900  0.3441  0.4708  0.1386
17196TIP3    H173003   5.014   5.759  13.912  1.2735  0.4102 -0.2328
17196TIP3    H273004   5.036   5.647  13.813 -1.1230  0.0001 -0.3697
17197TIP3   OH273005   1.845   4.092   4.927  0.1200  0.3503  0.5370
17197TIP3    H173006   1.876   4.029   4.992  1.2987 -1.1818 -1.3976
17197TIP3    H273007   1.855   4.178   4.970 -0.3438 -0.6518  2.7817
17198TIP3   OH273008   4.556   1.547   4.161 -0.0260  0.3344  0.9272
17198TIP3    H173009   4.619   1.495   4.210  0.0301 -0.2064  0.2875
17198TIP3    H273010   4.579   1.638   4.180  2.7021  0.2545 -1.4194
17199TIP3   OH273011   3.536   6.058  12.471 -0.0089 -0.0442 -0.1649
17199TIP3    H173012   3.448   6.026  12.492 -0.1880 -0.2948 -1.1996
17199TIP3    H273013   3.589   6.034  12.546 -0.7765 -0.1005  0.3749
17200TIP3   OH273014   5.471   2.492  15.985 -0.3023  0.0390  0.4504
17200TIP3    H173015   5.481   2.548  16.062 -0.8130 -0.2511  0.7330
17200TIP3    H273016   5.519   2.537  15.916 -1.8169  1.5196  0.3197
17201TIP3   OH273017   4.072   0.977   1.218  0.3336 -0.0412  0.0563
17201TIP3    H173018   4.104   1.043   1.279 -0.0958 -0.1551  0.4081
17201TIP3    H273019   4.008   1.024   1.164  1.6798  0.4109 -1.2189
17202TIP3   OH273020   1.962   2.811  15.102  0.0680 -0.2610  0.1630
17202TIP3    H173021   1.957   2.887  15.159 -1.5984 -0.7806  0.7435
17202TIP3    H273022   1.952   2.846  15.014 -0.6431  0.2054  0.4252
17203TIP3   OH273023   0.783   4.013   5.435  0.3297 -0.1949 -0.3512
17203TIP3    H173024   0.813   4.005   5.526  1.3129  0.6346 -0.5835
17203TIP3    H273025   0.805   4.103   5.411  0.3202 -0.4891 -1.4957
17204TIP3   OH273026   1.199   0.472   1.314 -0.7346  0.0256  0.1563
17204TIP3    H173027   1.280   0.423   1.300 -0.1784  0.6497  1.0606
17204TIP3    H273028   1.162   0.483   1.227 -0.1513 -0.7828 -0.2037
17205TIP3   OH273029   2.592   1.561   1.110 -0.7186  0.1584  0.4850
17205TIP3    H173030   2.526   1.602   1.053 -0.0458  0.3523 -0.1675
17205TIP3    H273031   2.668   1.619   1.103  0.8141 -1.9201 -1.6547
17206TIP3   OH273032   0.116   3.911  11.790 -0.0119 -0.1753 -0.0740
17206TIP3    H173033   0.056   3.849  11.747 -0.5367  0.9253 -0.9713
17206TIP3    H273034   0.147   3.968  11.720  2.0642 -0.6526  0.3850
17207TIP3   OH273035   2.620   5.078  12.982 -0.8441  0.0280  0.2431
17207TIP3    H173036   2.596   5.170  12.968  0.0932  0.2499  0.0223
17207TIP3    H273037   2.700   5.066  12.930 -0.5634 -0.7168  0.8280
17208TIP3   OH273038   5.663   3.784   1.799 -0.1599  0.0976 -0.5250
17208TIP3    H173039   5.595   3.822   1.855  0.7917  0.4508  0.4137
17208TIP3    H273040   5.705   3.860   1.758  1.5029  0.0812  1.0660
17209TIP3   OH273041   2.342   1.019  17.150 -0.4313 -0.0598  0.2367
17209TIP3    H173042   2.283   0.943  17.149 -1.2133  0.3935  3.1118
17209TIP3    H273043   2.291   1.090  17.111 -1.6097  0.1312  1.9855
17210TIP3   OH273044   1.494   2.218   1.243  0.2141 -0.1266  0.3660
17210TIP3    H173045   1.553   2.143   1.257  1.1616  0.7588  1.3242
17210TIP3    H273046   1.542   2.276   1.185  0.3098  0.6114  1.1642
17211TIP3   OH273047   0.562   4.969  15.922 -0.3551  0.1357  1.0064
17211TIP3    H173048   0.556   4.880  15.886 -0.1695  0.6536 -0.3639
17211TIP3    H273049   0.520   5.024  15.857  1.9387  1.3900  0.4785
17212TIP3   OH273050   3.159   2.198  11.496 -0.0862 -0.0039 -1.2489
17212TIP3    H173051   3.167   2.244  11.579 -0.5990  0.1713 -1.2936
17212TIP3    H273052   3.069   2.166  11.495 -0.5702  1.3265 -2.4181
17213TIP3   OH273053   3.342   1.411  12.212  0.0528  0.4028 -0.9204
17213TIP3    H173054   3.388   1.487  12.247 -0.1337  1.5958 -3.0575
17213TIP3    H273055   3.409   1.343  12.206  0.5466  0.8170 -0.1735
17214TIP3   OH273056   6.713   1.786  15.017 -0.2939 -0.5978  0.1554
17214TIP3    H173057   6.722   1.757  14.926 -3.0452 -0.8167 -0.1149
17214TIP3    H273058   6.743   1.877  15.016  0.6105 -0.8860 -0.7490
17215TIP3   OH273059   1.244   5.107   3.423  0.2930  0.0553 -0.2629
17215TIP3    H173060   1.253   5.046   3.350  0.8343 -1.7677  1.2327
17215TIP3    H273061   1.333   5.119   3.455 -0.0258  0.1322  0.6222
17216TIP3   OH273062   5.269   5.737   2.654  0.5103 -0.3079 -0.9419
17216TIP3    H173063   5.204   5.672   2.626  2.0419 -1.8570 -1.0826
17216TIP3    H273064   5.315   5.761   2.574  1.1383 -0.4078 -0.6148
17217TIP3   OH273065   1.838   1.565   0.706 -0.1629  0.4145  0.1534
17217TIP3    H173066   1.775   1.495   0.687 -0.5758 -0.0097  2.6222
17217TIP3    H273067   1.784   1.638   0.736  0.3946  0.8838  0.0222
17218TIP3   OH273068   1.550   5.311   1.436  0.4929  0.5068 -0.5447
17218TIP3    H173069   1.493   5.385   1.412 -0.8240 -0.7877 -1.5891
17218TIP3    H273070   1.570   5.269   1.353  0.8621 -0.5837  0.0818
17219TIP3   OH273071   4.269   5.063   5.670 -0.0955  0.1940 -0.0832
17219TIP3    H173072   4.274   5.020   5.755  0.1189 -1.0339 -0.7006
17219TIP3    H273073   4.314   5.147   5.684 -0.4225  0.2009  1.1057
17220TIP3   OH273074   2.797   1.612  16.075 -0.2488  0.3502 -0.0974
17220TIP3    H173075   2.748   1.675  16.127  1.0016 -0.3557  2.0383
17220TIP3    H273076   2.882   1.655  16.060 -0.3526  0.2636 -1.0181
17221TIP3   OH273077   2.509   4.083  16.355 -0.5957 -0.5395  0.5749
17221TIP3    H173078   2.576   4.016  16.375  0.5084 -0.1396 -1.4814
17221TIP3    H273079   2.559   4.156  16.318 -2.0616  0.3378  0.2664
17222TIP3   OH273080   2.921   4.193  15.294 -0.3175  0.2758  0.0524
17222TIP3    H173081   2.992   4.242  15.251 -0.6280  0.8945  0.2282
17222TIP3    H273082   2.964   4.148  15.367 -0.4206  2.4093  1.5481
17223TIP3   OH273083   2.305   0.758   5.890 -0.0141  0.1916 -0.5257
17223TIP3    H173084   2.242   0.691   5.915  1.0253 -0.6802 -0.1976
17223TIP3    H273085   2.349   0.782   5.972  0.2591  0.6154 -0.7916
17224TIP3   OH273086   5.773   5.543  11.397 -0.6867 -0.0905  0.3297
17224TIP3    H173087   5.838   5.472  11.400  0.5977  0.9930  3.9671
17224TIP3    H273088   5.808   5.605  11.333  0.2909 -0.9239  0.0350
17225TIP3   OH273089   0.431   3.007  12.403  0.7491  0.1139  0.1071
17225TIP3    H173090   0.475   2.923  12.390  1.5988  0.3917  1.0414
17225TIP3    H273091   0.501   3.067  12.429  0.3010  1.3531 -1.3959
17226TIP3   OH273092   5.922   0.486   3.381  0.1800  0.3558 -0.3108
17226TIP3    H173093   5.978   0.473   3.457  0.3283  0.2940 -0.4305
17226TIP3    H273094   5.884   0.400   3.365  0.2775  0.3308 -0.4077
17227TIP3   OH273095   1.043   0.186  12.276 -0.0123 -0.0200 -0.2191
17227TIP3    H173096   1.135   0.213  12.278 -0.1697  0.6430  2.7144
17227TIP3    H273097   1.033   0.131  12.354 -1.4031 -2.9136 -2.2256
17228TIP3   OH273098   4.868   0.569   1.360 -0.5308 -0.1868  0.1042
17228TIP3    H173099   4.902   0.594   1.446  0.6449 -1.6540  0.1114
17228TIP3    H273100   4.943   0.528   1.316 -2.0870 -3.1327 -0.0888
17229TIP3   OH273101   5.884   4.910  13.288 -0.1321  0.2757 -0.1371
17229TIP3    H173102   5.880   4.867  13.374  1.2033  0.6250  0.1196
17229TIP3    H273103   5.854   4.842  13.227 -2.8492  0.5771  0.7301
17230TIP3   OH273104   6.509   2.044  14.931  0.1431 -0.2141 -0.6835
17230TIP3    H173105   6.483   2.136  14.928  1.4818  0.1763 -1.4262
17230TIP3    H273106   6.587   2.042  14.987  1.7141 -0.4095 -2.7273
17231TIP3   OH273107   4.590   4.274   2.009  0.3112 -0.0051  0.0861
17231TIP3    H173108   4.658   4.207   2.016 -0.9143 -1.2287  0.7389
17231TIP3    H273109   4.576   4.303   2.099 -1.6180 -1.4486  0.3070
17232TIP3   OH273110   4.687   2.855   1.594 -0.9799  0.2883 -0.7842
17232TIP3    H173111   4.603   2.818   1.622 -0.6678 -0.7019 -1.1190
17232TIP3    H273112   4.681   2.859   1.499 -1.6030  2.5906 -0.6897
17233TIP3   OH273113   2.123   1.333   5.327  0.2712  0.3759  0.2503
17233TIP3    H173114   2.107   1.414   5.279 -0.0788  0.2422  0.1406
17233TIP3    H273115   2.145   1.269   5.260 -2.3399 -0.3781 -0.0125
17234TIP3   OH273116   1.467   4.354  13.551  0.2941 -0.1878  0.6424
17234TIP3    H173117   1.453   4.261  13.533 -0.0084  0.2580 -1.7864
17234TIP3    H273118   1.383   4.384  13.587  0.1368 -0.7090  0.7179
17235TIP3   OH273119   5.365   6.339  14.588  0.1581 -0.2911 -0.1749
17235TIP3    H173120   5.317   6.344  14.670 -1.2864  0.5895 -1.0297
17235TIP3    H273121   5.361   6.427  14.552  0.5948 -0.7008 -1.2722
17236TIP3   OH273122   0.573   1.510  12.466  0.1046  0.1361 -0.1968
17236TIP3    H173123   0.651   1.502  12.521 -0.5154 -1.2667  0.5250
17236TIP3    H273124   0.593   1.459  12.388 -0.6517 -1.6505  0.7049
17237TIP3   OH273125   6.635   2.914   3.598 -0.0333  0.4549  0.4120
17237TIP3    H173126   6.632   2.879   3.509 -0.5446  0.9599  0.2233
17237TIP3    H273127   6.558   2.877   3.641  0.1116  0.3581  0.5885
17238TIP3   OH273128   4.292   1.149  15.095 -0.1431 -0.2167 -0.3095
17238TIP3    H173129   4.207   1.125  15.057  1.0643 -2.1161 -2.0087
17238TIP3    H273130   4.278   1.143  15.189 -2.1646  0.5938 -0.5003
17239TIP3   OH273131   0.435   0.648   5.209 -0.2345 -0.4785 -0.2258
17239TIP3    H173132   0.471   0.658   5.121 -1.9412 -0.8064 -1.0263
17239TIP3    H273133   0.432   0.553   5.222  0.2384 -0.4225  0.2897
17240TIP3   OH273134   4.882   3.698  12.660  0.2775  0.2377 -0.5232
17240TIP3    H173135   4.863   3.776  12.608  0.8528  0.3542 -0.5629
17240TIP3    H273136   4.977   3.692  12.660  0.2939  0.2703  0.5693
17241TIP3   OH273137   1.665   5.111  16.998  0.2510  0.5068  0.9876
17241TIP3    H173138   1.714   5.168  16.938 -0.4501 -0.1581 -0.2424
17241TIP3    H273139   1.628   5.043  16.942 -0.1914 -0.2966  2.2242
17242TIP3   OH273140   4.579   2.659  13.869  0.1813  0.1718 -0.5741
17242TIP3    H173141   4.490   2.634  13.842  0.2341 -1.1911  0.4582
17242TIP3    H273142   4.580   2.646  13.964  1.2184  1.0854 -0.4363
17243TIP3   OH273143   4.431   4.531  10.982 -0.3529  0.8040  0.0193
17243TIP3    H173144   4.384   4.462  11.030 -1.1347 -0.0186 -1.8336
17243TIP3    H273145   4.388   4.612  11.009 -1.1365  0.3014  0.3191
17244TIP3   OH273146   4.506   2.774   6.495  0.2183  0.2382  0.0754
17244TIP3    H173147   4.451   2.732   6.428 -0.7960  2.0969 -0.3186
17244TIP3    H273148   4.562   2.834   6.447  2.3187 -1.2344  0.5403
17245TIP3   OH273149   6.045   6.452  11.766  0.0481  0.1129 -0.2117
17245TIP3    H173150   6.028   6.362  11.737  0.0211  0.8535 -2.6718
17245TIP3    H273151   5.989   6.506  11.711  0.1663  1.6885  1.1391
17246TIP3   OH273152   0.772   6.231  13.417 -0.2141  0.2163  0.0623
17246TIP3    H173153   0.695   6.282  13.443 -1.9143 -1.7433 -0.8075
17246TIP3    H273154   0.783   6.167  13.487 -0.2145 -0.3738 -0.4704
17247TIP3   OH273155   4.150   4.450   1.367  0.7078 -0.1942 -0.1747
17247TIP3    H173156   4.191   4.518   1.420  1.3223 -1.0816  0.5199
17247TIP3    H273157   4.098   4.400   1.430  0.3445 -0.4301 -0.6614
17248TIP3   OH273158   3.477   4.699  15.969  0.4680  0.2650 -0.5865
17248TIP3    H173159   3.479   4.603  15.967  2.3397  0.2271  0.5179
17248TIP3    H273160   3.389   4.721  15.998  0.1434 -1.1248 -0.4452
17249TIP3   OH273161   5.295   4.088  14.639  0.4713  0.0656 -0.1343
17249TIP3    H173162   5.248   4.015  14.599 -0.9870  1.5531 -1.3004
17249TIP3    H273163   5.287   4.073  14.733 -1.7912 -0.1383 -0.2996
17250TIP3   OH273164   1.649   4.800   5.387  0.1763  0.1105  0.1220
17250TIP3    H173165   1.668   4.893   5.398 -0.0212  0.1587  0.0599
17250TIP3    H273166   1.572   4.784   5.441  1.3615 -0.4512  1.7244
17251TIP3   OH273167   3.987   1.930   3.083  0.3352 -0.1510  0.0723
17251TIP3    H173168   4.026   1.848   3.050  0.9569 -0.3335  1.2101
17251TIP3    H273169   3.897   1.906   3.105 -0.1609  0.0202 -1.6122
17252TIP3   OH273170   3.443   4.707  17.127 -0.0604 -0.2795  0.3729
17252TIP3    H173171   3.370   4.645  17.118  0.5085 -0.7904 -0.9361
17252TIP3    H273172   3.503   4.683  17.057  1.1388  0.4590  1.1215
17253TIP3   OH273173   4.124   1.006  16.284  0.0385  0.0747 -0.4241
17253TIP3    H173174   4.209   0.963  16.271  0.3035 -0.1530  1.6612
17253TIP3    H273175   4.143   1.078  16.345 -1.2384  0.1299 -0.0660
17254TIP3   OH273176   1.170   2.049   4.768  0.9991 -1.0390 -0.1718
17254TIP3    H173177   1.229   2.029   4.840 -1.0025  0.5296  2.0759
17254TIP3    H273178   1.087   2.007   4.791 -0.7473  2.3125  0.3994
17255TIP3   OH273179   0.751   3.016   3.296  0.0958 -0.3916  0.4583
17255TIP3    H173180   0.715   3.015   3.385 -1.2740 -1.8155 -0.0452
17255TIP3    H273181   0.831   2.963   3.301  0.8957  0.8530  1.1342
17256TIP3   OH273182   3.097   0.849   0.081 -0.2779 -0.3750 -0.4050
17256TIP3    H173183   3.191   0.829   0.090 -0.1482  0.9323  1.5854
17256TIP3    H273184   3.094   0.940   0.053 -0.9692 -0.0463  0.7172
17257TIP3   OH273185   4.731   4.980  17.339 -0.5711 -0.3554 -0.5099
17257TIP3    H173186   4.711   5.056  17.285  0.5526 -0.7346 -1.5264
17257TIP3    H273187   4.665   4.980  17.407  0.4126  2.5523  0.5896
17258TIP3   OH273188   1.202   1.708  10.806  0.0207  0.4802 -0.1032
17258TIP3    H173189   1.195   1.619  10.772  1.7013  0.7837 -1.3635
17258TIP3    H273190   1.236   1.697  10.895 -0.4077 -0.1519 -0.0081
17259TIP3   OH273191   1.654   4.663   2.863 -0.7219 -0.2542  0.0674
17259TIP3    H173192   1.605   4.601   2.916 -1.8043  1.0094  0.5882
17259TIP3    H273193   1.641   4.748   2.906  2.1956  0.1113  0.4446
17260TIP3   OH273194   0.681   5.337   6.383 -0.2915 -0.1354  0.0207
17260TIP3    H173195   0.766   5.294   6.382 -0.1738  0.0864 -0.9077
17260TIP3    H273196   0.618   5.268   6.360 -0.5173 -0.5630  1.8159
17261TIP3   OH273197   4.345   1.259   4.411  0.5692 -0.7934 -0.2382
17261TIP3    H173198   4.269   1.217   4.371 -0.6072 -0.0551  1.1342
17261TIP3    H273199   4.327   1.257   4.505  1.2477  1.2786 -0.0197
17262TIP3   OH273200   2.559   1.413  15.291  0.6696  0.2282  0.4660
17262TIP3    H173201   2.519   1.393  15.375  0.6416 -0.4534  0.2954
17262TIP3    H273202   2.507   1.484  15.255 -0.4715 -0.7214  0.1956
17263TIP3   OH273203   5.322   5.782  14.182  0.4763  0.3810  0.0762
17263TIP3    H173204   5.290   5.840  14.251 -5.0987 -1.6381 -0.3272
17263TIP3    H273205   5.352   5.704  14.228 -0.2420  0.2691  0.3668
17264TIP3   OH273206   0.266   2.952   2.817  0.1954 -0.0871  0.7751
17264TIP3    H173207   0.358   2.928   2.830  0.2197 -0.6403 -0.3523
17264TIP3    H273208   0.257   2.964   2.723 -1.1395 -1.0720  0.7590
17265TIP3   OH273209   5.119   2.469  11.480  0.6680  0.1127  0.4833
17265TIP3    H173210   5.095   2.475  11.387 -0.5427 -0.8233  0.6997
17265TIP3    H273211   5.143   2.377  11.491  0.8292  0.2280  1.0889
17266TIP3   OH273212   2.830   1.979   3.445  0.0966  0.2273 -0.0464
17266TIP3    H173213   2.758   2.042   3.450  0.0516  0.1190  0.7880
17266TIP3    H273214   2.851   1.960   3.536  1.3609  0.4594 -0.2787
17267TIP3   OH273215   4.711   6.057   1.818  0.0878 -0.1551  0.2879
17267TIP3    H173216   4.756   6.087   1.739 -1.7226  0.5574 -0.5469
17267TIP3    H273217   4.680   6.137   1.860 -1.0924 -0.6181  0.3584
17268TIP3   OH273218   1.756   1.410  13.132 -0.4580 -0.4162  0.0152
17268TIP3    H173219   1.803   1.441  13.209 -0.4207  2.1735 -0.9408
17268TIP3    H273220   1.668   1.444  13.142 -1.0243 -1.7358 -0.1951
17269TIP3   OH273221   2.685   4.872  11.693 -0.2887  0.5071 -0.4497
17269TIP3    H173222   2.770   4.914  11.707 -0.7124  1.1907  0.1145
17269TIP3    H273223   2.698   4.782  11.723  0.2558  0.5895 -0.4256
17270TIP3   OH273224   2.721   2.177   5.277 -0.6712  0.4236 -0.0260
17270TIP3    H173225   2.799   2.159   5.224 -1.5566  0.8096 -1.5103
17270TIP3    H273226   2.735   2.126   5.357  0.8114 -0.0025 -0.5148
17271TIP3   OH273227   4.115   2.413   5.020  0.0261 -0.7182  0.3411
17271TIP3    H173228   4.070   2.459   4.949 -0.6051  1.4521  2.0342
17271TIP3    H273229   4.203   2.397   4.986  0.7975  3.1725  0.0638
17272TIP3   OH273230   3.228   0.967   6.555 -0.2782 -0.9024  0.5642
17272TIP3    H173231   3.311   0.926   6.527 -0.1761  0.0873 -0.6682
17272TIP3    H273232   3.160   0.915   6.512 -0.1649 -0.0487 -0.6804
17273TIP3   OH273233   3.599   3.653  15.992  0.1972  0.1292 -0.2939
17273TIP3    H173234   3.528   3.590  15.979  1.2888 -1.4156  0.9610
17273TIP3    H273235   3.603   3.702  15.909 -1.3781 -0.7124 -0.9004
17274TIP3   OH273236   5.338   5.916  17.182  0.4278 -0.6022 -0.1085
17274TIP3    H173237   5.257   5.910  17.132  0.6278  0.7654 -0.6352
17274TIP3    H273238   5.315   5.885  17.269 -1.0049  0.9881  0.1185
17275TIP3   OH273239   2.831   5.325  14.549  0.1895 -0.2675 -0.2695
17275TIP3    H173240   2.738   5.303  14.547  0.1200  0.0220 -0.3049
17275TIP3    H273241   2.875   5.242  14.566 -0.2138 -0.0593  2.0650
17276TIP3   OH273242   0.884   1.893   6.472 -1.0237  0.4781  0.0555
17276TIP3    H173243   0.930   1.816   6.441  0.5250 -0.0441  3.2386
17276TIP3    H273244   0.791   1.873   6.458 -0.5883 -1.3881 -0.4237
17277TIP3   OH273245   3.662   2.998   1.442  0.8009  0.3941 -0.2826
17277TIP3    H173246   3.641   3.086   1.411  0.5526  0.5788  0.3827
17277TIP3    H273247   3.576   2.957   1.456  0.8372  0.8805  1.7038
17278TIP3   OH273248   4.023   1.757   1.668  0.1036 -0.2049  0.0912
17278TIP3    H173249   4.094   1.774   1.730 -1.2111  0.7648  1.4170
17278TIP3    H273250   3.972   1.687   1.710 -0.8538  0.5255  0.1652
17279TIP3   OH273251   4.328   2.778   2.280  0.4742  0.0805  0.0867
17279TIP3    H173252   4.406   2.750   2.327  0.1911  0.4945  0.8075
17279TIP3    H273253   4.349   2.760   2.188  1.4705  0.3245  0.2511
17280TIP3   OH273254   0.717   1.313  16.117 -0.3890  0.0882  0.3015
17280TIP3    H173255   0.780   1.242  16.129 -1.7320 -1.1734  0.2037
17280TIP3    H273256   0.769   1.386  16.082  0.7764 -1.3162 -1.0280
17281TIP3   OH273257   1.730   1.801   3.967 -0.3875 -0.2680 -0.2386
17281TIP3    H173258   1.723   1.752   4.049 -1.6437 -1.0277 -0.7619
17281TIP3    H273259   1.721   1.735   3.899  3.2039 -0.0367 -1.1001
17282TIP3   OH273260   1.749   4.429  11.924  0.1900 -0.0454 -0.0802
17282TIP3    H173261   1.748   4.338  11.895 -0.0665  0.4562 -1.8025
17282TIP3    H273262   1.759   4.479  11.842 -1.6025  1.5391  0.6134
17283TIP3   OH273263   4.374   1.404   2.898 -0.7321 -0.6568 -0.1515
17283TIP3    H173264   4.316   1.384   2.823 -0.8483 -0.9688  0.0174
17283TIP3    H273265   4.417   1.486   2.874 -0.8892 -0.6708 -0.4922
17284TIP3   OH273266   5.286   0.729   3.690  0.0948 -0.2627 -0.3261
17284TIP3    H173267   5.229   0.653   3.680 -3.8156  2.4690 -1.4143
17284TIP3    H273268   5.352   0.719   3.621  0.2307 -2.9587  0.0990
17285TIP3   OH273269   3.617   5.627  15.453  0.3376  0.4027 -0.2370
17285TIP3    H173270   3.557   5.623  15.379  0.5343  1.3264 -0.4545
17285TIP3    H273271   3.561   5.649  15.528 -0.0054 -1.3807  0.0916
17286TIP3   OH273272   1.793   5.450   3.391  0.4388 -0.5181  0.5878
17286TIP3    H173273   1.872   5.499   3.366 -2.0610  3.0917 -1.1549
17286TIP3    H273274   1.802   5.367   3.344  2.7132  0.1885 -0.4132
17287TIP3   OH273275   2.436   5.471   2.912 -0.2194  0.1426  0.0595
17287TIP3    H173276   2.345   5.468   2.941 -0.7431  2.6047 -1.0951
17287TIP3    H273277   2.453   5.382   2.881 -1.9327 -0.6121  1.1168
17288TIP3   OH273278   5.787   3.866  12.438  0.5329 -0.2020 -0.4045
17288TIP3    H173279   5.792   3.856  12.533  1.5782  1.2327 -0.2572
17288TIP3    H273280   5.870   3.908  12.415  0.8154 -1.5930 -2.1255
17289TIP3   OH273281   5.080   1.851   4.360 -0.1573 -0.3521 -0.3743
17289TIP3    H173282   5.058   1.809   4.443  0.1550  0.5007  0.1637
17289TIP3    H273283   5.146   1.794   4.321 -1.3143 -1.4906 -0.7181
17290TIP3   OH273284   5.150   5.031   1.733  0.5334 -0.5891 -0.1149
17290TIP3    H173285   5.237   5.048   1.699 -0.0165  0.1947 -1.1981
17290TIP3    H273286   5.156   5.052   1.827  1.1232  0.9849 -0.4769
17291TIP3   OH273287   0.228   6.333   3.481 -0.1101 -0.1490 -0.0238
17291TIP3    H173288   0.237   6.409   3.424 -0.2459  0.5849  0.9150
17291TIP3    H273289   0.316   6.319   3.517 -0.2551  0.0691  0.4250
17292TIP3   OH273290   4.304   4.435  12.090  0.3016  0.5989  0.2457
17292TIP3    H173291   4.316   4.530  12.084 -1.6967  0.8911  0.2400
17292TIP3    H273292   4.222   4.424  12.137 -0.7468 -1.0551 -1.8056
17293TIP3   OH273293   3.450   1.270  15.320  0.0781 -0.3990 -0.2230
17293TIP3    H173294   3.385   1.200  15.312  2.4511 -2.5792 -1.6583
17293TIP3    H273295   3.527   1.227  15.357  1.5598  1.5149 -0.9417
17294TIP3   OH273296   6.014   1.243  15.329 -0.0134 -0.0900 -0.5456
17294TIP3    H173297   6.085   1.304  15.349  0.1991 -0.2747 -0.7335
17294TIP3    H273298   5.936   1.285  15.364  0.2757 -0.1774  0.2079
17295TIP3   OH273299   1.597   2.063   6.179  0.4496 -0.0793 -0.0839
17295TIP3    H173300   1.688   2.034   6.170  0.2606 -0.2658 -1.5940
17295TIP3    H273301   1.548   1.983   6.195  0.4544 -0.0630  0.0155
17296TIP3   OH273302   6.194   2.998   1.792  0.5410 -0.0233 -0.4988
17296TIP3    H173303   6.137   3.037   1.858  2.0673  0.2620  0.6977
17296TIP3    H273304   6.135   2.944   1.738 -0.4996 -1.9395  2.3107
17297TIP3   OH273305   0.404   1.105   2.817 -0.0249 -0.5792  0.6698
17297TIP3    H173306   0.395   1.130   2.725  0.8590 -0.3154  0.6452
17297TIP3    H273307   0.332   1.149   2.861  0.4532  0.5597  0.3394
17298TIP3   OH273308   1.002   3.831   0.459 -0.2880 -0.4224  0.5095
17298TIP3    H173309   0.937   3.889   0.418 -0.0409 -0.6497 -0.2165
17298TIP3    H273310   1.072   3.824   0.394  0.1460 -0.7302  1.0092
17299TIP3   OH273311   6.481   4.391  12.174  0.1692 -0.2437 -0.6105
17299TIP3    H173312   6.548   4.337  12.217 -0.9297  0.5426  2.3707
17299TIP3    H273313   6.530   4.453  12.122  1.8229  0.1729  1.3101
17300TIP3   OH273314   5.076   6.309   0.627  0.1151  0.3938  0.4838
17300TIP3    H173315   5.092   6.229   0.577 -2.0607  0.9144 -1.1911
17300TIP3    H273316   5.155   6.361   0.614  0.7251 -0.6384 -0.0958
17301TIP3   OH273317   0.435   5.170  15.199  1.0536  0.3630  0.5679
17301TIP3    H173318   0.435   5.266  15.206 -1.1449  0.3466  1.6895
17301TIP3    H273319   0.473   5.152  15.113 -0.7352  2.3861 -0.7633
17302TIP3   OH273320   2.782   3.768  12.076  0.4271  0.1886 -0.9020
17302TIP3    H173321   2.804   3.833  12.142 -1.2306  0.0793 -0.1914
17302TIP3    H273322   2.838   3.693  12.096  0.8819  0.6478 -0.4520
17303TIP3   OH273323   1.265   5.406   4.228  0.0096  0.3396 -0.0703
17303TIP3    H173324   1.281   5.476   4.164 -0.1316  1.1996  0.8057
17303TIP3    H273325   1.229   5.334   4.176  1.8363  0.2452 -1.2656
17304TIP3   OH273326   1.955   3.740  14.087 -0.0022  0.6715 -0.2960
17304TIP3    H173327   1.940   3.646  14.101 -0.9535  1.0236  1.3874
17304TIP3    H273328   2.043   3.745  14.051  0.1940 -0.8607 -0.0947
17305TIP3   OH273329   5.602   4.618   0.544 -0.1945 -0.7050 -0.3137
17305TIP3    H173330   5.525   4.567   0.521 -1.6085  1.1723 -0.0177
17305TIP3    H273331   5.574   4.710   0.534  1.0468  0.1078  2.5513
17306TIP3   OH273332   5.615   6.113   1.659 -0.4641  0.4998 -0.3992
17306TIP3    H173333   5.652   6.028   1.681  0.2778  0.5595 -1.3418
17306TIP3    H273334   5.629   6.122   1.565 -1.0549  1.4180 -0.4177
17307TIP3   OH273335   6.562   6.509  11.844 -0.0598  0.0273 -0.0115
17307TIP3    H173336   6.489   6.568  11.865 -0.6333 -0.3156 -0.9432
17307TIP3    H273337   6.589   6.537  11.756  0.8269  0.0355  0.2599
17308TIP3   OH273338   2.416   5.207   3.304 -0.1996 -0.0181 -0.0449
17308TIP3    H173339   2.389   5.246   3.388 -0.0845 -1.4327  0.6738
17308TIP3    H273340   2.473   5.135   3.328 -0.0263 -0.3484 -1.3644
17309TIP3   OH273341   5.699   1.100   3.309  0.1354  0.1242  0.2684
17309TIP3    H173342   5.660   1.029   3.260 -1.2533  0.2897  1.0962
17309TIP3    H273343   5.708   1.171   3.245  2.2500 -0.9594 -0.7670
17310TIP3   OH273344   1.953   3.941   5.136 -0.4867 -0.6708 -0.6294
17310TIP3    H173345   1.931   3.982   5.220 -0.4374  0.5558 -1.2016
17310TIP3    H273346   2.035   3.894   5.153 -0.3869 -0.2939 -0.0398
17311TIP3   OH273347   0.549   1.452  13.561  0.0957 -0.1224 -0.0928
17311TIP3    H173348   0.539   1.389  13.632 -0.3677 -0.6611 -0.6305
17311TIP3    H273349   0.600   1.523  13.600  2.1366 -1.5944  0.0382
17312TIP3   OH273350   1.134   2.700  11.822 -0.4280  0.1987  0.4174
17312TIP3    H173351   1.106   2.640  11.891  1.3508  0.3160  1.2917
17312TIP3    H273352   1.229   2.702  11.829 -0.3815  2.4626 -0.1630
17313TIP3   OH273353   6.540   1.100  13.918  0.2885  0.1034  0.1280
17313TIP3    H173354   6.591   1.050  13.981 -0.0249 -0.0227  0.2824
17313TIP3    H273355   6.490   1.162  13.971  0.8838  0.7768 -0.0789
17314TIP3   OH273356   5.117   6.554  17.048  0.1053 -0.2660  0.5788
17314TIP3    H173357   5.063   6.475  17.039 -2.3077  1.1097  1.9541
17314TIP3    H273358   5.154   6.547  17.136 -0.9110  0.5486  1.0909
17315TIP3   OH273359   3.288   3.250  10.913 -0.4537  0.3023  0.0148
17315TIP3    H173360   3.285   3.164  10.871 -0.6793  0.4512 -0.2773
17315TIP3    H273361   3.224   3.303  10.865 -0.2622  0.6555  0.1403
17316TIP3   OH273362   2.173   2.623   1.710  0.1840  0.6402 -0.4429
17316TIP3    H173363   2.080   2.634   1.729  0.4337 -0.7863  2.0428
17316TIP3    H273364   2.176   2.569   1.632 -1.1073  0.1237 -0.1573
17317TIP3   OH273365   5.541   5.800   1.973 -0.3934  0.3039 -0.4747
17317TIP3    H173366   5.634   5.794   1.949  0.5609 -0.5417  2.9420
17317TIP3    H273367   5.511   5.881   1.932  1.9429  0.8184 -1.3490
17318TIP3   OH273368   4.883   4.522   3.601  0.5833 -0.1090 -0.2802
17318TIP3    H173369   4.895   4.563   3.687 -2.2651 -0.5595  0.4516
17318TIP3    H273370   4.808   4.568   3.563 -0.1416 -1.9259 -1.1808
17319TIP3   OH273371   6.287   3.836   5.388 -0.2695 -0.2751  1.0443
17319TIP3    H173372   6.278   3.773   5.316  1.8169 -1.3617  1.6442
17319TIP3    H273373   6.197   3.864   5.406 -1.0200 -1.2493 -0.8456
17320TIP3   OH273374   0.102   5.186   5.128 -0.5747 -0.2986  0.0162
17320TIP3    H173375   0.087   5.121   5.196 -1.8402 -0.5935 -0.5227
17320TIP3    H273376   0.184   5.159   5.086 -0.4830 -0.8609  0.5475
17321TIP3   OH273377   2.000   0.164  13.538  0.3294 -0.5776 -0.1795
17321TIP3    H173378   1.943   0.230  13.498 -1.4074 -0.7174  1.8855
17321TIP3    H273379   2.043   0.210  13.610  0.9810 -1.1095 -0.2173
17322TIP3   OH273380   6.098   4.537  17.092 -0.1969  0.5966 -0.7867
17322TIP3    H173381   6.147   4.458  17.117  1.0132  1.7945  0.8995
17322TIP3    H273382   6.104   4.539  16.997  1.7024 -0.1834 -0.7441
17323TIP3   OH273383   2.353   0.999  13.113  0.2522 -0.1010  1.0139
17323TIP3    H173384   2.280   1.044  13.070  0.6406 -1.4172 -1.1413
17323TIP3    H273385   2.314   0.923  13.155  0.1924 -0.0258  1.0950
17324TIP3   OH273386   5.440   2.211  12.120  0.0325 -0.4519 -0.1754
17324TIP3    H173387   5.535   2.205  12.132  0.0001  0.0960  0.4417
17324TIP3    H273388   5.403   2.154  12.188 -0.0972  0.5681  0.6506
17325TIP3   OH273389   2.667   3.505  11.303  0.0999 -0.2540 -0.7768
17325TIP3    H173390   2.708   3.478  11.220  0.7604 -2.4084  0.1725
17325TIP3    H273391   2.734   3.488  11.369 -0.9294  0.0475  0.3788
17326TIP3   OH273392   3.930   3.330  15.265  0.3508  0.1985  0.6300
17326TIP3    H173393   3.904   3.247  15.226 -1.0191  1.2965 -0.9609
17326TIP3    H273394   4.026   3.330  15.259  0.3896 -1.2895  0.7946
17327TIP3   OH273395   3.344   0.384   5.373 -0.1765 -0.0430  0.0303
17327TIP3    H173396   3.262   0.386   5.325  0.4911 -1.1344 -1.2265
17327TIP3    H273397   3.319   0.382   5.465 -1.5009  1.8160 -0.2388
17328TIP3   OH273398   6.175   1.676   6.336 -0.2657 -0.5913 -0.2001
17328TIP3    H173399   6.147   1.628   6.414 -1.4882 -2.6944 -1.8194
17328TIP3    H273400   6.268   1.654   6.327 -0.2206 -0.6708  0.4190
17329TIP3   OH273401   2.256   2.881   1.786  0.0800  0.1302  0.0712
17329TIP3    H173402   2.264   2.786   1.785  1.3529  0.2270 -1.1948
17329TIP3    H273403   2.277   2.905   1.877 -0.1278 -0.7635  0.3710
17330TIP3   OH273404   1.965   3.685  15.425 -0.1736 -0.0657  0.1147
17330TIP3    H173405   2.001   3.599  15.400  2.6760 -0.1521  3.6088
17330TIP3    H273406   1.990   3.743  15.353  1.3972 -1.4444 -0.5310
17331TIP3   OH273407   3.846   5.080  16.432  0.1216 -0.3907  0.1276
17331TIP3    H173408   3.933   5.101  16.400  0.3846  1.1273  1.7290
17331TIP3    H273409   3.859   5.005  16.491  0.2124 -0.6391 -0.2022
17332TIP3   OH273410   1.718   0.562  15.291 -0.0972 -0.0201 -0.1644
17332TIP3    H173411   1.761   0.478  15.307 -0.0862  0.3452  1.9694
17332TIP3    H273412   1.625   0.542  15.291 -0.0655 -0.4840 -2.7867
17333TIP3   OH273413   5.322   5.269   0.729  0.7157 -0.2985 -0.1027
17333TIP3    H173414   5.379   5.335   0.690  0.4281 -0.8245 -1.4857
17333TIP3    H273415   5.381   5.216   0.783  1.1883  0.2827 -0.0403
17334TIP3   OH273416   1.160   0.195  16.519 -0.2449  0.2244  0.5403
17334TIP3    H173417   1.155   0.204  16.614  1.2490  0.7683  0.5899
17334TIP3    H273418   1.186   0.282  16.488 -2.5226  0.5861 -0.5701
17335TIP3   OH273419   3.667   3.140  12.911 -0.7755 -0.1118  0.2469
17335TIP3    H173420   3.629   3.087  12.841  0.8700 -0.6951 -0.2354
17335TIP3    H273421   3.668   3.229  12.876 -0.6732 -0.2713 -0.1589
17336TIP3   OH273422   3.952   3.250   3.123 -0.3869  0.7881 -0.4254
17336TIP3    H173423   3.868   3.206   3.138 -0.0114  0.4442  0.8174
17336TIP3    H273424   3.997   3.245   3.208  0.5704  1.6532 -0.8621
17337TIP3   OH273425   4.775   2.939   6.115 -0.5444  0.3187  0.3909
17337TIP3    H173426   4.871   2.944   6.115 -0.5512  2.6546  2.7683
17337TIP3    H273427   4.748   3.021   6.073 -1.5362 -0.1764  0.0343
17338TIP3   OH273428   6.566   6.352  14.871 -0.1088  0.3917  0.1819
17338TIP3    H173429   6.472   6.337  14.866  0.3632 -3.5442  0.0072
17338TIP3    H273430   6.586   6.402  14.792 -1.7909 -0.8367 -1.1101
17339TIP3   OH273431   0.712   0.905  16.829  0.1490 -0.1526  0.3808
17339TIP3    H173432   0.661   0.825  16.824 -1.5363  0.9425 -1.7067
17339TIP3    H273433   0.647   0.975  16.834  1.5171  1.1829  0.3939
17340TIP3   OH273434   4.348   2.201   2.272 -0.2641 -0.4703 -0.2709
17340TIP3    H173435   4.429   2.208   2.323 -0.3516  2.2714 -0.3449
17340TIP3    H273436   4.281   2.179   2.336 -0.0476  1.0014  0.4954
17341TIP3   OH273437   5.775   2.041   0.577  0.2562  0.2433 -0.3239
17341TIP3    H173438   5.811   2.106   0.637  0.7467  0.8327 -1.2272
17341TIP3    H273439   5.842   2.031   0.510 -0.4887 -0.0127 -1.0512
17342TIP3   OH273440   2.172   4.008  15.750 -0.0951 -0.5755  0.6111
17342TIP3    H173441   2.143   4.099  15.764  0.4512 -0.1350 -0.8539
17342TIP3    H273442   2.224   4.012  15.669 -1.9240 -2.5573 -0.7847
17343TIP3   OH273443   4.185   2.102   4.899 -0.1840  0.6545 -0.4205
17343TIP3    H173444   4.135   2.181   4.917 -0.8053 -0.0137  0.9483
17343TIP3    H273445   4.228   2.119   4.815 -2.8748  1.1695 -1.7955
17344TIP3   OH273446   2.621   0.551   3.450 -0.5974 -0.2363  0.8220
17344TIP3    H173447   2.547   0.560   3.510 -0.4800  0.5097  0.8705
17344TIP3    H273448   2.687   0.503   3.501 -1.2951 -1.5210  0.5361
17345TIP3   OH273449   5.525   5.575  14.347  0.1924 -0.2140  0.0952
17345TIP3    H173450   5.558   5.556  14.259 -0.1667  1.0761 -0.3377
17345TIP3    H273451   5.603   5.585  14.400  0.4104 -1.1929 -0.0233
17346TIP3   OH273452   1.613   0.723  15.063  0.8821 -0.2867  0.1370
17346TIP3    H173453   1.684   0.673  15.022 -0.0833 -1.8286  0.2270
17346TIP3    H273454   1.604   0.685  15.150  1.9704  2.0198  1.3368
17347TIP3   OH273455   4.529   2.662   2.414  0.1978 -0.2116 -0.0678
17347TIP3    H173456   4.615   2.702   2.407 -0.5245  1.5395  0.5498
17347TIP3    H273457   4.480   2.719   2.473 -1.3939 -1.1533 -0.4013
17348TIP3   OH273458   1.338   6.046   3.763 -0.0157 -0.2970  0.0182
17348TIP3    H173459   1.333   5.959   3.803  0.4107 -1.8623 -3.0808
17348TIP3    H273460   1.261   6.052   3.708  0.7892  0.6277 -1.0518
17349TIP3   OH273461   5.663   0.311   2.734  0.6522 -0.4313  0.0850
17349TIP3    H173462   5.708   0.325   2.817 -0.3579  1.0063  0.4202
17349TIP3    H273463   5.662   0.397   2.691 -1.0212 -0.5835 -0.2697
17350TIP3   OH273464   1.000   5.063   2.862 -0.0507 -0.4801  0.6551
17350TIP3    H173465   0.905   5.072   2.862 -0.2174 -2.0971  0.6568
17350TIP3    H273466   1.031   5.135   2.918 -1.1610  0.8367 -0.3440
17351TIP3   OH273467   2.072   5.200  16.291 -0.2142 -0.3725 -0.3538
17351TIP3    H173468   2.148   5.255  16.313 -0.2551 -0.0687 -0.9698
17351TIP3    H273469   2.067   5.203  16.196  0.1440 -1.9359 -0.4523
17352TIP3   OH273470   0.593   5.864   0.414 -0.3061  0.1941 -0.7947
17352TIP3    H173471   0.559   5.939   0.463  0.8325  0.3114 -0.1469
17352TIP3    H273472   0.605   5.896   0.325 -1.1493  0.3604 -0.8623
17353TIP3   OH273473   0.481   4.964   5.819  0.6528 -0.0030 -0.2375
17353TIP3    H173474   0.394   4.995   5.795  0.4751 -0.5330 -0.2891
17353TIP3    H273475   0.485   4.977   5.914  0.9134  0.9879 -0.3732
17354TIP3   OH273476   6.708   1.696   0.649  0.4176 -0.0606  0.0218
17354TIP3    H173477   6.792   1.673   0.687  0.4490  0.3528  0.2126
17354TIP3    H273478   6.729   1.758   0.579  0.1533  1.6884  1.4112
17355TIP3   OH273479   0.696   2.866  14.360  0.3423 -0.1492 -0.4814
17355TIP3    H173480   0.791   2.875  14.347  0.1381  0.1060 -1.8922
17355TIP3    H273481   0.673   2.937  14.420  0.9483  0.1874 -0.6369
17356TIP3   OH273482   0.795   0.826   1.047  0.3373  0.7765  0.2569
17356TIP3    H173483   0.842   0.743   1.042  0.2269  0.3558  3.6346
17356TIP3    H273484   0.863   0.891   1.063  0.0920  0.3929  3.5107
17357TIP3   OH273485   0.632   3.620   3.863 -0.2685 -0.0900  0.1090
17357TIP3    H173486   0.710   3.575   3.831  1.9917  3.3842  0.0935
17357TIP3    H273487   0.600   3.668   3.786 -2.1902 -1.0434  0.2571
17358TIP3   OH273488   4.074   5.602   0.684 -0.2123  0.3019  0.1022
17358TIP3    H173489   3.982   5.605   0.711 -0.4414 -3.5748  0.2984
17358TIP3    H273490   4.071   5.592   0.589 -0.0905 -0.8727  0.2074
17359TIP3   OH273491   6.626   2.426  13.549 -0.6907 -0.0186  0.3372
17359TIP3    H173492   6.684   2.381  13.610 -1.1906  0.8355  1.4741
17359TIP3    H273493   6.539   2.421  13.589 -1.3092 -0.6659 -0.9969
17360TIP3   OH273494   1.116   5.623  12.786  0.3285 -0.1077  0.2924
17360TIP3    H173495   1.066   5.621  12.705 -0.7088  0.6479  0.8753
17360TIP3    H273496   1.165   5.541  12.787 -0.0556 -0.3633 -0.8359
17361TIP3   OH273497   4.540   5.122  13.629  0.7724 -0.1919 -0.3557
17361TIP3    H173498   4.535   5.198  13.687  0.0596 -1.0532  0.7306
17361TIP3    H273499   4.633   5.102  13.624  0.7042 -1.4687  2.3287
17362TIP3   OH273500   1.388   5.559  15.265  0.1171 -0.2806  0.7011
17362TIP3    H173501   1.429   5.569  15.351  0.0852 -0.9630  0.7994
17362TIP3    H273502   1.295   5.546  15.284 -0.0576  0.6027  0.5087
17363TIP3   OH273503   3.213   0.926   3.316  0.3840  0.2493 -0.0536
17363TIP3    H173504   3.218   0.859   3.248  0.3944 -0.3465  0.5293
17363TIP3    H273505   3.119   0.946   3.324  0.4748  1.1801 -1.0571
17364TIP3   OH273506   0.819   3.399   1.809 -0.2881 -0.2346 -0.2808
17364TIP3    H173507   0.770   3.461   1.754 -3.1505 -1.1352  1.0499
17364TIP3    H273508   0.897   3.448   1.836 -0.4872  1.3958 -2.3467
17365TIP3   OH273509   2.743   6.559  14.138  0.4290  0.4199  0.4945
17365TIP3    H173510   2.804   6.485  14.140  1.4066  1.1428 -0.7297
17365TIP3    H273511   2.708   6.564  14.226  1.6302 -0.4524  1.0502
17366TIP3   OH273512   6.747   0.337  13.591 -0.3938  0.0135  0.2256
17366TIP3    H173513   6.840   0.330  13.615  0.1090 -0.1951 -1.6695
17366TIP3    H273514   6.742   0.416  13.537 -1.0344 -0.7611 -0.8930
17367TIP3   OH273515   3.179   5.584  14.131 -0.6410  0.1963  0.4668
17367TIP3    H173516   3.250   5.562  14.190 -0.5224 -2.3177 -0.4550
17367TIP3    H273517   3.100   5.556  14.177 -0.3770 -4.6880 -1.4296
17368TIP3   OH273518   5.369   3.336  12.068  0.7215  0.3290 -0.5780
17368TIP3    H173519   5.359   3.348  12.162 -0.0176 -1.3108 -0.4210
17368TIP3    H273520   5.290   3.374  12.030 -0.1327 -1.0969 -0.3178
17369TIP3   OH273521   1.026   2.330  11.646  0.3490  0.3565 -0.8459
17369TIP3    H173522   1.112   2.334  11.689 -0.2247 -1.0072  0.5116
17369TIP3    H273523   1.046   2.333  11.552  1.8682  0.2022 -0.5543
17370TIP3   OH273524   0.560   1.147   3.925 -0.8353  0.6986  0.1767
17370TIP3    H173525   0.520   1.070   3.886  0.3988  0.5100 -0.7935
17370TIP3    H273526   0.514   1.160   4.008 -0.9765 -1.1419  0.4110
17371TIP3   OH273527   2.245   3.671  14.826  0.3091  0.6734 -0.1908
17371TIP3    H173528   2.324   3.724  14.833  0.3130  0.5676  0.5776
17371TIP3    H273529   2.239   3.625  14.909  0.4091 -0.6809 -0.8974
17372TIP3   OH273530   2.821   2.442  15.859 -0.0817 -0.9466  0.6817
17372TIP3    H173531   2.913   2.459  15.880 -0.4401  0.9279  0.8434
17372TIP3    H273532   2.775   2.454  15.942 -0.9128  1.9047 -0.0800
17373TIP3   OH273533   3.685   1.680   1.012 -0.1524  0.4088  0.6128
17373TIP3    H173534   3.676   1.733   0.933  1.3425 -1.9946 -1.3330
17373TIP3    H273535   3.658   1.738   1.084  0.8001  3.5453 -1.3574
17374TIP3   OH273536   0.779   5.649   1.423  0.0668 -0.6087  0.0096
17374TIP3    H173537   0.854   5.608   1.380  0.6805  0.1602  0.3142
17374TIP3    H273538   0.766   5.731   1.375  1.4289  0.7735  1.8890
17375TIP3   OH273539   4.105   5.765   0.298  0.0307 -0.5074 -1.1192
17375TIP3    H173540   4.078   5.714   0.222  1.4292 -1.4064 -1.0605
17375TIP3    H273541   4.186   5.722   0.328 -0.8144 -0.6154  1.2768
17376TIP3   OH273542   5.550   3.520   0.877  0.4114  0.4379  0.2363
17376TIP3    H173543   5.534   3.570   0.797  0.8836 -0.1709 -0.2454
17376TIP3    H273544   5.591   3.439   0.847  0.0528 -0.0504  1.0491
17377TIP3   OH273545   3.454   3.270  16.634  0.0603  0.1946  0.5375
17377TIP3    H173546   3.466   3.178  16.611 -1.1224 -0.1743  1.3270
17377TIP3    H273547   3.532   3.292  16.685  0.5282 -0.2523  0.0308
17378TIP3   OH273548   6.749   1.390   1.656  0.1980 -0.2764 -0.6061
17378TIP3    H173549   6.704   1.346   1.584  0.3977 -1.3273 -0.1124
17378TIP3    H273550   6.781   1.318   1.711 -1.1322  0.4943  1.2737
17379TIP3   OH273551   3.413   5.132  13.668 -0.2360 -0.9313 -0.3699
17379TIP3    H173552   3.387   5.051  13.712 -1.8150 -0.6314 -0.6828
17379TIP3    H273553   3.348   5.196  13.697  0.4679  0.0025 -0.8274
17380TIP3   OH273554   4.530   1.956   2.524  0.3724 -0.1319 -0.2446
17380TIP3    H173555   4.543   1.906   2.444 -0.2820  0.7636 -0.9282
17380TIP3    H273556   4.619   1.977   2.554  0.6359 -1.1693 -0.2724
17381TIP3   OH273557   1.411   6.478  12.128  0.4062 -0.4555  0.0571
17381TIP3    H173558   1.451   6.504  12.211  1.1954  0.8072 -0.6915
17381TIP3    H273559   1.325   6.522  12.128 -0.3207 -1.7970  0.9059
17382TIP3   OH273560   3.901   4.740  13.916  0.1772  0.6390  0.4096
17382TIP3    H173561   3.964   4.785  13.859  0.4556 -0.9958 -0.6445
17382TIP3    H273562   3.864   4.810  13.970  0.1917  2.2369 -1.5046
17383TIP3   OH273563   3.462   2.173   1.716  0.6753  0.4461 -0.2089
17383TIP3    H173564   3.392   2.238   1.715  0.7492  0.5264 -0.2040
17383TIP3    H273565   3.490   2.168   1.807 -0.2118 -0.5509  0.0264
17384TIP3   OH273566   3.934   0.789  11.948  0.1684 -1.0693  0.2602
17384TIP3    H173567   3.859   0.745  11.908 -0.7822  0.9786 -0.3006
17384TIP3    H273568   3.897   0.840  12.020  1.1497 -0.6483  0.4883
17385TIP3   OH273569   3.609   1.034   2.392 -0.3289 -0.5753 -0.1431
17385TIP3    H173570   3.657   1.024   2.474  0.3279  2.2951 -0.0961
17385TIP3    H273571   3.581   0.945   2.370  1.7270 -1.8105  1.8108
17386TIP3   OH273572   1.674   0.232  14.384 -0.0784  0.0791 -0.0129
17386TIP3    H173573   1.624   0.292  14.440 -0.1961  0.9529 -1.0123
17386TIP3    H273574   1.765   0.250  14.405 -0.0868  1.0947 -0.7365
17387TIP3   OH273575   6.115   1.207  14.399  0.3300  0.0373  0.8206
17387TIP3    H173576   6.075   1.124  14.373 -0.5457  0.5456  0.5063
17387TIP3    H273577   6.041   1.262  14.424  0.2997  2.3869 -3.4752
17388TIP3   OH273578   1.541   5.255  17.298  0.2884 -0.2125 -0.1831
17388TIP3    H173579   1.461   5.293  17.262 -0.7986  2.0978  4.0225
17388TIP3    H273580   1.595   5.330  17.321  1.8993 -1.5694  0.6730
17389TIP3   OH273581   4.884   4.552  15.389 -0.2085  0.1977  0.3886
17389TIP3    H173582   4.866   4.505  15.307  0.4250 -0.5426  0.6653
17389TIP3    H273583   4.930   4.488  15.444  2.1990  1.6077  0.1613
17390TIP3   OH273584   0.661   6.001   3.195  0.2433 -0.3695 -0.1923
17390TIP3    H173585   0.730   5.992   3.129  0.4914 -3.1783  0.3324
17390TIP3    H273586   0.623   6.087   3.177  2.2540  0.2470 -2.0561
17391TIP3   OH273587   2.018   3.604  11.146 -0.0021 -0.2319 -0.0449
17391TIP3    H173588   1.972   3.568  11.222 -0.8305 -0.0230 -0.4283
17391TIP3    H273589   2.026   3.530  11.086  0.2881 -0.3008  0.0779
17392TIP3   OH273590   1.769   6.220   3.752 -0.0801 -0.7895 -0.0675
17392TIP3    H173591   1.833   6.238   3.683  0.1131 -0.1894  0.2543
17392TIP3    H273592   1.715   6.150   3.718  1.2935 -1.9284 -0.0211
17393TIP3   OH273593   1.729   5.256   3.203  0.4205  0.1670 -0.0262
17393TIP3    H173594   1.673   5.258   3.125 -0.7539  2.4041  0.7777
17393TIP3    H273595   1.677   5.208   3.268  0.3712  0.3147  0.0461
17394TIP3   OH273596   6.767   6.739   1.755 -0.0843  0.2477  0.4862
17394TIP3    H173597   6.747   6.689   1.834  1.9412 -0.6775  0.4994
17394TIP3    H273598   6.840   6.796   1.781  0.4594  0.0950 -0.6324
17395TIP3   OH273599   3.289   0.412  13.776  0.2809 -0.3522 -0.2171
17395TIP3    H173600   3.236   0.337  13.801 -1.0816  0.4093 -0.6897
17395TIP3    H273601   3.292   0.409  13.681  1.6317 -0.7127 -0.1878
17396TIP3   OH273602   3.979   3.641  11.665  0.1279 -0.1233 -0.1064
17396TIP3    H173603   3.965   3.550  11.640 -0.8377 -0.2789  0.9402
17396TIP3    H273604   3.908   3.689  11.622 -0.3429 -0.1071  0.6836
17397TIP3   OH273605   1.108   2.209  15.866 -0.2600 -0.2925  0.1894
17397TIP3    H173606   1.162   2.144  15.911 -1.6894 -0.9321  1.0568
17397TIP3    H273607   1.058   2.159  15.802 -1.3859 -0.0806  0.8782
17398TIP3   OH273608   1.754   3.196  16.040  0.2454  0.4654  0.5607
17398TIP3    H173609   1.721   3.243  16.116 -0.1252  0.7055  0.2569
17398TIP3    H273610   1.800   3.263  15.989 -0.4577  0.5535  0.0243
17399TIP3   OH273611   3.649   3.212   0.070  0.1992  0.9993  0.3318
17399TIP3    H173612   3.557   3.193   0.056  0.8939 -2.1521 -0.7643
17399TIP3    H273613   3.660   3.205   0.165 -0.4018 -0.3899  0.3244
17400TIP3   OH273614   3.117   2.667  16.952  0.2013  0.2477 -0.0158
17400TIP3    H173615   3.050   2.719  16.997 -0.7402 -1.1748  0.3015
17400TIP3    H273616   3.094   2.576  16.973  1.0365 -0.3526 -1.5820
17401TIP3   OH273617   4.053   4.206  14.364  0.1855 -0.0895  0.4852
17401TIP3    H173618   4.088   4.248  14.285  0.5109 -2.4280 -0.7247
17401TIP3    H273619   4.131   4.183  14.415  0.2026 -1.3259 -0.0544
17402TIP3   OH273620   3.355   2.709   2.405  0.1029 -0.5801 -0.0448
17402TIP3    H173621   3.412   2.782   2.380  2.5071 -2.3730 -0.1179
17402TIP3    H273622   3.308   2.686   2.325 -0.9691  1.0611  0.0688
17403TIP3   OH273623   4.113   6.351   2.615  0.8156 -0.1021  0.0458
17403TIP3    H173624   4.104   6.447   2.616 -0.9410 -0.2438  0.2848
17403TIP3    H273625   4.159   6.332   2.534  0.0359  0.8694 -0.6426
17404TIP3   OH273626   4.611   3.554   3.806  0.3033  0.2859  0.2422
17404TIP3    H173627   4.626   3.460   3.803  0.7684  0.3219  1.0055
17404TIP3    H273628   4.691   3.593   3.772  0.1488  0.4073  0.0143
17405TIP3   OH273629   0.490   5.330   3.686  0.1183  0.0426  0.0678
17405TIP3    H173630   0.463   5.375   3.606 -0.0784  0.0414  0.1315
17405TIP3    H273631   0.439   5.373   3.755  0.7590  0.4714  0.2790
17406TIP3   OH273632   1.779   1.912  11.825 -0.2552  0.4251 -0.5115
17406TIP3    H173633   1.775   1.874  11.913 -2.1308  1.9264  0.1278
17406TIP3    H273634   1.769   1.837  11.766 -0.7371 -0.4338  0.6118
17407TIP3   OH273635   1.030   6.066   1.241 -0.7478 -0.9639  0.2553
17407TIP3    H173636   1.026   6.025   1.154 -0.3816  0.4966 -0.4793
17407TIP3    H273637   1.072   6.000   1.296 -0.2545 -1.6234 -0.8567
17408TIP3   OH273638   4.337   3.716   4.935 -0.3350  0.2211 -0.4007
17408TIP3    H173639   4.421   3.761   4.932  0.2107 -0.7804 -0.4237
17408TIP3    H273640   4.347   3.651   5.004 -1.0874  0.0709 -0.4284
17409TIP3   OH273641   3.364   3.729  17.174  0.3355  0.3875  0.7905
17409TIP3    H173642   3.445   3.774  17.197  0.3517 -0.0561  1.6372
17409TIP3    H273643   3.390   3.639  17.157 -0.0272  0.1171  1.5701
17410TIP3   OH273644   3.004   2.579  13.282 -0.6066 -0.0896  0.3600
17410TIP3    H173645   3.059   2.535  13.347  2.2866 -0.2891 -1.9748
17410TIP3    H273646   2.928   2.522  13.271 -0.9315 -0.3011  3.0769
17411TIP3   OH273647   1.289   0.190   3.178  1.0014  0.1105  0.0556
17411TIP3    H173648   1.249   0.157   3.259 -0.6631  1.3048 -0.2269
17411TIP3    H273649   1.238   0.148   3.108  0.8201  0.9675 -0.3303
17412TIP3   OH273650   3.362   4.517  15.664  0.3592 -0.2747 -0.5069
17412TIP3    H173651   3.346   4.423  15.654  2.9910 -1.0877  1.8734
17412TIP3    H273652   3.283   4.550  15.706 -0.1248 -1.6342 -0.3111
17413TIP3   OH273653   1.704   6.306   6.790  0.3792 -0.5345 -0.3983
17413TIP3    H173654   1.783   6.343   6.751 -0.6079 -0.8459 -2.8795
17413TIP3    H273655   1.658   6.265   6.716 -2.3346  0.0720  0.8423
17414TIP3   OH273656   4.656   0.013   2.561 -0.4557 -0.5438  0.1179
17414TIP3    H173657   4.702   0.033   2.642 -1.9586  1.0705  0.6456
17414TIP3    H273658   4.603  -0.065   2.580 -0.8701 -0.1164  0.7417
17415TIP3   OH273659   6.034   5.043   0.021  0.4046  0.0304 -0.2618
17415TIP3    H173660   6.022   4.948   0.011 -0.8846 -0.0099  1.2583
17415TIP3    H273661   5.962   5.080  -0.030  0.5119  0.1679 -0.3116
17416TIP3   OH273662   6.653   3.421  12.777 -0.1519 -0.5731 -0.3708
17416TIP3    H173663   6.728   3.465  12.736  0.6009 -0.0640  1.4505
17416TIP3    H273664   6.611   3.489  12.829  0.0130 -1.5877  1.1448
17417TIP3   OH273665   2.466   1.352   5.420 -1.0777  0.2855 -0.1779
17417TIP3    H173666   2.509   1.403   5.488 -0.7975  0.4962 -0.5130
17417TIP3    H273667   2.466   1.262   5.454  1.9283 -0.2153 -1.2490
17418TIP3   OH273668   0.905   5.347   5.090 -0.4294  0.1681 -0.4047
17418TIP3    H173669   0.938   5.258   5.099 -1.1356  0.0423  1.5337
17418TIP3    H273670   0.980   5.403   5.109 -0.4721 -0.0648  0.4861
17419TIP3   OH273671   1.572   5.812  13.622  0.1542  0.4291 -0.0624
17419TIP3    H173672   1.570   5.734  13.677  1.4779  0.2321 -0.2599
17419TIP3    H273673   1.484   5.816  13.583 -0.0748 -0.7059  0.2870
17420TIP3   OH273674   5.849   5.109  17.197  0.1616 -0.4265 -0.2876
17420TIP3    H173675   5.805   5.193  17.182  1.6685  0.3504 -0.6256
17420TIP3    H273676   5.839   5.062  17.115 -0.3936 -0.4503 -0.2137
17421TIP3   OH273677   0.277   5.778  11.700 -0.7037  0.1361 -0.3464
17421TIP3    H173678   0.270   5.685  11.680 -0.2129  0.2562 -1.1140
17421TIP3    H273679   0.336   5.782  11.775 -0.3090 -0.1431 -0.6368
17422TIP3   OH273680   5.114   0.510   4.855  0.3662 -0.0767  0.0915
17422TIP3    H173681   5.139   0.481   4.942 -0.6189 -0.0819  0.3804
17422TIP3    H273682   5.174   0.583   4.836  0.8628 -0.3467  0.5910
17423TIP3   OH273683   0.122   6.172  11.422  0.4026 -0.2185 -0.2477
17423TIP3    H173684   0.066   6.249  11.426 -2.2080 -2.0155  0.3637
17423TIP3    H273685   0.152   6.160  11.512 -0.7098 -0.9195  0.0457
17424TIP3   OH273686   2.773   0.123  15.184 -0.0088  0.5238  0.2694
17424TIP3    H173687   2.781   0.046  15.128  2.2090  0.3788  0.6993
17424TIP3    H273688   2.788   0.197  15.125  0.6197  0.4645  0.3515
17425TIP3   OH273689   4.536   3.072  12.814 -0.0349 -0.1821  0.1876
17425TIP3    H173690   4.461   3.016  12.832 -1.1451  1.1806 -0.0584
17425TIP3    H273691   4.549   3.065  12.719  0.9025 -1.2946  0.3689
17426TIP3   OH273692   6.475   6.191   6.063 -0.1047 -0.0789  0.3781
17426TIP3    H173693   6.492   6.198   5.969 -1.0136  0.1652  0.2239
17426TIP3    H273694   6.439   6.103   6.074 -1.9817  0.6226  0.1582
17427TIP3   OH273695   3.199   5.710  15.930 -0.7967  0.2384  0.6825
17427TIP3    H173696   3.273   5.762  15.899 -0.7726 -0.2688 -0.1551
17427TIP3    H273697   3.236   5.652  15.997 -0.5903  0.5057  0.7985
17428TIP3   OH273698   5.905   0.107   2.727 -0.1819  0.0643  0.2756
17428TIP3    H173699   5.917   0.129   2.819  0.6835 -0.5282  0.3219
17428TIP3    H273700   5.921   0.013   2.722  1.2123  0.3076 -0.6755
17429TIP3   OH273701   5.642   3.951   2.577  0.8151  0.1014 -0.0310
17429TIP3    H173702   5.700   3.950   2.654  0.3543 -2.2247  0.3561
17429TIP3    H273703   5.699   3.930   2.504  0.8596  0.1296 -0.0049
17430TIP3   OH273704   1.999   5.165   0.541  0.3630 -0.4551  0.3168
17430TIP3    H173705   2.020   5.255   0.565  0.5417 -0.3870 -0.0903
17430TIP3    H273706   2.049   5.111   0.602  0.8442 -0.2861  0.0699
17431TIP3   OH273707   2.891   1.407   3.772 -0.9649  0.2420  0.2861
17431TIP3    H173708   2.968   1.401   3.715 -0.3890 -2.2120  1.2300
17431TIP3    H273709   2.818   1.423   3.712 -0.2503 -1.2681 -1.0561
17432TIP3   OH273710   1.545   1.043  17.166  0.0826  0.0179 -0.5787
17432TIP3    H173711   1.488   1.100  17.115  0.2416 -1.4618 -2.5366
17432TIP3    H273712   1.492   1.017  17.241 -0.3878  1.7872 -0.2658
17433TIP3   OH273713   1.789   6.686  15.331  0.0839  0.3323  0.0745
17433TIP3    H173714   1.878   6.649  15.333 -0.2291 -0.4364  0.2076
17433TIP3    H273715   1.749   6.656  15.413 -0.2608  0.7743  0.0690
17434TIP3   OH273716   5.791   5.304   2.163 -0.5662  0.2944  0.6170
17434TIP3    H173717   5.697   5.298   2.146 -0.6659  0.7331  0.9886
17434TIP3    H273718   5.803   5.393   2.196 -0.1948 -0.1154  1.6350
17435TIP3   OH273719   5.181   1.466  17.200 -0.9499  0.3027 -0.1957
17435TIP3    H173720   5.252   1.419  17.156 -2.5833 -1.4551 -1.1243
17435TIP3    H273721   5.158   1.410  17.274 -0.4174  1.6183  1.0086
17436TIP3   OH273722   1.058   0.897  14.426 -0.1058  0.0655 -0.7981
17436TIP3    H173723   1.064   0.860  14.514  0.0010 -3.9714 -2.3032
17436TIP3    H273724   1.137   0.865  14.382 -0.9339  0.6495 -2.7963
17437TIP3   OH273725   3.936   2.415   6.557  0.2611  0.2804 -0.5476
17437TIP3    H173726   3.882   2.409   6.479  0.1465  0.9497 -0.5190
17437TIP3    H273727   3.896   2.354   6.619  0.9009 -0.9851 -1.3186
17438TIP3   OH273728   4.962   6.621  13.025 -0.0564  0.1461 -0.4281
17438TIP3    H173729   5.033   6.676  12.993  0.0055  0.2127 -0.1826
17438TIP3    H273730   4.912   6.678  13.083 -0.6736  0.2814 -1.0833
17439TIP3   OH273731   0.057   4.193   1.517  0.0529  0.2076 -0.1682
17439TIP3    H173732   0.019   4.119   1.564  0.7325  1.1364  1.9249
17439TIP3    H273733   0.107   4.152   1.446  1.0504 -1.4012  1.3871
17440TIP3   OH273734   3.862   0.649   3.391  0.0357 -0.1210 -0.0783
17440TIP3    H173735   3.816   0.733   3.388 -0.6428 -0.4191  1.2418
17440TIP3    H273736   3.794   0.585   3.413  1.2284 -0.3477  3.6709
17441TIP3   OH273737   3.065   6.067   2.251  0.1719 -0.4148 -0.5379
17441TIP3    H173738   2.993   6.041   2.309 -0.4805  0.9296 -0.6796
17441TIP3    H273739   3.111   5.986   2.230 -0.6840 -1.1617  0.4000
17442TIP3   OH273740   5.444   4.368   0.967 -0.4288  0.1792 -0.5373
17442TIP3    H173741   5.375   4.306   0.947 -0.8450  0.3638  0.2832
17442TIP3    H273742   5.472   4.345   1.056 -0.4482  1.0361 -0.3033
17443TIP3   OH273743   2.541   4.719   5.726 -0.5079 -0.0902  0.0871
17443TIP3    H173744   2.461   4.703   5.776 -0.9821 -0.4885 -0.7571
17443TIP3    H273745   2.605   4.658   5.763 -0.6923  0.0094  0.5690
17444TIP3   OH273746   4.482   3.997   0.886  0.4220  1.1501 -0.8753
17444TIP3    H173747   4.491   4.021   0.794  0.2178  2.4331 -0.5778
17444TIP3    H273748   4.421   4.061   0.922 -0.7352 -0.2676 -0.1910
17445TIP3   OH273749   0.354   0.430   3.953 -0.4872  0.4992  0.1827
17445TIP3    H173750   0.323   0.378   3.879  0.2582 -0.0932  0.2771
17445TIP3    H273751   0.292   0.411   4.023 -2.0317  2.1522 -0.6714
17446TIP3   OH273752   4.641   3.958  13.952  0.1392  0.2754 -0.4028
17446TIP3    H173753   4.731   3.934  13.972  0.0059  0.7452  0.8023
17446TIP3    H273754   4.604   3.880  13.909 -0.4299 -2.0467  3.7775
17447TIP3   OH273755   3.364   1.291  11.522  0.6143 -0.4044 -0.0792
17447TIP3    H173756   3.372   1.256  11.433 -0.4219 -2.5246  0.6041
17447TIP3    H273757   3.442   1.260  11.567  0.9655  0.3780 -0.1273
17448TIP3   OH273758   3.455   0.673  12.725  0.4237 -0.1345  0.0217
17448TIP3    H173759   3.419   0.671  12.637  0.2119 -4.5250 -0.0394
17448TIP3    H273760   3.547   0.697  12.713  0.4405 -0.8130 -1.4583
17449TIP3   OH273761   4.363   2.561  16.298 -0.6247 -0.5419  0.1263
17449TIP3    H173762   4.442   2.508  16.288  1.5791  2.1008  2.1695
17449TIP3    H273763   4.374   2.633  16.237 -1.4188 -0.0964  0.4926
17450TIP3   OH273764   0.670   2.084  15.417  0.4672 -0.3623 -0.2891
17450TIP3    H173765   0.593   2.077  15.361 -0.6908  2.3440  0.7940
17450TIP3    H273766   0.641   2.054  15.503  1.1545 -0.9421 -0.2452
17451TIP3   OH273767   1.827   2.378   1.501  0.0550  0.0408 -0.5189
17451TIP3    H173768   1.739   2.415   1.513  0.1371  0.1449 -0.2422
17451TIP3    H273769   1.876   2.405   1.579  0.3504  0.0316 -0.6985
17452TIP3   OH273770   6.269   5.539   5.257  0.5455 -0.5773 -0.0226
17452TIP3    H173771   6.253   5.596   5.182 -0.1336 -0.5407  0.1444
17452TIP3    H273772   6.223   5.582   5.330  0.7301 -0.9049  0.2911
17453TIP3   OH273773   5.036   2.428   2.856 -0.0367  0.5452  0.3770
17453TIP3    H173774   5.047   2.517   2.889 -0.8111  0.8621 -0.1889
17453TIP3    H273775   5.083   2.373   2.919 -1.3285  1.1346  1.9294
17454TIP3   OH273776   5.268   0.903   2.667 -0.5309 -0.1309 -0.0871
17454TIP3    H173777   5.193   0.925   2.722 -0.2863  0.0326  0.1799
17454TIP3    H273778   5.309   0.829   2.711 -0.0450  0.3179  0.2201
17455TIP3   OH273779   0.796   4.686   5.744  0.7888 -0.1760 -0.2905
17455TIP3    H173780   0.840   4.633   5.810 -1.1347 -2.2010 -0.4861
17455TIP3    H273781   0.825   4.649   5.660  1.9817  1.3232 -0.5775
17456TIP3   OH273782   6.679   5.498   4.958  0.2315 -0.1631  0.3957
17456TIP3    H173783   6.614   5.432   4.937 -0.3836  0.7705 -0.7519
17456TIP3    H273784   6.758   5.469   4.912 -0.1250  0.0584 -0.3623
17457TIP3   OH273785   4.915   5.356  11.275 -0.0720 -0.0435  0.2943
17457TIP3    H173786   4.834   5.325  11.233 -0.2459 -0.8226  1.1541
17457TIP3    H273787   4.928   5.444  11.240  0.2521 -0.9423 -2.0178
17458TIP3   OH273788   1.858   6.685   0.261 -0.3216  0.2703 -0.3415
17458TIP3    H173789   1.868   6.620   0.331  1.8834  1.1394  0.2605
17458TIP3    H273790   1.786   6.740   0.289 -0.8814 -0.6889  0.1601
17459TIP3   OH273791   0.948   6.382  13.241  0.2071 -0.2727 -0.3416
17459TIP3    H173792   0.874   6.355  13.295  0.6707 -2.0152 -0.5112
17459TIP3    H273793   1.022   6.330  13.274  0.8996 -0.0284 -1.4583
17460TIP3   OH273794   6.548   3.181   2.458 -0.3540  0.3031 -0.6079
17460TIP3    H173795   6.585   3.102   2.498 -1.3018 -1.8989 -3.6803
17460TIP3    H273796   6.616   3.211   2.398  0.0240  1.9928  0.5817
17461TIP3   OH273797   5.957   0.771   1.563  0.1789  0.3864  0.3540
17461TIP3    H173798   5.903   0.832   1.513  0.0025  0.3249  0.4658
17461TIP3    H273799   5.926   0.782   1.654 -0.9387 -0.9873  0.1694
17462TIP3   OH273800   3.983   1.724  16.372 -0.0458  0.1717  0.1681
17462TIP3    H173801   4.009   1.815  16.359  1.8355 -0.3923 -0.4253
17462TIP3    H273802   3.928   1.725  16.449  1.2980  1.6102  1.1688
17463TIP3   OH273803   3.221   0.954  14.295 -0.3529 -0.0707  0.0804
17463TIP3    H173804   3.202   0.869  14.255 -1.3271  0.0619  0.2489
17463TIP3    H273805   3.231   1.014  14.220  0.6547 -0.3849 -0.0512
17464TIP3   OH273806   1.754   0.152   1.888  0.1328 -0.0219  0.0960
17464TIP3    H173807   1.735   0.069   1.933  0.8363 -0.0461  0.3593
17464TIP3    H273808   1.795   0.125   1.805  2.1558  0.0681  1.0120
17465TIP3   OH273809   0.446   4.001  13.937 -0.1957  0.0396 -0.1906
17465TIP3    H173810   0.359   4.015  13.900  0.4068  0.5643 -1.4495
17465TIP3    H273811   0.490   4.086  13.928  0.0016  0.1910  1.7274
17466TIP3   OH273812   6.234   3.303  11.054  0.0344 -0.4574  0.2357
17466TIP3    H173813   6.249   3.214  11.085  0.0821 -0.2941  0.6912
17466TIP3    H273814   6.280   3.358  11.117  0.8898 -0.1581 -0.6385
17467TIP3   OH273815   3.788   3.956  11.242 -0.3418  0.1100  0.4699
17467TIP3    H173816   3.828   3.978  11.158  0.6901 -2.9141  0.0341
17467TIP3    H273817   3.788   3.860  11.245 -0.8874  0.0713  3.6781
17468TIP3   OH273818   4.200   4.158  13.905 -0.8229  0.3239 -0.2971
17468TIP3    H173819   4.171   4.224  13.968 -2.1025 -1.4667  1.1060
17468TIP3    H273820   4.136   4.162  13.835 -0.2599  1.2840 -0.7850
17469TIP3   OH273821   5.813   6.272   0.700 -0.1946  0.1683  0.2380
17469TIP3    H173822   5.781   6.339   0.639 -1.8389 -1.0447 -0.3025
17469TIP3    H273823   5.830   6.320   0.781 -1.0835  1.2899 -0.2159
17470TIP3   OH273824   4.140   2.206  17.175  0.3412 -0.8466 -0.0633
17470TIP3    H173825   4.168   2.118  17.150  0.1661 -0.9659  0.1603
17470TIP3    H273826   4.048   2.196  17.198 -0.5593 -0.0632 -2.9212
17471TIP3   OH273827   2.939   3.215   4.676  0.2637 -0.2427  0.0022
17471TIP3    H173828   2.857   3.233   4.630  0.2387  0.9531  0.4764
17471TIP3    H273829   2.963   3.299   4.717  1.7625 -0.5534 -0.1820
17472TIP3   OH273830   5.499   3.091  16.636  0.2464  0.1704  0.6102
17472TIP3    H173831   5.567   3.153  16.611  0.1851 -0.8582 -2.5300
17472TIP3    H273832   5.506   3.020  16.572 -1.7468 -1.5108  2.1188
17473TIP3   OH273833   0.131   5.063  13.878  0.0996  0.3597 -0.0961
17473TIP3    H173834   0.171   5.008  13.811  1.0547  1.3055 -0.3184
17473TIP3    H273835   0.205   5.095  13.930 -0.5884  0.0118  1.1301
17474TIP3   OH273836   6.201   6.388  16.099 -0.3222  0.1237 -0.3244
17474TIP3    H173837   6.240   6.473  16.076 -0.2416  0.1978  0.0823
17474TIP3    H273838   6.122   6.411  16.148 -0.4891 -0.0335 -0.5208
17475TIP3   OH273839   2.544   3.990  13.018 -0.9080 -0.2582 -0.5688
17475TIP3    H173840   2.573   4.029  12.936 -0.5979  0.3800 -0.1627
17475TIP3    H273841   2.560   4.057  13.084 -0.1022 -1.1631  0.1931
17476TIP3   OH273842   5.700   4.722   2.584  0.2043 -0.0916  0.1797
17476TIP3    H173843   5.655   4.688   2.662  0.9815 -0.0033  0.6761
17476TIP3    H273844   5.629   4.750   2.526 -0.3766  1.4949  1.5917
17477TIP3   OH273845   5.470   1.961  13.961  0.3481 -0.0108  0.0454
17477TIP3    H173846   5.377   1.977  13.979  0.1422  0.3224 -1.1835
17477TIP3    H273847   5.491   1.882  14.010 -1.3904 -1.8569 -2.0126
17478TIP3   OH273848   3.766   5.954   3.333 -0.2842  0.2544 -0.3689
17478TIP3    H173849   3.696   5.945   3.398  0.0999 -2.7283 -0.2198
17478TIP3    H273850   3.822   6.024   3.366 -3.0354  2.6541 -0.4252
17479TIP3   OH273851   1.420   6.155  16.760 -0.3653  0.4215  0.0203
17479TIP3    H173852   1.509   6.188  16.745 -0.2426  0.3311  0.5178
17479TIP3    H273853   1.380   6.152  16.673  0.0185  0.7443 -0.1704
17480TIP3   OH273854   4.985   1.690  10.917 -0.2077 -0.7344 -0.2104
17480TIP3    H173855   5.036   1.763  10.881  1.8091 -1.8855  0.1779
17480TIP3    H273856   4.894   1.711  10.894  0.4607  1.1358 -1.4007
17481TIP3   OH273857   5.534   1.983  15.128  0.1082 -0.6676  0.0640
17481TIP3    H173858   5.574   2.048  15.070 -0.9053 -0.0316  0.0456
17481TIP3    H273859   5.519   2.031  15.210  1.2445 -1.4702  0.7550
17482TIP3   OH273860   3.961   0.233  14.128 -0.2121  0.2564 -0.5528
17482TIP3    H173861   3.996   0.264  14.211 -0.9821 -0.8801  0.2332
17482TIP3    H273862   3.871   0.268  14.126 -0.2130  0.2355 -0.8872
17483TIP3   OH273863   2.892   3.428  11.822 -0.2262  0.3292  0.3945
17483TIP3    H173864   2.859   3.339  11.836  0.7124 -0.2634 -0.9072
17483TIP3    H273865   2.821   3.485  11.853 -1.6956 -0.8808 -0.5681
17484TIP3   OH273866   5.191   0.918   3.874 -0.1998  0.3697 -0.0566
17484TIP3    H173867   5.218   0.846   3.815  1.2709  0.2390  0.7215
17484TIP3    H273868   5.229   0.996   3.834 -0.3386  0.4670  0.0047
17485TIP3   OH273869   4.484   0.041  13.167  0.0523  0.3322  0.7113
17485TIP3    H173870   4.499   0.077  13.080  0.7606 -0.3981  0.5167
17485TIP3    H273871   4.390   0.052  13.181  0.0482  1.0999  0.1506
17486TIP3   OH273872   1.088   4.326   1.859 -0.5586 -0.3745  0.1445
17486TIP3    H173873   1.065   4.239   1.891 -1.1016  0.4531  2.1860
17486TIP3    H273874   1.005   4.373   1.857  0.0565  0.8500  1.6196
17487TIP3   OH273875   1.986   1.548   0.493  0.0955  0.0289 -0.0309
17487TIP3    H173876   2.001   1.455   0.513 -1.0587 -0.2972 -0.6318
17487TIP3    H273877   1.927   1.578   0.562  1.5797  0.7172  0.9959
17488TIP3   OH273878   6.358   2.241   3.476 -0.4592 -0.7993 -0.4876
17488TIP3    H173879   6.407   2.159   3.484 -0.2300 -0.5237  1.5019
17488TIP3    H273880   6.420   2.309   3.504 -1.1631 -0.1373 -0.5014
17489TIP3   OH273881   1.444   3.816  16.353 -0.4343 -0.1056  0.1428
17489TIP3    H173882   1.433   3.722  16.365 -1.3632  0.1482  1.5954
17489TIP3    H273883   1.413   3.833  16.264  2.5443 -1.5299 -1.3135
17490TIP3   OH273884   1.560   5.768   6.070 -0.1776 -0.2086  0.6852
17490TIP3    H173885   1.598   5.830   6.133 -0.7214 -1.3305  2.1730
17490TIP3    H273886   1.549   5.819   5.990  2.7584  0.6699  0.7004
17491TIP3   OH273887   1.259   0.167  13.460 -0.8099 -0.3564  0.0929
17491TIP3    H173888   1.178   0.163  13.410 -0.3282  0.4643 -0.7921
17491TIP3    H273889   1.299   0.251  13.435 -0.0871 -0.3678  1.1307
17492TIP3   OH273890   3.843   5.983  11.839  0.3003  0.8724 -0.1226
17492TIP3    H173891   3.848   6.017  11.928  1.3026 -1.7592  0.9073
17492TIP3    H273892   3.916   6.025  11.793  1.3783  0.3110  1.0399
17493TIP3   OH273893   0.475   6.726   2.980 -0.4899 -0.1846 -0.1818
17493TIP3    H173894   0.563   6.694   2.999 -0.4005 -0.2717 -0.7383
17493TIP3    H273895   0.462   6.798   3.043 -0.0951 -0.2874  0.0218
17494TIP3   OH273896   1.131   6.760   3.936  0.2097  0.0424 -0.3945
17494TIP3    H173897   1.151   6.763   4.030  0.1906  1.2481 -0.4061
17494TIP3    H273898   1.039   6.733   3.932  0.6620 -1.6148 -0.1563
17495TIP3   OH273899   1.082   2.251  16.838  0.2164  0.0003 -0.3434
17495TIP3    H173900   1.034   2.302  16.903 -0.5546  1.0737 -1.7022
17495TIP3    H273901   1.174   2.272  16.853  0.0718  0.0472  0.5334
17496TIP3   OH273902   5.351   6.630   2.996 -0.2897 -0.2936 -0.7031
17496TIP3    H173903   5.440   6.602   2.976  1.0780  2.3144  1.1718
17496TIP3    H273904   5.327   6.687   2.922 -0.5328 -1.1671 -1.3159
17497TIP3   OH273905   1.845   5.184   0.893  0.0369  0.1094 -0.3144
17497TIP3    H173906   1.845   5.099   0.848  1.4423  0.4010 -0.9183
17497TIP3    H273907   1.921   5.230   0.858  1.1023  0.4381  2.1815
17498TIP3   OH273908   1.920   2.274   3.938 -0.0538 -0.4665 -0.0135
17498TIP3    H173909   1.862   2.249   4.010  0.8255 -0.4908  0.7011
17498TIP3    H273910   1.911   2.204   3.874 -1.8966  0.2179 -0.5834
17499TIP3   OH273911   3.369   2.038   6.219 -0.1899  0.0423  0.2468
17499TIP3    H173912   3.357   2.098   6.293  0.2475 -0.2992  0.5966
17499TIP3    H273913   3.422   1.967   6.254  0.1751 -0.0340 -0.4442
17500TIP3   OH273914   0.858   4.044   5.705 -0.2090 -0.3855  0.0476
17500TIP3    H173915   0.870   4.138   5.719  1.4328 -0.8464  2.2750
17500TIP3    H273916   0.872   4.005   5.792 -1.5494 -2.6373 -0.6769
17501TIP3   OH273917   2.269   5.798  14.753  0.2855  0.0155  0.7729
17501TIP3    H173918   2.202   5.731  14.743 -1.0196  1.5486 -1.5454
17501TIP3    H273919   2.222   5.874  14.788  0.8383  1.0114 -0.5757
17502TIP3   OH273920   3.594   5.355  15.314 -0.3132 -0.2038  0.2886
17502TIP3    H173921   3.666   5.368  15.376  0.9842  1.3867 -1.4040
17502TIP3    H273922   3.521   5.404  15.351  0.0931 -0.1781  1.0834
17503TIP3   OH273923   4.563   4.792  13.413 -0.1303  0.0033  0.0163
17503TIP3    H173924   4.509   4.801  13.491 -0.0319 -0.2522  0.1161
17503TIP3    H273925   4.649   4.824  13.439  1.1938 -3.9996  1.4136
17504TIP3   OH273926   0.499   4.947   2.386  0.3783  0.2764  0.4438
17504TIP3    H173927   0.447   4.935   2.306 -0.6470  1.2336  0.9479
17504TIP3    H273928   0.440   4.920   2.456  1.0566  0.0467  0.9273
17505TIP3   OH273929   3.976   2.949  16.140 -0.2438  0.7510 -0.5075
17505TIP3    H173930   4.031   2.902  16.203 -1.2505  0.6046  0.3016
17505TIP3    H273931   3.893   2.962  16.186 -2.2392 -2.2217 -2.9101
17506TIP3   OH273932   2.292   2.478   5.035 -0.3698  0.3996 -0.1443
17506TIP3    H173933   2.276   2.390   5.069  1.4914  0.5127  1.1515
17506TIP3    H273934   2.206   2.521   5.038 -1.3377 -1.3502 -0.8898
17507TIP3   OH273935   3.022   5.846   2.955 -0.2989 -0.4228 -0.0772
17507TIP3    H173936   2.986   5.891   3.031 -0.4137 -3.6363  2.0100
17507TIP3    H273937   2.946   5.805   2.913  0.0282 -0.6503 -0.4569
17508TIP3   OH273938   0.428   4.398   4.411 -0.6019  0.5237  0.0711
17508TIP3    H173939   0.512   4.402   4.457 -0.5644  1.0041 -0.0383
17508TIP3    H273940   0.448   4.421   4.321 -0.5840 -0.9601 -0.3314
17509TIP3   OH273941   3.884   3.104   5.385  0.1145  0.1103  0.1075
17509TIP3    H173942   3.915   3.133   5.299 -0.3458  0.5609  0.0913
17509TIP3    H273943   3.955   3.126   5.445  1.3604 -2.1009 -0.4449
17510TIP3   OH273944   2.889   4.269   0.572  0.1659 -0.5594 -0.5586
17510TIP3    H173945   2.833   4.191   0.576  1.1749 -1.3029 -0.4589
17510TIP3    H273946   2.909   4.280   0.480  0.1875 -0.5339 -0.5509
17511TIP3   OH273947   5.550   2.845   2.470  0.3246  0.8104  0.5398
17511TIP3    H173948   5.559   2.926   2.420  0.9552  0.2324 -0.2977
17511TIP3    H273949   5.635   2.801   2.462 -0.4210 -0.5834 -0.1878
17512TIP3   OH273950   3.584   0.295   1.123 -0.0764  0.0512  0.8802
17512TIP3    H173951   3.563   0.374   1.172  0.9365 -1.0729  3.3236
17512TIP3    H273952   3.644   0.247   1.180 -0.1946 -2.2069 -0.7514
17513TIP3   OH273953   2.588   1.917  11.643  0.4528  0.1816 -0.4563
17513TIP3    H173954   2.522   1.975  11.606  0.5498  0.4045 -0.2801
17513TIP3    H273955   2.660   1.975  11.668  1.6539 -0.2460 -2.6157
17514TIP3   OH273956   1.773   1.675   4.202 -0.2038  0.1591  0.3101
17514TIP3    H173957   1.865   1.685   4.225 -0.3432  0.7712  0.6314
17514TIP3    H273958   1.731   1.644   4.282 -0.4116  0.6970  0.4178
17515TIP3   OH273959   4.776   0.580  14.774  0.6344 -0.8575 -0.0373
17515TIP3    H173960   4.839   0.647  14.750  1.0763 -0.9617  0.8085
17515TIP3    H273961   4.777   0.518  14.701 -0.2331  0.3505 -1.1273
17516TIP3   OH273962   3.071   3.393  10.820  0.0315 -0.4534 -0.6852
17516TIP3    H173963   3.009   3.357  10.883  1.5825  0.1759  1.3445
17516TIP3    H273964   3.021   3.456  10.770 -0.9562  0.2396  1.0776
17517TIP3   OH273965   0.625   0.453   4.454  0.4541 -0.4535 -0.2962
17517TIP3    H173966   0.605   0.428   4.364 -1.2346  0.1262 -0.1236
17517TIP3    H273967   0.615   0.548   4.455  1.3276 -0.3634  0.3070
17518TIP3   OH273968   4.380   3.737   5.545  0.3708 -0.6077 -0.4404
17518TIP3    H173969   4.324   3.732   5.468  0.7312 -0.2779 -0.7236
17518TIP3    H273970   4.322   3.770   5.614  0.4299  0.6801 -0.9695
17519TIP3   OH273971   0.347   6.453   5.752 -0.0521  0.4920 -0.2531
17519TIP3    H173972   0.439   6.426   5.756 -0.2394 -0.1258  0.0244
17519TIP3    H273973   0.341   6.507   5.674  0.2047 -0.8245 -1.2259
17520TIP3   OH273974   2.366   4.314  12.949  0.0968 -0.0412 -0.3182
17520TIP3    H173975   2.325   4.260  13.016  0.8019 -1.1679 -0.7685
17520TIP3    H273976   2.292   4.354  12.902 -0.4402 -0.6535 -0.0135
17521TIP3   OH273977   1.740   2.199   4.123 -0.1102  0.2781  0.2076
17521TIP3    H173978   1.741   2.125   4.184 -0.5117  0.3807  0.3424
17521TIP3    H273979   1.647   2.213   4.104  0.0665 -0.9305 -1.8537
17522TIP3   OH273980   2.759   4.001  12.223 -0.0699 -0.5909  0.8357
17522TIP3    H173981   2.732   4.077  12.171 -1.8690 -2.6411 -1.5247
17522TIP3    H273982   2.838   4.029  12.268  0.5394  2.0266 -1.5743
17523TIP3   OH273983   4.220   6.070  16.721 -0.2111 -0.2457 -0.0785
17523TIP3    H173984   4.264   5.987  16.703 -0.1814 -0.1727 -0.3451
17523TIP3    H273985   4.150   6.075  16.656 -1.6678 -1.1347  1.3631
17524TIP3   OH273986   5.475   0.238  17.240 -0.2221  0.3534  0.1623
17524TIP3    H173987   5.461   0.266  17.149 -1.0754 -2.0026 -0.5139
17524TIP3    H273988   5.444   0.311  17.293  1.2602  2.2168 -1.3948
17525TIP3   OH273989   0.408   3.822  12.617  0.4870 -0.1911 -0.2741
17525TIP3    H173990   0.342   3.802  12.684 -1.9364 -0.6811 -2.6101
17525TIP3    H273991   0.458   3.741  12.607 -0.2691 -0.6726 -0.2284
17526TIP3   OH273992   1.182   6.085   0.414 -0.1917 -0.0742  0.2689
17526TIP3    H173993   1.269   6.122   0.422 -0.5566  0.5798  1.5220
17526TIP3    H273994   1.166   6.043   0.499 -0.7734 -0.9080 -0.2359
17527TIP3   OH273995   0.564   6.047  11.882 -0.1732 -0.3847  0.2649
17527TIP3    H173996   0.639   5.997  11.915  1.6854  1.9114 -0.1859
17527TIP3    H273997   0.562   6.027  11.788 -0.2962 -0.6237  0.3162
17528TIP3   OH273998   4.758   3.390  16.444  0.2942 -0.4983  0.0348
17528TIP3    H173999   4.748   3.447  16.520 -1.8214  0.9663 -1.2382
17528TIP3    H274000   4.735   3.303  16.477 -0.0632  0.0105  1.1987
17529TIP3   OH274001   3.794   1.787  14.110 -0.0052 -0.2721  0.4005
17529TIP3    H174002   3.823   1.713  14.057  0.8042 -1.1842  2.0304
17529TIP3    H274003   3.875   1.828  14.141 -0.3792 -1.1709  2.7564
17530TIP3   OH274004   0.764   2.175  17.109 -0.2519 -0.9165  0.0437
17530TIP3    H174005   0.745   2.152  17.018 -0.9462 -1.6035  0.3481
17530TIP3    H274006   0.844   2.126  17.130 -1.4263 -2.7697  0.5217
17531TIP3   OH274007   3.782   1.402  16.183  0.3336 -0.2413 -0.2378
17531TIP3    H174008   3.737   1.426  16.263 -0.3335 -2.2231  0.0292
17531TIP3    H274009   3.768   1.476  16.124 -0.1154  0.7532  1.0815
17532TIP3   OH274010   6.769   6.091  16.427 -0.2560  0.0757  0.2532
17532TIP3    H174011   6.810   6.177  16.440  0.8908 -0.4579  0.2638
17532TIP3    H274012   6.838   6.028  16.451 -0.9665 -0.8497 -0.1062
17533TIP3   OH274013   1.018   3.831   6.311  0.9862 -0.3132  0.2110
17533TIP3    H174014   1.016   3.796   6.222 -1.7951 -3.8250  1.3774
17533TIP3    H274015   1.070   3.767   6.360 -0.3631 -0.3661  1.6447
17534TIP3   OH274016   6.217   6.633   0.993 -1.2287  0.4116  0.5529
17534TIP3    H174017   6.151   6.583   0.944 -1.4648  0.2122  1.0682
17534TIP3    H274018   6.300   6.611   0.950 -1.1735 -1.3221  1.4426
17535TIP3   OH274019   5.526   3.712   0.637  0.0913 -0.2621  0.1503
17535TIP3    H174020   5.450   3.668   0.597  1.4458 -2.8150  0.1894
17535TIP3    H274021   5.583   3.734   0.563 -0.3123  1.0129  0.1856
17536TIP3   OH274022   6.178   4.731   4.024 -0.1368  0.3026  0.7102
17536TIP3    H174023   6.219   4.799   4.076  0.4074  1.4246 -1.0973
17536TIP3    H274024   6.219   4.739   3.937  0.9314 -3.1538  0.7132
17537TIP3   OH274025   3.200   4.852  15.086  0.1797  0.2458 -0.0841
17537TIP3    H174026   3.142   4.816  15.153  0.1224  1.5729  0.6181
17537TIP3    H274027   3.143   4.906  15.031  0.6586  1.2568  0.3846
17538TIP3   OH274028   3.799   3.692  11.227 -0.2491  0.3972  0.0338
17538TIP3    H174029   3.866   3.625  11.214  0.0441  0.5556  0.6502
17538TIP3    H274030   3.732   3.672  11.163  0.3020  0.1133 -0.4634
17539TIP3   OH274031   2.243   0.908  12.588 -0.3676 -0.4404  0.0793
17539TIP3    H174032   2.310   0.872  12.646 -0.9915 -1.2580  0.3194
17539TIP3    H274033   2.160   0.887  12.632 -1.1769 -4.6239 -2.8353
17540TIP3   OH274034   2.162   5.092  10.697  0.2990  0.3784  0.6267
17540TIP3    H174035   2.195   5.068  10.610 -3.2888 -1.9927 -0.2831
17540TIP3    H274036   2.211   5.036  10.758  0.5218 -0.3924 -0.2376
17541TIP3   OH274037   5.900   4.008  14.519 -0.2097  0.2397 -0.4115
17541TIP3    H174038   5.817   4.055  14.513 -1.8201 -2.5140 -1.2480
17541TIP3    H274039   5.919   4.004  14.613 -1.0932  0.7518 -0.2043
17542TIP3   OH274040   1.256   3.250   4.195 -0.8033 -0.3060 -0.7298
17542TIP3    H174041   1.295   3.229   4.280 -0.4278 -0.6394 -0.9808
17542TIP3    H274042   1.202   3.174   4.174  0.2585 -0.8809 -1.4601
17543TIP3   OH274043   4.666   5.510   0.898 -0.4066  0.3635  0.9324
17543TIP3    H174044   4.708   5.437   0.943  1.9190  0.7156 -0.4878
17543TIP3    H274045   4.640   5.570   0.968  0.4506 -0.4210  1.9646
17544TIP3   OH274046   6.017   3.506   1.749 -0.0856 -0.3748 -0.5494
17544TIP3    H174047   6.105   3.490   1.783 -1.2226 -2.3179  1.8037
17544TIP3    H274048   5.970   3.547   1.821 -1.2854  0.1716 -1.5883
17545TIP3   OH274049   4.493   0.902  12.419 -0.2887  0.2986  0.1127
17545TIP3    H174050   4.411   0.882  12.375  0.7999  0.2643 -2.0459
17545TIP3    H274051   4.510   0.994  12.398  0.1197  0.3738  0.7332
17546TIP3   OH274052   2.524   1.152  13.502 -0.2544 -0.6009 -0.1983
17546TIP3    H174053   2.491   1.164  13.413  0.4463 -0.3489 -0.4327
17546TIP3    H274054   2.590   1.220  13.512 -1.0817  0.0579  0.8994
17547TIP3   OH274055   3.017   5.000  15.455 -0.1261 -0.1371  0.0251
17547TIP3    H174056   2.949   5.025  15.518 -0.3007 -1.5040  0.4201
17547TIP3    H274057   3.048   4.915  15.486 -0.6744 -1.1877 -2.0794
17548TIP3   OH274058   3.616   0.716   1.241  0.4828  0.6673  0.4825
17548TIP3    H174059   3.653   0.803   1.255  0.7162  0.7848 -0.7486
17548TIP3    H274060   3.682   0.670   1.190 -0.7656  0.6885 -1.2450
17549TIP3   OH274061   0.990   0.105  11.640  0.0780 -0.2032  0.5976
17549TIP3    H174062   1.035   0.182  11.606 -1.8038  1.2259  1.1572
17549TIP3    H274063   0.985   0.045  11.565 -0.1333  1.0405 -0.4177
17550TIP3   OH274064   3.852   4.957   5.108  0.5102 -0.6906 -0.4775
17550TIP3    H174065   3.918   4.976   5.174 -0.7321 -0.0585  0.6177
17550TIP3    H274066   3.848   4.861   5.105 -1.1421 -0.7998  2.2056
17551TIP3   OH274067   2.594   1.976   0.445  0.4757 -0.3422 -0.1429
17551TIP3    H174068   2.663   1.952   0.507 -0.6541  0.4618  1.4970
17551TIP3    H274069   2.519   2.000   0.500 -0.3580  1.0856 -1.7950
17552TIP3   OH274070   4.201   0.879   1.789  0.3638 -0.4955  0.1957
17552TIP3    H174071   4.110   0.852   1.773 -0.0114  0.5943  0.4476
17552TIP3    H274072   4.209   0.964   1.747  1.3525 -0.6773 -0.0231
17553TIP3   OH274073   5.535   6.152  13.093 -0.3688 -0.1227  0.0446
17553TIP3    H174074   5.609   6.179  13.038 -0.1364 -0.6521  0.0939
17553TIP3    H274075   5.574   6.094  13.159 -0.8925 -0.7212 -0.1688
17554TIP3   OH274076   1.587   6.152   6.609  0.6203 -0.2234 -0.0153
17554TIP3    H174077   1.506   6.156   6.661  1.0799 -1.3306  0.8343
17554TIP3    H274078   1.616   6.061   6.618  0.8563 -0.3864 -2.0333
17555TIP3   OH274079   2.733   2.388   3.232 -0.2158 -0.0480  0.3397
17555TIP3    H174080   2.767   2.456   3.174 -1.0087 -0.5382 -0.7364
17555TIP3    H274081   2.704   2.318   3.173  1.8265 -1.9769  1.4261
17556TIP3   OH274082   1.066   2.285   1.646  0.6108  0.8177  0.1698
17556TIP3    H174083   1.009   2.282   1.722  0.9959 -0.1358  0.4346
17556TIP3    H274084   1.020   2.234   1.579  1.0914  0.1303  0.3525
17557TIP3   OH274085   4.427   6.006   0.906 -1.0046 -0.3229  0.3654
17557TIP3    H174086   4.415   5.917   0.941 -1.7998  0.1908  1.4825
17557TIP3    H274087   4.337   6.037   0.891 -0.7196  0.1694 -0.3629
17558TIP3   OH274088   2.292   3.208   3.024  0.0704  0.2709  0.0627
17558TIP3    H174089   2.197   3.197   3.024 -0.0255  1.1076  0.0115
17558TIP3    H274090   2.312   3.246   2.938  0.4287  0.3591  0.1837
17559TIP3   OH274091   1.401   2.848   5.686 -0.0513 -0.1661  0.3130
17559TIP3    H174092   1.460   2.887   5.621 -0.7145  1.1402  0.4639
17559TIP3    H274093   1.447   2.857   5.769  0.1531 -0.4628  0.2324
17560TIP3   OH274094   6.006   5.103  16.146 -0.0023 -0.4170 -0.1522
17560TIP3    H174095   5.936   5.097  16.081  0.9785  0.4164 -1.3527
17560TIP3    H274096   6.085   5.076  16.098  0.6408 -0.3979  0.8775
17561TIP3   OH274097   4.884   3.777  16.708 -0.1053 -0.2067 -0.1066
17561TIP3    H174098   4.890   3.736  16.794 -1.2823  0.3936  0.2895
17561TIP3    H274099   4.827   3.718  16.658 -1.7079  0.8243  0.4287
17562TIP3   OH274100   3.952   5.230  12.405 -0.0590  0.2229  0.3450
17562TIP3    H174101   3.940   5.147  12.451 -0.3723 -0.0896 -0.2839
17562TIP3    H274102   3.983   5.205  12.318 -2.3812  0.5875 -0.6758
17563TIP3   OH274103   0.524   2.985  16.381 -0.3934  0.0210  0.5539
17563TIP3    H174104   0.555   2.958  16.294 -0.5557  0.4715  0.3528
17563TIP3    H274105   0.592   2.955  16.441 -0.8251 -1.3260  0.4051
17564TIP3   OH274106   3.295   4.922  13.790 -0.4879  0.0541  0.1748
17564TIP3    H174107   3.201   4.932  13.807 -0.9536 -0.0944 -2.0422
17564TIP3    H274108   3.323   4.855  13.851 -2.1291 -0.8401  0.0039
17565TIP3   OH274109   4.569   4.864  11.233 -0.4562  0.1054 -0.0668
17565TIP3    H174110   4.660   4.890  11.246 -0.0110 -1.4595  0.2292
17565TIP3    H274111   4.557   4.865  11.138 -0.5550  1.5893 -0.0585
17566TIP3   OH274112   3.833   1.793   5.378  0.3551 -0.4288  0.1464
17566TIP3    H174113   3.899   1.735   5.417 -0.8350 -0.6517  1.9414
17566TIP3    H274114   3.883   1.866   5.343  1.7592 -1.7452 -0.7323
17567TIP3   OH274115   4.942   1.029  15.983 -0.1912  0.4290 -0.2490
17567TIP3    H174116   4.846   1.022  15.977 -0.5420 -0.9459  3.6081
17567TIP3    H274117   4.960   1.121  15.964 -2.3413  0.8102 -0.7389
17568TIP3   OH274118   1.841   5.392  11.797  0.1993  0.0748 -0.5482
17568TIP3    H174119   1.790   5.315  11.775 -0.5641  0.4300 -0.0685
17568TIP3    H274120   1.801   5.462  11.745 -0.0556  0.4297  0.1163
17569TIP3   OH274121   0.584   1.921   2.674  0.7026 -0.3798 -0.0953
17569TIP3    H174122   0.549   1.837   2.705  0.2576  0.6675  2.4674
17569TIP3    H274123   0.671   1.926   2.713  0.6917  0.4041 -0.1680
17570TIP3   OH274124   2.778   5.557  14.999 -0.0329 -0.6648 -0.3693
17570TIP3    H174125   2.731   5.537  14.918 -0.3564  0.0462 -0.3621
17570TIP3    H274126   2.745   5.643  15.026  1.5693  0.0517 -0.5881
17571TIP3   OH274127   4.837   2.122   1.517 -0.4506 -0.3327  0.1549
17571TIP3    H174128   4.837   2.068   1.438 -1.3417  1.9519 -1.5103
17571TIP3    H274129   4.899   2.192   1.498  0.5756 -0.6344  2.1960
17572TIP3   OH274130   3.998   6.712   4.617 -0.1603 -0.5872 -0.3340
17572TIP3    H174131   3.922   6.768   4.634 -0.1499 -0.8345  0.5769
17572TIP3    H274132   4.000   6.651   4.690 -0.2605 -1.9061 -1.4078
17573TIP3   OH274133   3.911   2.221  16.277  0.5858  0.4619 -0.4028
17573TIP3    H174134   3.945   2.291  16.332 -0.7408  2.3323 -1.8099
17573TIP3    H274135   3.816   2.232  16.281  0.3533 -1.1309 -0.8602
17574TIP3   OH274136   0.352   2.215   3.365 -0.0634  0.1990 -0.5418
17574TIP3    H174137   0.279   2.158   3.340 -0.4704  0.6685 -0.4480
17574TIP3    H274138   0.389   2.173   3.442 -0.2014 -0.0746 -0.6219
17575TIP3   OH274139   3.325   6.770   1.687 -0.1623 -0.2222  0.3118
17575TIP3    H174140   3.293   6.680   1.679  0.3833 -0.3087 -1.1759
17575TIP3    H274141   3.390   6.779   1.617  2.9715  0.0016  2.9716
17576TIP3   OH274142   4.277   3.119  15.265 -0.1125 -0.2447  1.0479
17576TIP3    H174143   4.196   3.105  15.315 -0.9205  1.1531  0.1993
17576TIP3    H274144   4.261   3.200  15.217  1.1645 -0.8457 -0.4485
17577TIP3   OH274145   3.752   3.682  11.519  0.4636 -0.0682  0.1349
17577TIP3    H174146   3.754   3.689  11.424  1.5686 -1.4445  0.0266
17577TIP3    H274147   3.669   3.722  11.545 -0.5457 -1.0435 -1.5223
17578TIP3   OH274148   4.878   4.494   0.531 -0.1320  0.1867  0.1376
17578TIP3    H174149   4.888   4.504   0.436 -3.3560  2.2076 -0.1610
17578TIP3    H274150   4.934   4.563   0.568  0.9915 -0.4861 -0.2550
17579TIP3   OH274151   0.749   6.638   4.646 -0.0584  0.0828 -0.4208
17579TIP3    H174152   0.802   6.654   4.568  0.1759 -1.7611 -0.6850
17579TIP3    H274153   0.663   6.674   4.624  0.7607  2.1925 -0.3737
17580TIP3   OH274154   1.603   2.034  16.955  0.1550 -0.2340 -0.2373
17580TIP3    H174155   1.687   2.077  16.972  1.0317 -1.7373 -0.5252
17580TIP3    H274156   1.538   2.095  16.987  1.3042  1.4455 -0.9565
17581TIP3   OH274157   1.153   3.381  12.926  0.4495 -0.4879  0.3586
17581TIP3    H174158   1.086   3.367  12.860  1.0222 -0.7917 -0.1770
17581TIP3    H274159   1.192   3.466  12.904  0.8695 -0.7472  0.0989
17582TIP3   OH274160   0.255   5.914  16.450  0.0563  0.1625  0.2109
17582TIP3    H174161   0.235   5.944  16.538  0.6028 -0.9187  0.7275
17582TIP3    H274162   0.325   5.971  16.420 -1.5230  1.8892 -0.3644
17583TIP3   OH274163   2.675   3.334   4.194  0.2308  0.7993 -0.1249
17583TIP3    H174164   2.587   3.367   4.215 -0.6016  0.4924 -2.7000
17583TIP3    H274165   2.735   3.397   4.233 -1.2142  2.2363 -0.1414
17584TIP3   OH274166   0.450   5.072   0.409 -0.6962 -0.3185 -0.2970
17584TIP3    H174167   0.517   5.124   0.453 -0.8500 -0.2719 -0.1141
17584TIP3    H274168   0.455   5.098   0.317  0.1601 -0.9890 -0.4475
17585TIP3   OH274169   3.497   0.946  16.180 -0.2522  0.0550  0.1904
17585TIP3    H174170   3.528   1.001  16.252 -0.4174  0.8722 -0.3474
17585TIP3    H274171   3.540   0.862  16.194  0.7332  0.5974  0.5119
17586TIP3   OH274172   0.180   4.930  15.914 -0.7876  0.1712  0.8653
17586TIP3    H174173   0.209   5.009  15.959 -1.8086  1.4023 -0.5196
17586TIP3    H274174   0.134   4.962  15.837 -2.4383 -1.7451  0.9604
17587TIP3   OH274175   6.621   4.482  11.810  0.6619 -0.5163  0.2323
17587TIP3    H174176   6.683   4.501  11.881 -0.1686 -2.7039  1.6675
17587TIP3    H274177   6.661   4.408  11.763  1.0329  0.6848 -1.4343
17588TIP3   OH274178   2.105   2.146  12.749  0.3891 -0.0190 -0.4590
17588TIP3    H174179   2.089   2.055  12.773 -1.7262  0.6327  0.8854
17588TIP3    H274180   2.196   2.161  12.774  0.6101 -1.6148 -0.2082
17589TIP3   OH274181   4.684   5.846  15.352 -0.7725 -0.1174  0.4731
17589TIP3    H174182   4.658   5.847  15.260 -0.1236 -0.2919  0.2849
17589TIP3    H274183   4.760   5.903  15.356 -0.6188 -0.3443  0.8505
17590TIP3   OH274184   3.380   3.627  13.092  0.2209 -0.1807 -0.1926
17590TIP3    H174185   3.349   3.695  13.152 -1.9326 -1.2711  0.0543
17590TIP3    H274186   3.474   3.643  13.083  0.1523  1.5147  1.5134
17591TIP3   OH274187   6.664   1.020   5.964 -0.7147 -0.0971 -0.0342
17591TIP3    H174188   6.653   1.098   6.019 -1.6686  0.1438 -0.5488
17591TIP3    H274189   6.583   0.971   5.976  0.0917 -1.3078  0.7148
17592TIP3   OH274190   1.823   1.593  15.891  0.2921 -0.4578 -0.1860
17592TIP3    H174191   1.742   1.643  15.893  0.0888 -0.7296 -1.1827
17592TIP3    H274192   1.802   1.515  15.840  0.6938 -1.4019  1.0384
17593TIP3   OH274193   1.297   1.654  12.485 -0.0153  0.0650 -0.2536
17593TIP3    H174194   1.345   1.642  12.403 -0.0643  0.6793 -0.3810
17593TIP3    H274195   1.267   1.567  12.509  1.8266 -0.4929  0.2367
17594TIP3   OH274196   1.935   6.404  11.256  0.0025 -0.3048  0.1859
17594TIP3    H174197   2.025   6.421  11.284  0.0493 -0.5498  0.1916
17594TIP3    H274198   1.944   6.359  11.172 -0.1025 -0.6398  0.3510
17595TIP3   OH274199   1.315   0.553  17.270 -0.1818  0.0731 -0.3070
17595TIP3    H174200   1.338   0.467  17.236 -0.8234  1.1844 -3.8899
17595TIP3    H274201   1.384   0.611  17.238  0.0498  1.0314  1.7468
17596TIP3   OH274202   0.841   2.536  11.814 -0.0749 -0.0470  0.3198
17596TIP3    H174203   0.914   2.534  11.875 -0.3237  1.6675  0.7350
17596TIP3    H274204   0.880   2.556  11.729  0.0207  0.1247  0.4036
17597TIP3   OH274205   4.962   4.664  12.492  0.3279 -0.1626 -0.3151
17597TIP3    H174206   4.900   4.598  12.525  0.0812 -0.6260 -1.6247
17597TIP3    H274207   5.019   4.683  12.567 -0.3338 -1.0004  0.4283
17598TIP3   OH274208   0.901   0.155  14.632 -0.7210 -0.4355 -0.0822
17598TIP3    H174209   0.977   0.108  14.597 -0.2559  0.5550 -0.4523
17598TIP3    H274210   0.883   0.113  14.716  0.6291 -0.3051  0.2966
17599TIP3   OH274211   3.696   2.503   5.953 -0.2090  0.1576 -0.2562
17599TIP3    H174212   3.764   2.494   5.886 -0.8806 -0.5858 -0.8569
17599TIP3    H274213   3.745   2.507   6.036  0.5523 -1.7512 -0.5595
17600TIP3   OH274214   2.264   1.600   2.504  0.3745 -0.1977  0.9549
17600TIP3    H174215   2.282   1.587   2.411  0.7377  0.6110  0.9004
17600TIP3    H274216   2.348   1.582   2.547  0.3831  0.0787  1.0559
17601TIP3   OH274217   0.680   4.400  10.456  0.0402  0.4184 -0.6883
17601TIP3    H174218   0.676   4.381  10.362  0.9969 -1.9585 -0.3237
17601TIP3    H274219   0.599   4.365  10.491  0.2416  0.1502 -0.4804
17602TIP3   OH274220   1.298   3.394  14.188  0.1585 -0.4616 -0.2273
17602TIP3    H174221   1.244   3.446  14.248  0.3151 -1.8180  1.1646
17602TIP3    H274222   1.368   3.359  14.243  0.8162 -1.0520 -1.3981
17603TIP3   OH274223   0.122   5.259  11.549  0.1924 -0.0202 -0.0455
17603TIP3    H174224   0.103   5.213  11.631 -0.7706  2.1910  1.0349
17603TIP3    H274225   0.213   5.234  11.529  0.7050 -0.0825  2.0764
17604TIP3   OH274226   1.869   2.648   4.470 -0.2652 -0.1048 -0.2184
17604TIP3    H174227   1.850   2.593   4.394  0.8984 -1.0741  0.1455
17604TIP3    H274228   1.841   2.595   4.545  2.0169 -0.8156  0.2150
17605TIP3   OH274229   2.864   5.069   3.361 -0.5960 -0.0943 -0.1327
17605TIP3    H174230   2.852   5.073   3.267 -1.8775 -3.7729 -0.2894
17605TIP3    H274231   2.776   5.065   3.397 -0.2297  3.4558  1.5483
17606TIP3   OH274232   3.258   2.801   1.823 -0.0864 -0.2592 -0.2768
17606TIP3    H174233   3.326   2.753   1.870 -0.7356 -1.0893 -0.1553
17606TIP3    H274234   3.203   2.733   1.784 -1.7274  0.3254  0.8841
17607TIP3   OH274235   4.363   4.486   0.533 -0.0751 -0.0234  0.0010
17607TIP3    H174236   4.457   4.471   0.542 -0.0574 -0.3217 -0.5856
17607TIP3    H274237   4.350   4.578   0.554  0.0126 -0.5015  2.3961
17608TIP3   OH274238   3.408   0.821  12.449 -0.0259 -0.2371 -0.1380
17608TIP3    H174239   3.316   0.806  12.428 -0.3804  1.0873  0.3070
17608TIP3    H274240   3.415   0.917  12.458  1.5909 -0.2368 -1.0308
17609TIP3   OH274241   5.558   4.344   0.303 -0.2478 -0.0110  0.4865
17609TIP3    H174242   5.486   4.330   0.241 -0.2986  2.1388 -0.0252
17609TIP3    H274243   5.519   4.334   0.389  0.0141 -4.0090  0.3328
17610TIP3   OH274244   4.746   4.330   0.011 -0.3167  0.0223  0.0669
17610TIP3    H174245   4.838   4.343  -0.011  0.1552  0.7142  2.1528
17610TIP3    H274246   4.748   4.279   0.092 -1.8344 -1.0249 -0.5197
17611TIP3   OH274247   0.320   1.070  13.524  0.6098  0.2947  0.0039
17611TIP3    H174248   0.297   1.159  13.500 -0.8935  0.0020  0.2873
17611TIP3    H274249   0.315   1.068  13.619  1.0060  0.0066  0.0210
17612TIP3   OH274250   2.903   4.827  16.950 -0.4051 -0.8173  0.2724
17612TIP3    H174251   2.844   4.892  16.912  0.5396  0.2192  0.5105
17612TIP3    H274252   2.981   4.831  16.893  2.1441  2.6011  3.4769
17613TIP3   OH274253   2.838   4.433   1.971  0.0998 -0.3541 -0.2635
17613TIP3    H174254   2.807   4.404   1.885  0.8973 -0.1830 -0.6194
17613TIP3    H274255   2.862   4.352   2.016 -1.1099 -0.5205  0.1401
17614TIP3   OH274256   2.550   2.066  16.144 -0.3264  0.4604  0.1490
17614TIP3    H174257   2.553   2.110  16.229 -0.3024  0.8783 -0.0669
17614TIP3    H274258   2.624   2.101  16.096 -0.2700  0.1351 -0.0032
17615TIP3   OH274259   1.963   5.836   3.633 -0.0388 -0.0245  0.3287
17615TIP3    H174260   1.895   5.773   3.609 -0.1638  0.3105 -0.2120
17615TIP3    H274261   1.956   5.905   3.567  0.0455  0.5934  0.9510
17616TIP3   OH274262   2.056   1.293   2.740 -0.3335  0.2936 -0.0725
17616TIP3    H174263   2.134   1.317   2.789  0.7136 -0.0086 -1.5201
17616TIP3    H274264   2.066   1.199   2.724 -1.4723  0.0566  0.5257
17617TIP3   OH274265   0.213   5.758  16.230  0.1758 -0.0236  0.3530
17617TIP3    H174266   0.296   5.760  16.183  0.4521  1.3332  0.8703
17617TIP3    H274267   0.234   5.790  16.317 -1.0019  1.0126  0.2805
17618TIP3   OH274268   6.692   5.439   1.962  0.5157 -0.2997 -0.2617
17618TIP3    H174269   6.721   5.502   1.896  1.5325 -1.4510 -0.9722
17618TIP3    H274270   6.682   5.490   2.042  0.3437  0.9263 -1.0484
17619TIP3   OH274271   2.693   2.281   4.063  0.1564  0.0698  0.6811
17619TIP3    H174272   2.757   2.352   4.061  0.0296  0.1850 -1.0522
17619TIP3    H274273   2.747   2.201   4.067  0.5117  0.1253 -1.7575
17620TIP3   OH274274   4.114   6.716  13.446 -0.0534 -0.1554 -0.1505
17620TIP3    H174275   4.187   6.659  13.470  0.6619  0.1756 -1.4434
17620TIP3    H274276   4.067   6.729  13.528  1.6122 -0.0032  0.8461
17621TIP3   OH274277   1.802   2.268   2.695  0.4667  0.7460  0.4540
17621TIP3    H174278   1.772   2.359   2.689 -0.6197  0.6060  2.6800
17621TIP3    H274279   1.896   2.273   2.684  0.2047  1.7821 -2.0789
17622TIP3   OH274280   3.842   2.282   6.306 -0.0924 -0.4583 -0.2112
17622TIP3    H174281   3.920   2.239   6.341 -0.3321 -0.7003  0.0358
17622TIP3    H274282   3.854   2.283   6.211  0.5306  0.1314 -0.1370
17623TIP3   OH274283   2.387   5.297   2.373  0.1957  0.5208  0.4238
17623TIP3    H174284   2.414   5.382   2.408  0.5699  1.3800 -1.7901
17623TIP3    H274285   2.470   5.254   2.349  0.0960 -0.9877  2.4749
17624TIP3   OH274286   2.651   6.752   2.425 -0.8564  0.4515  0.1407
17624TIP3    H174287   2.671   6.758   2.332 -0.3319 -1.2297  0.1164
17624TIP3    H274288   2.731   6.782   2.468 -0.7991  0.4456  0.0397
17625TIP3   OH274289   2.292   2.254  12.047 -0.2570 -0.1999 -0.4774
17625TIP3    H174290   2.350   2.286  12.116 -0.8072  0.7787 -0.4544
17625TIP3    H274291   2.322   2.297  11.968 -0.6121 -0.0990 -0.5605
17626TIP3   OH274292   0.080   5.251   1.628  0.2594  0.3494 -0.4152
17626TIP3    H174293   0.123   5.167   1.613 -2.2985 -1.3544  0.9441
17626TIP3    H274294   0.036   5.271   1.546 -2.3347 -1.7712  0.3323
17627TIP3   OH274295   1.347   4.439   1.865 -0.1289  0.1395 -0.2152
17627TIP3    H174296   1.401   4.364   1.839 -1.1731 -0.3181 -1.1262
17627TIP3    H274297   1.257   4.413   1.843 -0.5529  1.5237 -0.2204
17628TIP3   OH274298   0.920   6.525  16.290  0.3287  0.1322  0.1565
17628TIP3    H174299   0.949   6.550  16.202 -1.0516  2.3385  0.2437
17628TIP3    H274300   0.950   6.596  16.347 -2.7173  1.1923  0.6464
17629TIP3   OH274301   1.201   2.687   4.041 -0.6788 -0.5256 -0.0781
17629TIP3    H174302   1.225   2.765   3.991  0.6343  0.5289  2.0203
17629TIP3    H274303   1.180   2.621   3.975  1.4283  0.6024 -2.0382
17630TIP3   OH274304   5.845   0.989   0.135  0.2870 -0.2115 -0.1131
17630TIP3    H174305   5.885   0.912   0.093 -0.0686  0.7719 -2.4371
17630TIP3    H274306   5.910   1.059   0.122 -0.4823  0.4696 -0.3680
17631TIP3   OH274307   3.640   6.071   4.395 -0.3441  0.4028 -0.1486
17631TIP3    H174308   3.564   6.020   4.422 -0.9658  1.2747 -0.2150
17631TIP3    H274309   3.633   6.077   4.300 -0.6344  1.1624 -0.0818
17632TIP3   OH274310   0.173   0.537   3.643  0.0365 -0.4192 -0.3964
17632TIP3    H174311   0.186   0.626   3.609  0.5507 -0.4138 -0.1981
17632TIP3    H274312   0.184   0.481   3.566  2.5935 -0.5072 -0.0482
17633TIP3   OH274313   5.521   6.763   5.504 -0.1745 -0.1449  0.0431
17633TIP3    H174314   5.486   6.844   5.541 -1.7485 -0.5486 -0.4896
17633TIP3    H274315   5.560   6.716   5.578 -0.0968  0.6579  0.5155
17634TIP3   OH274316   1.127   6.016   2.656  0.0631 -0.3724 -0.0993
17634TIP3    H174317   1.223   6.013   2.660  0.0301 -0.4423  0.7515
17634TIP3    H274318   1.105   6.107   2.674  0.0609  0.3060 -3.0315
17635TIP3   OH274319   5.221   2.460   1.147 -0.1909 -0.1038 -0.0358
17635TIP3    H174320   5.255   2.373   1.126  1.0078  0.1994  0.5218
17635TIP3    H274321   5.291   2.500   1.199 -0.5424  1.3520 -0.6469
17636TIP3   OH274322   6.579   2.938  12.642 -0.5706 -0.2576  0.4050
17636TIP3    H174323   6.598   3.002  12.574 -2.1420 -0.0399  0.1253
17636TIP3    H274324   6.526   2.871  12.597  1.1388 -1.8496  0.6508
17637TIP3   OH274325   3.282   3.083  16.829  0.0362 -0.4217  0.3663
17637TIP3    H174326   3.295   3.145  16.901  0.7907  1.7963 -1.5547
17637TIP3    H274327   3.198   3.108  16.791  1.7134  1.7593 -2.3758
17638TIP3   OH274328   5.892   4.439  15.236  0.0551 -0.0091 -0.0850
17638TIP3    H174329   5.941   4.415  15.314 -0.5586  0.8962  0.5974
17638TIP3    H274330   5.931   4.386  15.166  1.6718  0.3456  0.5160
17639TIP3   OH274331   6.442   2.230  14.262  0.0399  0.3582  0.1604
17639TIP3    H174332   6.473   2.166  14.326 -1.2978  1.5703  2.1452
17639TIP3    H274333   6.371   2.186  14.216  2.1413 -1.1462 -1.8487
17640TIP3   OH274334   0.450   1.839   3.931 -0.5125 -0.2252  0.1756
17640TIP3    H174335   0.487   1.920   3.898 -0.0069 -0.7118 -0.4726
17640TIP3    H274336   0.525   1.788   3.960 -0.6219 -1.2943 -1.3189
17641TIP3   OH274337   5.170   1.968   2.244 -0.6160  0.0673 -0.3760
17641TIP3    H174338   5.123   1.902   2.193 -0.9283 -0.2963  0.3542
17641TIP3    H274339   5.139   2.051   2.209  0.0827 -0.1606 -1.5806
17642TIP3   OH274340   5.243   3.236  11.796 -0.2909  0.3978 -0.0081
17642TIP3    H174341   5.315   3.191  11.840 -1.0719 -0.3857  0.4946
17642TIP3    H274342   5.238   3.322  11.839  1.1875  1.0024 -0.9582
17643TIP3   OH274343   5.991   2.236   2.549  0.1610 -0.2167  0.7228
17643TIP3    H174344   5.908   2.236   2.598  0.3187  2.2940  1.1249
17643TIP3    H274345   6.058   2.218   2.616  0.0768 -0.6768  0.6874
17644TIP3   OH274346   6.152   4.263  12.601 -0.2380  0.0510 -0.6846
17644TIP3    H174347   6.187   4.346  12.633  0.7686 -1.2441  1.8179
17644TIP3    H274348   6.060   4.264  12.625  0.3530 -0.6089  1.8620
17645TIP3   OH274349   6.269   2.114   2.704  0.2428  0.0938 -1.5687
17645TIP3    H174350   6.191   2.106   2.759  1.4573  0.3046  0.2754
17645TIP3    H274351   6.338   2.070   2.754  2.0044  2.5848 -1.6269
17646TIP3   OH274352   4.278   1.323  12.864  0.0714  0.0238  0.0187
17646TIP3    H174353   4.250   1.275  12.942  0.3331 -1.7891 -0.9492
17646TIP3    H274354   4.298   1.410  12.896 -0.4220 -0.4933  1.8707
17647TIP3   OH274355   1.625   5.498   5.068 -0.3294  0.0638 -0.2445
17647TIP3    H174356   1.624   5.459   5.155  0.2831  1.9831  0.6727
17647TIP3    H274357   1.543   5.470   5.028 -0.7338 -0.6418  1.0306
17648TIP3   OH274358   4.889   6.641   6.062 -0.2550 -0.0093  0.2069
17648TIP3    H174359   4.941   6.690   6.126  0.9636  0.0642 -0.8029
17648TIP3    H274360   4.952   6.585   6.019 -0.8206  0.7825 -1.7449
17649TIP3   OH274361   3.221   2.118   6.463 -0.0692 -0.2445 -0.2539
17649TIP3    H174362   3.208   2.036   6.511  1.8962 -0.2397  0.3914
17649TIP3    H274363   3.145   2.125   6.406 -0.3106 -2.5229 -0.3165
17650TIP3   OH274364   4.541   5.362   3.732 -0.2903  0.4490 -0.2222
17650TIP3    H174365   4.630   5.341   3.706 -1.0096  0.2508 -2.7217
17650TIP3    H274366   4.525   5.308   3.810  1.0208 -1.2040 -1.0452
17651TIP3   OH274367   3.146   2.934  11.526 -0.0321  0.5224  0.1525
17651TIP3    H174368   3.070   2.899  11.571  0.6281 -1.9452 -0.4861
17651TIP3    H274369   3.207   2.957  11.596  0.3298 -1.6965  0.6247
17652TIP3   OH274370   6.233   4.656   3.279 -0.3424  0.1133  0.1479
17652TIP3    H174371   6.218   4.689   3.191 -1.0801 -1.0179 -0.1695
17652TIP3    H274372   6.262   4.732   3.329  1.0074  0.5865 -1.2855
17653TIP3   OH274373   0.387   1.322  12.231  0.2794 -0.2694  0.1528
17653TIP3    H174374   0.403   1.332  12.137 -3.1209 -3.2563 -0.9660
17653TIP3    H274375   0.316   1.383  12.250 -0.0674 -0.7382  0.3865
17654TIP3   OH274376   3.486   0.663   1.969 -0.5507 -0.2832 -0.2056
17654TIP3    H174377   3.533   0.730   1.920 -1.1618  0.3796  0.0979
17654TIP3    H274378   3.543   0.643   2.043 -0.3603 -0.1129 -0.3051
17655TIP3   OH274379   2.954   6.687  12.944 -0.3059 -0.0693 -0.4514
17655TIP3    H174380   2.967   6.599  12.908  1.9144 -0.0050  0.0444
17655TIP3    H274381   2.964   6.745  12.869 -0.4611 -0.1641 -0.5467
17656TIP3   OH274382   4.311   2.947  12.877  0.3032  0.1283  0.0703
17656TIP3    H174383   4.270   2.884  12.817  1.0663  0.1018 -0.4349
17656TIP3    H274384   4.366   2.893  12.934  1.9256  0.4064 -1.1487
17657TIP3   OH274385   0.470   1.470   1.146  0.0847  0.2668 -0.0110
17657TIP3    H174386   0.376   1.461   1.155  0.3001 -0.7892  1.6007
17657TIP3    H274387   0.495   1.533   1.214  0.4042  1.8155 -1.4672
17658TIP3   OH274388   2.494   1.907  15.062  0.3992  0.6090  0.2273
17658TIP3    H174389   2.425   1.927  14.998  1.1123 -1.8216 -1.4584
17658TIP3    H274390   2.575   1.911  15.011  1.0411 -0.9872  1.0492
17659TIP3   OH274391   0.330   6.484  17.244  0.1443 -0.8103  0.1209
17659TIP3    H174392   0.405   6.493  17.185  0.6834 -0.1886  0.8820
17659TIP3    H274393   0.270   6.426  17.197  1.2001 -1.5160 -0.4126
17660TIP3   OH274394   4.511   6.189  13.818 -0.0717  0.3894 -0.0653
17660TIP3    H174395   4.554   6.224  13.740  1.4042 -2.7385 -0.8398
17660TIP3    H274396   4.417   6.189  13.796  0.1056  1.6760 -0.8864
17661TIP3   OH274397   2.363   4.294   0.329  0.0204 -0.0012 -0.3771
17661TIP3    H174398   2.322   4.216   0.291  0.6077 -0.5527  0.1073
17661TIP3    H274399   2.429   4.320   0.264  1.3643 -1.2319  0.4256
17662TIP3   OH274400   2.072   4.229  14.207 -0.1690 -0.2436  0.5985
17662TIP3    H174401   2.113   4.217  14.121  1.1645 -1.7493  1.3838
17662TIP3    H274402   2.091   4.319  14.230 -1.6425  0.6003 -1.1862
17663TIP3   OH274403   4.353   4.578   4.785  0.2648  0.1856 -0.2108
17663TIP3    H174404   4.320   4.593   4.697 -3.1578 -1.6662  0.5777
17663TIP3    H274405   4.438   4.535   4.772  0.1170  0.4958 -2.5607
17664TIP3   OH274406   2.735   1.313   4.622  0.4707 -0.5119  0.4770
17664TIP3    H174407   2.685   1.279   4.695 -0.0476  0.2569  0.4942
17664TIP3    H274408   2.751   1.237   4.565 -1.1178 -0.6956  0.2325
17665TIP3   OH274409   4.320   4.180   4.252 -0.0688 -0.0462  0.2314
17665TIP3    H174410   4.228   4.153   4.243 -0.6471  1.7419  0.5189
17665TIP3    H274411   4.328   4.204   4.344  0.3593  0.9755 -0.0688
17666TIP3   OH274412   0.550   5.908  17.205  0.4165 -0.2413  0.1375
17666TIP3    H174413   0.456   5.921  17.198 -0.1466 -3.3643  0.5815
17666TIP3    H274414   0.581   5.904  17.114 -0.3992 -1.8931 -0.1134
17667TIP3   OH274415   4.443   5.875  15.878  0.3567 -0.4244 -0.0987
17667TIP3    H174416   4.429   5.947  15.817  1.0387  1.1946  1.5722
17667TIP3    H274417   4.403   5.904  15.960  0.5678 -1.9939  0.6032
17668TIP3   OH274418   1.114   4.647   1.437 -0.2226 -0.6165 -0.3462
17668TIP3    H174419   1.032   4.600   1.427 -1.2868  0.7241  1.3498
17668TIP3    H274420   1.119   4.666   1.531  2.9970 -2.2773 -0.0508
17669TIP3   OH274421   0.478   3.609  14.951 -0.1785  0.0624 -0.4647
17669TIP3    H174422   0.503   3.572  15.035 -0.6528 -1.7857 -1.0969
17669TIP3    H274423   0.409   3.673  14.972 -1.4894 -1.5834  0.4284
17670TIP3   OH274424   0.442   6.035   3.867 -0.0585 -0.3562 -0.6213
17670TIP3    H174425   0.453   6.131   3.865  0.7943 -0.4416 -0.6811
17670TIP3    H274426   0.417   6.016   3.957 -0.5151 -0.0506 -0.6797
17671TIP3   OH274427   2.132   2.156  15.218 -0.6139 -0.1384 -0.4781
17671TIP3    H174428   2.098   2.189  15.134 -2.4173 -1.1408 -0.1763
17671TIP3    H274429   2.098   2.067  15.225  1.3170 -0.8756  0.3367
17672TIP3   OH274430   2.766   5.055  10.894  0.6845 -0.4186 -0.4391
17672TIP3    H174431   2.801   5.076  10.808  1.6682 -0.8164 -0.1496
17672TIP3    H274432   2.672   5.047  10.880  0.8333 -0.4994 -1.4841
17673TIP3   OH274433   0.251   4.281   1.998 -0.0896 -0.1990  0.2730
17673TIP3    H174434   0.213   4.194   2.012 -1.3004  0.0185 -1.3007
17673TIP3    H274435   0.345   4.266   1.991 -0.3554 -1.5712 -0.9909
17674TIP3   OH274436   6.196   4.392  13.257  0.2905 -0.0267 -0.7204
17674TIP3    H174437   6.149   4.403  13.174 -1.7986  1.1488  0.5425
17674TIP3    H274438   6.229   4.480  13.278 -0.8992  0.1485  0.5990
17675TIP3   OH274439   3.045   1.591   0.047  0.4462  0.7398  0.1705
17675TIP3    H174440   3.069   1.684   0.054 -3.2228  1.8142  0.4975
17675TIP3    H274441   2.976   1.579   0.112  0.2894 -2.0680 -0.3823
17676TIP3   OH274442   2.234   6.221   1.821 -0.3146 -0.4120  0.1317
17676TIP3    H174443   2.216   6.162   1.748  1.2010 -0.3663 -0.3243
17676TIP3    H274444   2.175   6.295   1.807 -2.4262 -1.8675  0.8590
17677TIP3   OH274445   2.418   1.104   3.090 -0.2994 -0.9395 -1.0103
17677TIP3    H174446   2.406   1.038   3.158  0.5779 -1.3502 -1.2427
17677TIP3    H274447   2.506   1.138   3.105 -0.0606 -1.1003 -1.9831
17678TIP3   OH274448   3.602   6.550   0.895 -0.2753 -0.5274  0.1641
17678TIP3    H174449   3.582   6.457   0.883  0.8047 -0.5246 -2.1115
17678TIP3    H274450   3.635   6.579   0.810 -0.5834  1.9589  0.8096
17679TIP3   OH274451   2.237   0.346  13.968 -0.0535  0.9813  0.0282
17679TIP3    H174452   2.298   0.284  13.928 -1.9932 -0.3075 -1.0444
17679TIP3    H274453   2.292   0.398  14.027  2.0178 -0.3095 -0.6556
17680TIP3   OH274454   2.954   1.158   2.977 -0.1315  0.0848  0.0435
17680TIP3    H174455   2.902   1.238   2.974  1.0667  0.9064  0.2222
17680TIP3    H274456   3.035   1.181   2.931 -0.2483 -1.4121 -0.9747
17681TIP3   OH274457   4.692   4.380  10.685  0.2851 -0.8464 -0.2449
17681TIP3    H174458   4.680   4.438  10.610 -0.4627 -0.2454  0.3389
17681TIP3    H274459   4.644   4.301  10.662 -0.7896 -0.2801  0.0233
17682TIP3   OH274460   1.717   0.159  11.026  0.0383 -0.4404  0.4805
17682TIP3    H174461   1.634   0.133  11.064 -2.0676  0.6544 -2.9560
17682TIP3    H274462   1.731   0.099  10.953  1.7473  0.0329  0.3547
17683TIP3   OH274463   3.914   0.030  14.312 -0.3537  0.5250  0.1891
17683TIP3    H174464   3.951   0.089  14.246 -0.7156 -0.0885 -0.5721
17683TIP3    H274465   3.843   0.080  14.351 -1.6595  0.1086 -1.4998
17684TIP3   OH274466   3.018   6.115  12.964  0.2110  0.0752 -0.0933
17684TIP3    H174467   2.952   6.176  12.994 -0.2377  0.5727 -1.9427
17684TIP3    H274468   3.026   6.050  13.034 -0.9201  0.9974  0.9196
17685TIP3   OH274469   1.368   3.298  16.282  0.6987  0.3492  0.2198
17685TIP3    H174470   1.308   3.233  16.246 -0.8060  1.4719  0.5901
17685TIP3    H274471   1.395   3.261  16.366 -1.3062  0.7719  1.1277
17686TIP3   OH274472   3.786   1.505  13.995 -0.0004  0.6177  0.0152
17686TIP3    H174473   3.876   1.538  13.997  0.6581 -1.0973  0.9019
17686TIP3    H274474   3.795   1.411  14.008 -2.0517  0.6795  2.6963
17687TIP3   OH274475   4.244   5.732   2.695  0.0656 -0.0378 -0.1504
17687TIP3    H174476   4.266   5.779   2.615 -0.2922  0.4599  0.0361
17687TIP3    H274477   4.280   5.644   2.683  0.2901  0.1315 -0.7200
17688TIP3   OH274478   3.449   3.348  15.938  0.4844 -0.0880 -0.2896
17688TIP3    H174479   3.533   3.338  15.894  0.7562  0.6347  0.0461
17688TIP3    H274480   3.472   3.371  16.028 -0.0690 -0.6228 -0.0107
17689TIP3   OH274481   0.046   3.711  13.438 -0.0968  0.3040  0.0419
17689TIP3    H174482   0.048   3.790  13.385  0.3948 -0.0601 -0.4936
17689TIP3    H274483   0.134   3.704  13.474 -0.5194  0.7313  1.1940
17690TIP3   OH274484   4.909   5.479  12.486 -0.8310  0.6565 -0.1153
17690TIP3    H174485   4.946   5.506  12.402 -0.8620  2.5933  0.4508
17690TIP3    H274486   4.985   5.464  12.542 -0.8359  1.2276  0.0484
17691TIP3   OH274487   5.301   2.370  14.028 -0.1599 -0.0845 -0.5097
17691TIP3    H174488   5.268   2.355  13.940  0.2847  1.2458 -0.9265
17691TIP3    H274489   5.268   2.457  14.052  2.4802  1.0811 -0.7317
17692TIP3   OH274490   0.977   2.211  15.458  0.1059 -0.7707 -0.4004
17692TIP3    H174491   0.906   2.276  15.456  2.0746  1.4892 -0.4534
17692TIP3    H274492   0.960   2.160  15.538 -0.7605  0.7208  0.4182
17693TIP3   OH274493   4.775   2.162   6.205 -0.4253 -0.2775 -0.1706
17693TIP3    H174494   4.709   2.214   6.160  0.0393  0.1243 -0.3966
17693TIP3    H274495   4.832   2.130   6.136  1.5052  2.0414  0.2491
17694TIP3   OH274496   5.074   2.143   4.779  0.0072  0.0325 -0.2823
17694TIP3    H174497   5.074   2.153   4.684  2.0214  0.0321 -0.3304
17694TIP3    H274498   5.087   2.231   4.813 -1.2508  0.1102  0.0339
17695TIP3   OH274499   3.269   6.048  15.703  0.2091  0.2244  0.3641
17695TIP3    H174500   3.312   6.074  15.784  2.3270 -1.7727  0.0142
17695TIP3    H274501   3.190   6.003  15.731  0.6624 -0.0154  1.3128
17696TIP3   OH274502   6.296   0.804  11.692  0.4785 -0.1648 -0.0940
17696TIP3    H174503   6.375   0.783  11.643  1.6041  0.0766  1.5286
17696TIP3    H274504   6.252   0.720  11.705  1.5517 -0.6258  0.7157
17697TIP3   OH274505   2.409   1.712   2.042  0.3062 -0.5386 -0.2349
17697TIP3    H174506   2.405   1.712   1.947 -1.0861 -0.6286 -0.1867
17697TIP3    H274507   2.468   1.639   2.063 -0.4075 -1.3483 -0.9899
17698TIP3   OH274508   2.811   2.325   5.597  0.5480  0.5632  0.1584
17698TIP3    H174509   2.742   2.376   5.556 -0.6608 -0.6578  0.5922
17698TIP3    H274510   2.782   2.234   5.588  2.1024  0.0223  0.3615
17699TIP3   OH274511   3.832   3.468   4.204  0.4201 -0.2865 -0.1591
17699TIP3    H174512   3.925   3.467   4.180  0.8102 -1.0206  1.3034
17699TIP3    H274513   3.801   3.380   4.184  0.5040 -0.6010  1.0636
17700TIP3   OH274514   4.623   5.777  16.325 -0.6927 -0.2433 -0.7492
17700TIP3    H174515   4.583   5.768  16.411 -0.8657 -0.5611 -0.8587
17700TIP3    H274516   4.552   5.755  16.264 -0.6351  0.1951 -0.9765
17701TIP3   OH274517   1.948   0.610   0.794  0.8694  0.3872 -0.6626
17701TIP3    H174518   2.004   0.678   0.830  3.0805 -0.6343 -1.9920
17701TIP3    H274519   1.935   0.635   0.702  0.9052 -0.4763 -0.9110
17702TIP3   OH274520   3.806   5.629   0.798  0.0190  0.1682  0.4625
17702TIP3    H174521   3.783   5.575   0.722  2.3049 -1.0895  0.5849
17702TIP3    H274522   3.766   5.584   0.872 -0.1562  0.0079  0.2731
17703TIP3   OH274523   5.607   0.882   3.187 -0.4249  0.5896  0.5859
17703TIP3    H174524   5.660   0.817   3.234 -0.9919 -0.2430  0.1048
17703TIP3    H274525   5.530   0.833   3.159 -0.2760  1.1564 -0.8851
17704TIP3   OH274526   1.034   3.852   1.679  0.0997 -0.0962  0.1672
17704TIP3    H174527   1.073   3.810   1.755  2.8558 -0.3760 -1.2666
17704TIP3    H274528   0.989   3.781   1.632  1.3581 -0.6721 -0.2048
17705TIP3   OH274529   1.312   1.725  12.051 -0.3278  0.1291  0.3413
17705TIP3    H174530   1.356   1.679  12.122  0.4295 -1.5140 -1.1242
17705TIP3    H274531   1.233   1.674  12.034 -0.3055  0.2765 -0.2392
17706TIP3   OH274532   3.669   2.781   0.891  0.2448 -0.1556  0.4242
17706TIP3    H174533   3.582   2.806   0.923 -0.2124 -0.6638 -0.3716
17706TIP3    H274534   3.676   2.688   0.913  0.3896 -0.2303  0.0715
17707TIP3   OH274535   6.395   2.934   4.444  0.1353 -0.4284  0.1241
17707TIP3    H174536   6.330   2.901   4.507  0.0212 -1.1798 -0.3704
17707TIP3    H274537   6.364   2.902   4.359  1.3091 -1.0602 -0.0915
17708TIP3   OH274538   0.436   5.809   2.888  0.3437 -0.6179  0.4390
17708TIP3    H174539   0.514   5.834   2.839  0.4766 -0.5590  0.6838
17708TIP3    H274540   0.372   5.787   2.820  1.3044 -3.0142  0.1930
17709TIP3   OH274541   0.014   2.246   5.436  0.1840  0.2057  0.4703
17709TIP3    H174542   0.017   2.267   5.529 -4.9372 -1.6170  1.4038
17709TIP3    H274543   0.066   2.166   5.427  2.4036  1.4795  1.1964
17710TIP3   OH274544   1.631   2.131  12.177 -0.0233  0.2380 -0.0047
17710TIP3    H174545   1.693   2.097  12.243 -0.0582  0.8949  0.3808
17710TIP3    H274546   1.620   2.223  12.201 -1.7521 -0.0525  0.3989
17711TIP3   OH274547   4.791   1.801   1.979 -0.2536 -0.0601  0.3969
17711TIP3    H174548   4.696   1.796   1.987 -0.4469  1.9281 -0.2984
17711TIP3    H274549   4.808   1.805   1.885  0.3851  1.1684  0.5405
17712TIP3   OH274550   5.446   5.817  16.479 -0.6137 -0.5691  0.2988
17712TIP3    H174551   5.453   5.744  16.417  1.3096 -0.0917 -0.1110
17712TIP3    H274552   5.507   5.795  16.549 -0.6599  0.2458  0.6002
17713TIP3   OH274553   5.741   3.824  16.238  0.2236 -0.6157 -0.6465
17713TIP3    H174554   5.788   3.793  16.161  2.5912  0.5649  0.2417
17713TIP3    H274555   5.671   3.759  16.251 -0.6576 -0.5468 -4.0568
17714TIP3   OH274556   5.180   6.434  12.390 -0.0801 -0.1429 -0.1258
17714TIP3    H174557   5.108   6.481  12.432 -1.7906 -2.0837 -0.7244
17714TIP3    H274558   5.237   6.503  12.356 -1.4171  1.4711  0.7451
17715TIP3   OH274559   1.232   1.287   2.204  0.0426 -0.4957  0.1948
17715TIP3    H174560   1.292   1.288   2.129  0.7363  0.9367  0.7261
17715TIP3    H274561   1.151   1.324   2.170  0.0938 -0.6127 -0.0584
17716TIP3   OH274562   0.337   6.424   4.979 -0.4065 -0.2566  0.0488
17716TIP3    H174563   0.266   6.449   5.038 -0.3968 -0.0300 -0.0359
17716TIP3    H274564   0.308   6.341   4.940 -0.5314 -0.2694  0.1719
17717TIP3   OH274565   0.566   0.725  11.861 -0.5670  0.3074  0.2984
17717TIP3    H174566   0.594   0.805  11.816  2.9819 -0.7705  0.3101
17717TIP3    H274567   0.527   0.672  11.792  0.6139  0.5252 -0.5672
17718TIP3   OH274568   4.010   6.532   3.062 -0.5698  0.0123 -0.0154
17718TIP3    H174569   3.952   6.568   2.995  0.3350 -0.0574 -0.8724
17718TIP3    H274570   3.952   6.505   3.133 -1.5254  0.4026 -0.6283
17719TIP3   OH274571   6.558   2.771  13.287 -0.0827 -0.0835 -0.1711
17719TIP3    H174572   6.467   2.742  13.283 -0.3640  0.5976  0.8089
17719TIP3    H274573   6.552   2.867  13.281  0.4897  0.0211  0.7569
17720TIP3   OH274574   2.525   1.098  12.189 -0.1153  0.1254  0.0756
17720TIP3    H174575   2.452   1.045  12.220  0.7967  0.1628  2.4221
17720TIP3    H274576   2.493   1.188  12.191  0.3493  0.2970  2.4500
17721TIP3   OH274577   1.622   2.263  14.202  0.4641 -0.4791 -0.5023
17721TIP3    H174578   1.597   2.293  14.114  0.5150 -0.4599 -0.5101
17721TIP3    H274579   1.539   2.253  14.248  0.4251 -0.6747 -0.6136
17722TIP3   OH274580   6.714   4.842   5.012 -0.2426  0.2871 -0.0335
17722TIP3    H174581   6.625   4.868   5.033 -0.3325 -0.6440  0.7991
17722TIP3    H274582   6.714   4.746   5.018  0.9029  0.2897  0.3723
17723TIP3   OH274583   2.315   3.951  13.830 -0.4866 -0.8447  0.1225
17723TIP3    H174584   2.233   3.937  13.782 -2.1106  0.5527  2.3239
17723TIP3    H274585   2.310   3.892  13.905  0.3286 -0.4132  0.5341
17724TIP3   OH274586   6.243   2.624   3.560  0.1674 -0.7061  0.3629
17724TIP3    H174587   6.160   2.638   3.605  0.9217  0.5209  1.4711
17724TIP3    H274588   6.259   2.530   3.567 -0.4659 -0.7602  1.3458
17725TIP3   OH274589   1.802   4.762  15.780  0.1763 -0.4193  0.4510
17725TIP3    H174590   1.794   4.857  15.771 -0.5382 -0.5381 -0.3612
17725TIP3    H274591   1.883   4.740  15.734 -0.5922 -0.3849 -0.9869
17726TIP3   OH274592   1.090   0.459  15.186  0.1901  0.2727 -0.0356
17726TIP3    H174593   1.076   0.494  15.275  0.0900  1.5848 -0.5409
17726TIP3    H274594   1.004   0.427  15.160 -0.0811  1.0427 -0.1199
17727TIP3   OH274595   5.642   1.728  13.737 -0.0315 -0.1845 -0.1451
17727TIP3    H174596   5.576   1.754  13.673 -0.1728 -0.8032 -0.2581
17727TIP3    H274597   5.715   1.694  13.685  0.4543  0.6536 -0.0284
17728TIP3   OH274598   6.162   5.439  15.174  0.4154 -0.0478  0.1060
17728TIP3    H174599   6.099   5.476  15.237  0.1167  0.3951 -0.4456
17728TIP3    H274600   6.115   5.366  15.134  0.3364  0.1385 -0.1404
17729TIP3   OH274601   2.624   4.397  15.894  0.5569 -0.1275  0.0614
17729TIP3    H174602   2.539   4.403  15.850  1.1659  2.7218 -0.9970
17729TIP3    H274603   2.603   4.398  15.988 -0.5967 -0.0463 -0.1828
17730TIP3   OH274604   3.006   1.514  17.102  0.3229 -0.8747 -0.2348
17730TIP3    H174605   3.041   1.522  17.190 -0.4322  0.1264 -0.0096
17730TIP3    H274606   2.926   1.462  17.112 -0.7850  0.7774 -0.0032
17731TIP3   OH274607   5.448   3.058  13.855 -0.2747 -0.1501  0.6923
17731TIP3    H174608   5.391   3.107  13.914 -2.1985 -2.1060  0.5829
17731TIP3    H274609   5.446   3.106  13.773 -0.8810  0.4040  1.0240
17732TIP3   OH274610   0.993   4.410   2.294 -0.3941  0.0140  0.3086
17732TIP3    H174611   1.082   4.433   2.268 -0.0807  0.3139  1.5746
17732TIP3    H274612   0.991   4.425   2.389 -1.8302  0.1426  0.2821
17733TIP3   OH274613   2.495   1.691  14.779 -0.3837  0.0286  0.0976
17733TIP3    H174614   2.575   1.704  14.727 -0.7595  3.3706  0.1308
17733TIP3    H274615   2.524   1.639  14.854  1.5177  0.2651 -0.4130
17734TIP3   OH274616   1.701   3.226  14.422 -0.1410 -0.4884  0.1700
17734TIP3    H174617   1.769   3.198  14.360  1.7624  0.5450  1.6755
17734TIP3    H274618   1.661   3.145  14.453 -0.9586 -1.0459 -2.1250
17735TIP3   OH274619   3.999   3.055   4.146 -0.2278 -0.4242 -0.5371
17735TIP3    H174620   4.008   2.962   4.166 -2.8309 -1.0916 -1.8682
17735TIP3    H274621   4.038   3.065   4.059  1.3812  0.0950  0.2171
17736TIP3   OH274622   0.482   4.798  14.201 -0.5943 -0.9703 -0.3407
17736TIP3    H174623   0.535   4.797  14.280  0.5088 -0.5321 -1.0455
17736TIP3    H274624   0.393   4.777  14.230 -0.2716 -0.4681  1.0445
17737TIP3   OH274625   3.895   0.643  11.119 -0.0064  0.4917 -0.1470
17737TIP3    H174626   3.839   0.720  11.128 -0.3178  0.0087  2.8988
17737TIP3    H274627   3.983   0.675  11.138 -0.0318  0.2610  0.3792
17738TIP3   OH274628   5.094   1.183   2.410 -0.5648  0.1428 -0.2004
17738TIP3    H174629   5.145   1.249   2.364  0.2866 -1.3801 -1.5717
17738TIP3    H274630   5.120   1.192   2.502  0.6693  0.7163 -0.5847
17739TIP3   OH274631   4.634   2.675  15.781  0.1450 -0.1274  0.1770
17739TIP3    H174632   4.666   2.652  15.694  1.3264 -0.4888  0.6935
17739TIP3    H274633   4.637   2.771  15.782  1.1117 -0.1467  0.1667
17740TIP3   OH274634   0.564   3.305   3.928 -0.2608  0.0437  0.2688
17740TIP3    H174635   0.618   3.233   3.896  0.4527  0.4267  0.5949
17740TIP3    H274636   0.597   3.382   3.882 -2.2411 -0.0623 -1.5190
17741TIP3   OH274637   4.964   5.602   3.261 -0.2437  0.7727  1.2767
17741TIP3    H174638   5.012   5.534   3.308 -0.5734 -1.1877 -1.0079
17741TIP3    H274639   5.031   5.649   3.211 -0.3567 -0.5750 -0.2475
17742TIP3   OH274640   4.421   0.229   5.360 -0.2884  0.1098 -0.2981
17742TIP3    H174641   4.341   0.261   5.318 -0.7394  1.8609  1.6932
17742TIP3    H274642   4.399   0.224   5.453  1.3462 -1.3061  0.0663
17743TIP3   OH274643   4.545   4.137  15.468 -0.0529  0.4553  0.0312
17743TIP3    H174644   4.605   4.127  15.395 -0.6503 -0.0364 -0.4045
17743TIP3    H274645   4.506   4.050  15.478  1.4993 -0.0788  2.2402
17744TIP3   OH274646   0.518   2.314  15.050 -0.5128  0.7147 -0.1748
17744TIP3    H174647   0.524   2.390  14.993 -1.0920  1.5060  0.7918
17744TIP3    H274648   0.607   2.302  15.084 -0.1048  0.0756 -1.4186
17745TIP3   OH274649   6.440   5.344  11.457 -0.0538  0.5885 -0.2349
17745TIP3    H174650   6.347   5.362  11.457 -0.0134  0.8378 -0.9219
17745TIP3    H274651   6.481   5.426  11.484 -0.0295  0.4900  0.0306
17746TIP3   OH274652   2.756   6.703   1.896 -0.2000  0.0959 -0.3855
17746TIP3    H174653   2.752   6.708   1.800 -0.6157  0.5107 -0.3540
17746TIP3    H274654   2.668   6.729   1.925  0.6745  2.7895  0.1863
17747TIP3   OH274655   4.317   3.994  11.924 -0.1001  0.4887  0.2787
17747TIP3    H174656   4.271   3.920  11.885  2.5967 -0.0523 -2.3186
17747TIP3    H274657   4.367   3.956  11.996 -0.4802  0.2399  0.4135
17748TIP3   OH274658   0.686   2.625  17.193  0.1752  0.6032 -0.1621
17748TIP3    H174659   0.606   2.674  17.212  0.0133  0.4635 -0.4856
17748TIP3    H274660   0.661   2.562  17.125 -0.3667 -1.8704  2.1417
17749TIP3   OH274661   2.209   5.273   1.349 -0.3332  0.0337 -0.1959
17749TIP3    H174662   2.157   5.193   1.357 -0.0388 -0.1028  0.3987
17749TIP3    H274663   2.151   5.343   1.381 -0.2582 -0.0776  0.1900
17750TIP3   OH274664   4.401   4.630  12.717 -0.3283 -0.1030  0.0750
17750TIP3    H174665   4.368   4.700  12.774  0.6002  0.9939 -0.6859
17750TIP3    H274666   4.361   4.648  12.632  0.6737  0.1056 -0.3710
17751TIP3   OH274667   0.789   4.388   5.069  0.0598  0.1164  0.2333
17751TIP3    H174668   0.749   4.370   5.154 -1.4875  0.5790 -0.3697
17751TIP3    H274669   0.874   4.426   5.090 -0.0975 -0.2351  1.5645
17752TIP3   OH274670   3.614   0.003  14.698  0.5771 -0.0938 -0.0053
17752TIP3    H174671   3.700   0.002  14.741  1.0006 -0.0945 -0.8438
17752TIP3    H274672   3.634   0.000  14.605 -0.2658  1.9279 -0.3003
17753TIP3   OH274673   5.526   2.040   0.655  0.2882  0.3458 -0.5844
17753TIP3    H174674   5.511   2.037   0.750  0.3117  0.6218 -0.5710
17753TIP3    H274675   5.621   2.046   0.646  0.2226  1.8696 -0.5754
17754TIP3   OH274676   6.314   2.000  12.423 -0.5081  0.9586 -0.3833
17754TIP3    H174677   6.278   1.984  12.336 -2.7802 -0.1350  0.6545
17754TIP3    H274678   6.394   1.947  12.427 -1.0243  0.0704 -1.4132
17755TIP3   OH274679   3.122   4.139   2.322 -0.6655 -0.4855  0.0685
17755TIP3    H174680   3.086   4.150   2.410 -0.9144 -0.5374 -0.0256
17755TIP3    H274681   3.202   4.191   2.323 -0.4460 -0.8282  0.4547
17756TIP3   OH274682   0.209   2.977  12.909 -0.3933  0.1890 -0.4501
17756TIP3    H174683   0.192   3.019  12.993  0.8638 -1.8110  0.8945
17756TIP3    H274684   0.135   2.917  12.897 -0.4059  0.2355 -0.6015
17757TIP3   OH274685   4.440   0.344  11.507  0.1348  0.3035  0.1755
17757TIP3    H174686   4.442   0.298  11.423 -1.7930  0.1358  0.1685
17757TIP3    H274687   4.531   0.370  11.523  0.4728  0.7488 -2.1692
17758TIP3   OH274688   6.739   0.335  11.238 -0.4365 -0.0388  0.4734
17758TIP3    H174689   6.788   0.354  11.158  0.5257 -2.3348  0.4418
17758TIP3    H274690   6.656   0.382  11.227  0.0304  0.4153 -1.4584
17759TIP3   OH274691   4.193   3.123  11.240 -0.0227 -0.0429  0.1075
17759TIP3    H174692   4.178   3.036  11.204 -0.6360  0.0140  0.2055
17759TIP3    H274693   4.167   3.183  11.169 -1.1857  0.0697  0.6032
17760TIP3   OH274694   1.715   2.808   0.086  0.0608 -0.0875  0.0989
17760TIP3    H174695   1.695   2.715   0.074 -0.8068 -0.0665  1.2269
17760TIP3    H274696   1.630   2.852   0.076  0.6041  0.7233 -1.4308
17761TIP3   OH274697   2.087   5.968  10.964 -0.0388  0.2315  0.0523
17761TIP3    H174698   2.165   6.018  10.939 -0.5580  0.2768 -1.6367
17761TIP3    H274699   2.074   5.906  10.892 -1.4811  0.1270  0.3649
17762TIP3   OH274700   2.613   4.401  11.653  0.2275 -0.1140  0.0575
17762TIP3    H174701   2.588   4.318  11.614  0.6109 -0.1744 -0.0714
17762TIP3    H274702   2.676   4.439  11.591  0.7735 -0.1721  0.5683
17763TIP3   OH274703   4.528   6.077  14.128  0.6610  0.1859  0.2770
17763TIP3    H174704   4.559   6.070  14.218  1.1686 -1.1898  0.0082
17763TIP3    H274705   4.559   6.163  14.099 -0.2401  1.0252  1.6598
17764TIP3   OH274706   3.812   0.919   1.990  0.2777  0.2063 -0.2486
17764TIP3    H174707   3.810   0.832   1.948 -0.9533  0.3094 -0.4332
17764TIP3    H274708   3.898   0.954   1.966 -0.0417 -0.0938 -1.9886
17765TIP3   OH274709   4.049   4.441   5.742  0.0192 -0.0676  0.5842
17765TIP3    H174710   4.108   4.418   5.670 -1.2915 -1.4473 -0.0915
17765TIP3    H274711   3.992   4.509   5.707  1.6429  1.8865  1.4971
17766TIP3   OH274712   3.613   6.101   5.686  0.2807  0.1052  0.2245
17766TIP3    H174713   3.593   6.126   5.777 -1.7074 -1.6324  0.3266
17766TIP3    H274714   3.541   6.137   5.635 -1.1471 -2.8008  0.0128
17767TIP3   OH274715   6.047   2.837  12.495 -0.1101 -0.1413  0.3636
17767TIP3    H174716   5.974   2.866  12.550 -1.8705 -2.1999 -0.7662
17767TIP3    H274717   6.006   2.807  12.414  2.2368  0.8777 -1.3229
17768TIP3   OH274718   0.907   0.974   2.592  0.6915  0.8283 -0.1838
17768TIP3    H174719   0.886   0.992   2.500 -1.5246  0.6734  0.2377
17768TIP3    H274720   0.969   0.901   2.589  0.4368  0.6417 -1.5417
17769TIP3   OH274721   2.438   2.304  14.961 -0.5768 -0.0190  0.2517
17769TIP3    H174722   2.374   2.235  14.941  0.5581 -1.0002 -0.1478
17769TIP3    H274723   2.436   2.361  14.884 -0.4580 -0.4550 -0.0783
17770TIP3   OH274724   3.320   4.162   6.396 -0.0771 -0.1341 -0.1017
17770TIP3    H174725   3.409   4.171   6.362 -0.5033 -0.4928 -1.3311
17770TIP3    H274726   3.297   4.250   6.426 -0.0845  0.4298 -1.7128
17771TIP3   OH274727   0.566   6.614   4.989  0.0566  0.2135  0.5618
17771TIP3    H174728   0.558   6.688   5.048 -1.8291  2.1974 -1.9473
17771TIP3    H274729   0.483   6.567   4.997 -0.4126  0.7646 -0.7228
17772TIP3   OH274730   3.862   4.483   1.102  1.3020  0.9375 -0.2421
17772TIP3    H174731   3.898   4.534   1.174  0.8135  2.0670 -0.7762
17772TIP3    H274732   3.808   4.545   1.053 -0.2385 -0.3646 -0.2661
17773TIP3   OH274733   0.855   6.597   4.919 -0.0843  0.5154  0.4829
17773TIP3    H174734   0.830   6.612   4.828  0.0687 -2.3127 -0.0880
17773TIP3    H274735   0.772   6.603   4.967 -0.6875 -0.9702 -0.3065
17774TIP3   OH274736   3.783   0.638  13.969  0.4137  0.5135 -0.2895
17774TIP3    H174737   3.757   0.726  13.942 -0.2348  0.1827 -0.7665
17774TIP3    H274738   3.844   0.652  14.042 -0.9372  1.3238  0.7373
17775TIP3   OH274739   3.382   4.682  11.885  0.0983 -0.4959  0.3870
17775TIP3    H174740   3.388   4.638  11.801 -3.0398 -0.3309 -0.0427
17775TIP3    H274741   3.418   4.619  11.948  0.3655 -1.5470 -0.7877
17776TIP3   OH274742   4.964   0.287  16.959  0.1626  0.1007 -0.1814
17776TIP3    H174743   5.005   0.321  16.879  0.3930 -0.7072 -0.4203
17776TIP3    H274744   4.998   0.198  16.966 -1.5822 -0.6281 -0.4031
17777TIP3   OH274745   4.502   6.762  12.421 -0.8042 -0.1942 -0.3242
17777TIP3    H174746   4.501   6.678  12.376  0.0173 -0.5287  0.2757
17777TIP3    H274747   4.569   6.813  12.377 -0.3906 -0.3214  0.1502
17778TIP3   OH274748   5.915   1.914  15.554  0.3826 -0.3704 -1.1312
17778TIP3    H174749   5.950   1.989  15.505  2.5549 -0.0334  0.7001
17778TIP3    H274750   5.855   1.953  15.617 -1.4381 -0.6651 -2.6079
17779TIP3   OH274751   2.338   6.754  11.730 -0.1241  0.5558 -0.0272
17779TIP3    H174752   2.285   6.795  11.798 -0.2109 -0.1224  0.3293
17779TIP3    H274753   2.429   6.769  11.758 -0.1434  0.9418 -0.1670
17780TIP3   OH274754   3.030   4.144   2.576  0.6125 -0.8178 -0.2388
17780TIP3    H174755   3.021   4.057   2.615  2.5275 -0.5626  0.8763
17780TIP3    H274756   3.006   4.204   2.647 -0.4367 -0.4141 -0.9198
17781TIP3   OH274757   1.567   0.965  13.954  0.3862  0.1625  0.3578
17781TIP3    H174758   1.606   1.034  13.901 -0.9755 -0.5489 -1.7144
17781TIP3    H274759   1.576   0.886  13.900 -2.9777 -0.2084  0.1217
17782TIP3   OH274760   4.796   1.518  13.820  0.2874 -0.8172  0.0352
17782TIP3    H174761   4.788   1.541  13.727 -0.1676 -1.2941 -0.0501
17782TIP3    H274762   4.828   1.597  13.862  0.9899 -0.7494 -0.6111
17783TIP3   OH274763   3.345   3.560  11.330  0.3148 -0.1491 -0.8176
17783TIP3    H174764   3.392   3.638  11.302  0.6641 -0.9526 -2.5815
17783TIP3    H274765   3.404   3.516  11.392 -0.5712  1.7737  1.5528
17784TIP3   OH274766   1.379   1.377  11.043 -0.4594  0.1033  0.0416
17784TIP3    H174767   1.445   1.317  11.009 -0.1604  0.2606  0.3392
17784TIP3    H274768   1.425   1.460  11.054 -0.7174  0.2287  0.2049
17785TIP3   OH274769   5.819   0.878   3.734 -0.0827  0.0713 -0.1927
17785TIP3    H174770   5.777   0.930   3.803 -0.5593 -0.0057 -0.4191
17785TIP3    H274771   5.842   0.941   3.667  0.4467  0.1559  0.0698
17786TIP3   OH274772   1.579   3.529   2.459 -0.1336  0.4363  0.4539
17786TIP3    H174773   1.580   3.613   2.413  2.0725  0.4045  0.3554
17786TIP3    H274774   1.589   3.553   2.552 -0.8624  0.3209  0.5709
17787TIP3   OH274775   6.558   6.226  15.693 -0.0602 -0.1538 -0.4119
17787TIP3    H174776   6.463   6.228  15.682  0.0500  3.3703 -1.9833
17787TIP3    H274777   6.571   6.222  15.788 -1.7778 -0.4068 -0.1660
17788TIP3   OH274778   6.292   1.760   4.964  0.5132  0.0856 -0.2909
17788TIP3    H174779   6.242   1.715   4.896 -0.6764  1.7885 -0.5968
17788TIP3    H274780   6.273   1.853   4.951  1.6904  0.5934  1.2559
17789TIP3   OH274781   1.399   6.442  14.010  0.5420 -0.4852 -0.4662
17789TIP3    H174782   1.436   6.384  13.943  1.2035  0.3892 -0.8876
17789TIP3    H274783   1.467   6.447  14.077 -0.1035 -1.3270  0.2674
17790TIP3   OH274784   3.151   5.682  12.683 -0.1026  0.0189 -0.2520
17790TIP3    H174785   3.094   5.711  12.754 -1.1511 -2.5802  0.0981
17790TIP3    H274786   3.209   5.617  12.724  1.8640  1.2079 -1.0208
17791TIP3   OH274787   5.846   5.248  10.488  0.3185  0.1368 -0.3948
17791TIP3    H174788   5.800   5.197  10.555 -1.5458  0.5242 -1.3073
17791TIP3    H274789   5.926   5.278  10.532  0.8680 -2.4612  0.5489
17792TIP3   OH274790   2.078   2.727   4.215  0.1935 -0.2981  0.0738
17792TIP3    H174791   2.087   2.820   4.194 -0.5758 -0.8519 -3.2552
17792TIP3    H274792   2.123   2.717   4.299 -0.5116  3.1976  1.0154
17793TIP3   OH274793   3.505   6.342   6.009 -0.0064  0.1271 -0.0396
17793TIP3    H174794   3.501   6.376   6.098 -0.7059  0.9589 -0.3813
17793TIP3    H274795   3.421   6.365   5.970 -0.2279 -1.3666 -0.5134
17794TIP3   OH274796   0.725   6.176   0.647  0.1480  0.0366  0.1567
17794TIP3    H174797   0.773   6.258   0.641  0.5302 -0.1393  0.7542
17794TIP3    H274798   0.759   6.122   0.576 -0.9608  0.8160 -1.0234
17795TIP3   OH274799   3.067   2.437   3.739 -0.1588  0.3998  0.1075
17795TIP3    H174800   3.157   2.439   3.707 -0.5597 -0.0505 -1.1226
17795TIP3    H274801   3.035   2.527   3.729 -0.0684  0.4059 -0.1123
17796TIP3   OH274802   3.255   4.160  11.238  0.4533 -0.2161  0.0168
17796TIP3    H174803   3.330   4.219  11.243  0.2904  0.0569 -0.5678
17796TIP3    H274804   3.182   4.217  11.214  0.3755 -0.7090 -0.9737
17797TIP3   OH274805   0.723   4.453  11.630 -0.1034  0.3024 -0.2957
17797TIP3    H174806   0.678   4.474  11.712  0.3318  0.0049  0.0276
17797TIP3    H274807   0.789   4.522  11.622 -0.7114  0.8330 -0.8518
17798TIP3   OH274808   0.372   3.830   1.744  0.4814  0.0501 -0.4134
17798TIP3    H174809   0.389   3.786   1.828 -1.3442 -0.8638 -0.4603
17798TIP3    H274810   0.458   3.854   1.711  1.2090  1.8972  2.4685
17799TIP3   OH274811   0.358   1.289  14.233 -0.0986 -0.1890  0.4741
17799TIP3    H174812   0.295   1.333  14.176  0.0948 -0.4669  0.0352
17799TIP3    H274813   0.416   1.242  14.173  0.1191 -0.4778  0.9010
17800TIP3   OH274814   4.013   2.040  15.789 -0.1307  0.5067 -0.6446
17800TIP3    H174815   4.084   1.979  15.771  0.6617  0.4417  2.1465
17800TIP3    H274816   3.992   2.080  15.705  2.1554 -0.6002 -1.8050
17801TIP3   OH274817   5.494   5.734  12.122  0.5368  0.3814 -0.3898
17801TIP3    H174818   5.403   5.705  12.115  0.8903 -0.6404 -0.8338
17801TIP3    H274819   5.541   5.658  12.156  1.2506  0.8681 -0.2735
17802TIP3   OH274820   5.978   3.406   0.336  0.1412 -0.9333  0.1898
17802TIP3    H174821   6.057   3.352   0.332  0.1789 -0.8384 -0.4507
17802TIP3    H274822   5.953   3.418   0.244 -1.1942 -1.8236  0.4098
17803TIP3   OH274823   6.299   3.798  12.025 -0.2415 -0.2084  0.1275
17803TIP3    H174824   6.262   3.740  12.091  0.4043 -1.6042 -0.6964
17803TIP3    H274825   6.258   3.883  12.042 -0.9402 -0.8099  1.5858
17804TIP3   OH274826   5.108   4.018   6.099 -0.0826  0.2116  0.3170
17804TIP3    H174827   5.016   4.023   6.126  0.0141  1.2673  0.5077
17804TIP3    H274828   5.157   4.025   6.182  0.1712 -0.4558  0.2281
17805TIP3   OH274829   5.813   2.897  12.161  0.0030  0.3649 -0.5855
17805TIP3    H174830   5.826   2.843  12.239  0.5290  0.9433 -0.2640
17805TIP3    H274831   5.899   2.935  12.144  0.1529 -0.5459 -2.0580
17806TIP3   OH274832   5.466   6.611  16.604 -0.1760  0.0604  0.3274
17806TIP3    H174833   5.458   6.704  16.625 -0.9533  0.0868 -0.0726
17806TIP3    H274834   5.444   6.566  16.686  0.5472  0.2312  0.6196
17807TIP3   OH274835   2.465   3.469   5.593 -0.5445  0.0864 -1.5926
17807TIP3    H174836   2.485   3.381   5.627 -1.5922 -0.3265 -2.0137
17807TIP3    H274837   2.395   3.455   5.529 -1.9511  1.4214 -0.4268
17808TIP3   OH274838   5.385   4.015   5.500  0.2061  0.3286 -0.3050
17808TIP3    H174839   5.469   3.970   5.513  0.8006  1.7034  0.8631
17808TIP3    H274840   5.341   4.009   5.584 -0.8442 -0.2544 -0.8717
17809TIP3   OH274841   2.576   3.126  14.100 -0.0753  0.0172  0.3351
17809TIP3    H174842   2.565   3.221  14.102  0.5114  0.0856  0.9141
17809TIP3    H274843   2.542   3.097  14.184  0.9255 -0.1309  0.7107
17810TIP3   OH274844   6.394   0.421  15.663  0.4000  0.0796 -0.3924
17810TIP3    H174845   6.440   0.490  15.614  1.7766  0.0016  0.7348
17810TIP3    H274846   6.415   0.341  15.616  0.1489  0.2242 -0.7595
17811TIP3   OH274847   6.432   3.260   4.673  0.2624  0.1910 -0.2140
17811TIP3    H174848   6.422   3.170   4.705 -3.2088 -0.2303 -1.9731
17811TIP3    H274849   6.404   3.256   4.582  0.0184  3.0463 -0.3481
17812TIP3   OH274850   4.171   3.832  13.588  0.4669 -0.5086  0.5595
17812TIP3    H174851   4.095   3.849  13.644  2.4698  2.3512  2.6379
17812TIP3    H274852   4.165   3.897  13.519  2.2104  1.4645  2.1461
17813TIP3   OH274853   0.666   5.521   4.356  0.2981  0.0315 -0.3516
17813TIP3    H174854   0.693   5.474   4.435 -1.9046 -1.7998 -0.5759
17813TIP3    H274855   0.688   5.461   4.284 -0.7099  0.2146 -0.8256
17814TIP3   OH274856   1.767   5.391  13.556 -0.2835  0.9631  0.1141
17814TIP3    H174857   1.825   5.326  13.517 -1.2598 -0.5383  1.0226
17814TIP3    H274858   1.725   5.434  13.482 -0.7520 -0.5439 -0.5496
17815TIP3   OH274859   4.799   3.956  11.485  0.1493  0.1817 -0.4379
17815TIP3    H174860   4.765   3.998  11.406  1.5453  2.8572  0.2611
17815TIP3    H274861   4.722   3.941  11.539 -0.8890 -2.0511 -2.3429
17816TIP3   OH274862   2.329   1.812   3.594 -0.0493  0.4071 -0.0869
17816TIP3    H174863   2.249   1.864   3.586  0.0390  0.5130 -0.3055
17816TIP3    H274864   2.354   1.792   3.504 -0.8502 -1.2179  0.0209
17817TIP3   OH274865   3.530   3.598  11.888  0.0387 -0.3844 -0.1826
17817TIP3    H174866   3.519   3.618  11.795 -3.7117 -0.0036  0.1543
17817TIP3    H274867   3.542   3.503  11.891  0.2392 -0.3947 -1.0579
17818TIP3   OH274868   5.379   4.054   2.613 -0.1505 -0.6441  0.2262
17818TIP3    H174869   5.374   4.066   2.708  0.8625 -0.7007  0.3015
17818TIP3    H274870   5.467   4.019   2.599 -0.4015 -0.9079 -0.7084
17819TIP3   OH274871   0.243   1.527   1.711  0.6723  0.7516 -0.0906
17819TIP3    H174872   0.302   1.462   1.674  0.4610  1.0343 -0.9749
17819TIP3    H274873   0.156   1.486   1.708  0.2386  1.6567 -2.3250
17820TIP3   OH274874   4.458   0.535   3.001 -0.1345 -0.4689 -0.2183
17820TIP3    H174875   4.460   0.503   3.091 -0.5905  2.8864  1.1554
17820TIP3    H274876   4.373   0.577   2.993  0.8489  1.4533 -1.3185
17821TIP3   OH274877   0.785   3.171   0.956 -0.8154  0.2281 -0.4427
17821TIP3    H174878   0.715   3.235   0.944 -1.3044 -0.4106 -1.1318
17821TIP3    H274879   0.768   3.132   1.041 -0.3213  1.2356  0.1297
17822TIP3   OH274880   5.431   5.053   1.612  0.4390  0.0207  0.5895
17822TIP3    H174881   5.449   5.010   1.696 -0.4373  1.5536  1.6082
17822TIP3    H274882   5.431   4.982   1.548  3.3965 -0.9312  1.4714
17823TIP3   OH274883   5.568   1.261  14.168 -0.3332  0.3802  0.3706
17823TIP3    H174884   5.637   1.249  14.233 -1.0230  1.4658  1.3448
17823TIP3    H274885   5.541   1.353  14.177 -1.3830  0.1857 -0.4998
17824TIP3   OH274886   0.759   1.270   0.996  0.2530  0.2226  0.6601
17824TIP3    H174887   0.794   1.252   0.909 -1.4237  0.0144 -0.0037
17824TIP3    H274888   0.787   1.196   1.049 -1.8788 -1.6865 -0.6879
17825TIP3   OH274889   3.931   6.376  12.556  0.1853 -0.1332 -0.4316
17825TIP3    H174890   3.876   6.421  12.493  0.4435  0.1058 -0.4876
17825TIP3    H274891   3.870   6.338  12.619 -0.0754 -0.4591 -0.8812
17826TIP3   OH274892   1.000   0.272   1.632 -0.0859  0.1300 -0.1345
17826TIP3    H174893   0.989   0.363   1.605  0.9670  0.5580  0.8069
17826TIP3    H274894   1.095   0.260   1.640 -0.1355 -1.3641 -1.2386
17827TIP3   OH274895   5.511   1.009  14.127 -0.1521 -0.1244  0.4424
17827TIP3    H174896   5.530   1.103  14.137 -0.1675 -0.0245 -0.3629
17827TIP3    H274897   5.419   1.007  14.100  0.3545 -0.2317 -1.4205
17828TIP3   OH274898   3.138   5.598   2.681 -0.3574  0.4348 -0.0679
17828TIP3    H174899   3.210   5.559   2.631 -3.0675 -2.4983 -2.0983
17828TIP3    H274900   3.134   5.546   2.761  0.4011  1.3442  0.5843
17829TIP3   OH274901   5.896   1.587   5.977  0.1160  0.5330 -0.8341
17829TIP3    H174902   5.815   1.537   5.973  0.8651 -0.8726  0.5602
17829TIP3    H274903   5.880   1.652   6.045  0.1124  0.3535 -0.6637
17830TIP3   OH274904   6.269   5.710  15.112  0.0463 -0.5775  0.1232
17830TIP3    H174905   6.224   5.626  15.122 -1.4706  0.2236  0.2274
17830TIP3    H274906   6.284   5.740  15.202  0.3274 -0.5855  0.0813
17831TIP3   OH274907   5.383   5.120   4.354  0.0535  0.3985  0.4680
17831TIP3    H174908   5.308   5.179   4.344 -0.9680 -0.5414  2.1860
17831TIP3    H274909   5.405   5.095   4.264 -1.1901  1.2855 -0.1173
17832TIP3   OH274910   5.495   3.448   4.060  0.1310 -0.3626  0.2922
17832TIP3    H174911   5.549   3.397   4.000 -0.9619 -1.9636  0.6352
17832TIP3    H274912   5.555   3.472   4.131  1.7319  2.4585 -1.8002
17833TIP3   OH274913   5.957   5.542  14.876 -1.1934  0.3931  0.1205
17833TIP3    H174914   5.895   5.511  14.941 -1.6339  2.2833  0.6563
17833TIP3    H274915   5.906   5.600  14.819 -0.0222  1.7510  0.3912
17834TIP3   OH274916   2.571   6.330  14.261 -0.2765  0.4268  0.3217
17834TIP3    H174917   2.600   6.404  14.315 -1.4651  2.5854 -1.7902
17834TIP3    H274918   2.648   6.273  14.255  1.3723  2.5002  0.4424
17835TIP3   OH274919   1.422   1.307   3.042 -0.0572 -0.1616 -0.1703
17835TIP3    H174920   1.495   1.265   2.996 -0.0505 -0.5944  0.2292
17835TIP3    H274921   1.402   1.248   3.114  0.4471  0.9077  0.8739
17836TIP3   OH274922   4.302   4.024   1.795  0.3619  1.0012 -0.1304
17836TIP3    H174923   4.327   4.064   1.712 -0.8786  1.9037 -0.1023
17836TIP3    H274924   4.247   3.950   1.770  1.8009 -0.1089 -0.1488
17837TIP3   OH274925   4.615   1.899   3.481  0.0005  0.3252 -0.4630
17837TIP3    H174926   4.619   1.852   3.398 -1.2235  1.0248 -0.9486
17837TIP3    H274927   4.527   1.938   3.483 -0.4694 -0.6844  1.7369
17838TIP3   OH274928   0.214   5.528  12.326 -0.1088 -0.6481  0.1442
17838TIP3    H174929   0.297   5.567  12.299 -0.7399 -0.0375 -0.9999
17838TIP3    H274930   0.180   5.587  12.394  0.1552 -0.6425  0.2726
17839TIP3   OH274931   3.337   1.786  12.927  0.1391  0.2553  0.1052
17839TIP3    H174932   3.262   1.824  12.971  0.2856  1.6992 -0.8315
17839TIP3    H274933   3.386   1.742  12.997 -0.9731  0.2737  0.9150
17840TIP3   OH274934   1.632   4.836   2.395  0.7079  0.6386 -0.1182
17840TIP3    H174935   1.721   4.804   2.379  0.1906  0.2144 -2.7040
17840TIP3    H274936   1.616   4.899   2.324 -1.1546  0.4224  0.0547
17841TIP3   OH274937   0.288   3.481   3.649 -0.0818  0.0933 -0.3780
17841TIP3    H174938   0.374   3.459   3.613  0.8153  0.8119  1.2266
17841TIP3    H274939   0.287   3.439   3.735 -0.8887  1.0178  0.0791
17842TIP3   OH274940   3.499   4.757  14.701 -0.0768  0.7749 -0.4991
17842TIP3    H174941   3.413   4.716  14.689 -0.0390  1.0744 -1.8976
17842TIP3    H274942   3.482   4.833  14.757 -0.6159  0.4924 -0.2689
17843TIP3   OH274943   5.987   6.035   0.721  0.1925  0.1610 -0.6066
17843TIP3    H174944   5.911   6.079   0.760  0.0221 -1.3462  0.8328
17843TIP3    H274945   5.959   6.012   0.632 -0.2089  1.6067 -0.8857
17844TIP3   OH274946   2.587   3.543  14.882  0.0410 -0.0463  0.0168
17844TIP3    H174947   2.545   3.628  14.892  0.8715  0.3794 -0.0249
17844TIP3    H274948   2.515   3.483  14.860 -0.4010  0.8594 -1.1365
17845TIP3   OH274949   5.812   1.203   4.073  0.6159  0.3628  0.6564
17845TIP3    H174950   5.862   1.241   4.001 -0.6630  1.6886  0.4306
17845TIP3    H274951   5.759   1.134   4.033  1.0624  0.0322  0.6227
17846TIP3   OH274952   2.145   1.535  13.205  0.4556  0.7005 -0.0229
17846TIP3    H174953   2.159   1.451  13.248 -0.0426  1.5672  1.9802
17846TIP3    H274954   2.107   1.513  13.120 -0.1765 -1.0772  0.6779
17847TIP3   OH274955   4.876   1.867   1.728  0.0345  0.0408  0.9698
17847TIP3    H174956   4.936   1.799   1.696 -1.8465 -0.3668 -2.1389
17847TIP3    H274957   4.932   1.944   1.741  1.5062 -0.7424 -0.3213
17848TIP3   OH274958   2.312   0.220  16.875  0.5384  0.3891 -0.0578
17848TIP3    H174959   2.263   0.179  16.946 -1.6872  0.3778 -1.5035
17848TIP3    H274960   2.340   0.147  16.820 -1.4437  0.5939 -1.4124
17849TIP3   OH274961   0.603   4.065  13.114  0.6764 -0.1123 -0.5502
17849TIP3    H174962   0.616   4.014  13.194 -1.1058 -1.1440 -0.8710
17849TIP3    H274963   0.532   4.126  13.136 -0.6477 -1.1974 -1.6547
17850TIP3   OH274964   1.333   1.327  11.312  0.4787  1.0685 -0.0309
17850TIP3    H174965   1.384   1.315  11.232 -2.6217  1.8401 -2.2845
17850TIP3    H274966   1.312   1.420  11.314  0.3203  1.0371  1.6246
17851TIP3   OH274967   5.196   6.590  14.603  0.5430  0.0674 -0.1325
17851TIP3    H174968   5.275   6.571  14.552  0.6293 -0.1411  0.0783
17851TIP3    H274969   5.211   6.548  14.687 -0.5332 -1.5311 -0.6856
17852TIP3   OH274970   1.927   2.576  12.469 -0.6041  0.1059  0.2267
17852TIP3    H174971   1.924   2.492  12.516  1.3146 -0.3966 -0.4535
17852TIP3    H274972   1.987   2.630  12.520 -0.3573  0.3899 -0.3520
17853TIP3   OH274973   1.406   3.441   1.884  0.3385  0.5137 -0.2379
17853TIP3    H174974   1.310   3.444   1.882  0.2818 -0.7994 -0.2413
17853TIP3    H274975   1.431   3.513   1.942 -0.6754  0.4126  0.3465
17854TIP3   OH274976   4.018   1.275  16.130 -0.1410  0.0008 -0.7110
17854TIP3    H174977   3.960   1.232  16.067  0.3469 -0.9116 -0.5433
17854TIP3    H274978   3.967   1.349  16.162 -1.3535 -0.9549 -0.3436
17855TIP3   OH274979   5.141   6.444   2.258  0.1940  0.8747  0.2625
17855TIP3    H174980   5.172   6.408   2.175  1.9235  0.8833  0.8591
17855TIP3    H274981   5.189   6.395   2.325 -2.1462 -0.0650  1.3530
17856TIP3   OH274982   4.079   1.755   5.504  0.7821 -0.5564 -0.3234
17856TIP3    H174983   4.066   1.749   5.599  1.3807  0.9008 -0.1340
17856TIP3    H274984   4.118   1.841   5.490 -0.7250 -0.0836 -2.0653
17857TIP3   OH274985   4.869   2.022   4.333 -0.1450  0.0178  0.6779
17857TIP3    H174986   4.939   1.957   4.343  0.0019 -0.1059 -0.9152
17857TIP3    H274987   4.900   2.081   4.264 -2.6298 -1.5558 -2.0445
17858TIP3   OH274988   5.602   3.594   2.370 -0.1471  0.7802 -0.3705
17858TIP3    H174989   5.539   3.665   2.384  1.2962  1.8862  0.7558
17858TIP3    H274990   5.578   3.558   2.284 -2.7288  0.6747  0.2933
17859TIP3   OH274991   3.774   0.152  11.294 -0.0095  0.1144  0.1252
17859TIP3    H174992   3.793   0.134  11.201 -0.0829  2.3111 -0.3740
17859TIP3    H274993   3.680   0.168  11.297  0.0302  0.2864  0.5251
17860TIP3   OH274994   2.750   2.321  13.008  0.2675 -0.3758  0.8076
17860TIP3    H174995   2.733   2.254  12.942 -1.3500  1.4247 -0.7095
17860TIP3    H274996   2.832   2.362  12.981 -0.9959  1.1861 -0.9425
17861TIP3   OH274997   2.857   6.127   5.128 -0.1783 -0.2115  1.3183
17861TIP3    H174998   2.768   6.093   5.120 -0.1822 -0.3483  1.9217
17861TIP3    H274999   2.895   6.078   5.201  1.2573 -2.0751 -0.5170
17862TIP3   OH275000   6.014   6.551  12.812  0.3587 -0.1762  0.0658
17862TIP3    H175001   5.935   6.601  12.834  1.1484  1.0461  0.2190
17862TIP3    H275002   6.021   6.559  12.717 -1.2174 -2.6670 -0.3487
17863TIP3   OH275003   1.038   0.384   5.371 -0.6599 -0.2798 -0.6167
17863TIP3    H175004   0.958   0.427   5.399  0.4234  1.1426  0.4732
17863TIP3    H275005   1.107   0.450   5.385  0.6492 -1.3212 -1.8466
17864TIP3   OH275006   3.909   1.329   0.734 -0.3199 -0.0394  0.0581
17864TIP3    H175007   3.817   1.338   0.762  0.4181  0.1173  2.6993
17864TIP3    H275008   3.945   1.417   0.740  0.0658 -0.1278 -0.8263
17865TIP3   OH275009   2.062   3.349   0.467 -0.1336 -0.1499 -0.6430
17865TIP3    H175010   2.050   3.270   0.413 -0.4821 -0.9098  0.5017
17865TIP3    H275011   2.140   3.330   0.519 -1.1775 -0.5021  0.8702
17866TIP3   OH275012   2.564   3.926  11.993 -0.6896  0.2315  0.1918
17866TIP3    H175013   2.547   4.011  12.034  0.2825  0.3630  0.3627
17866TIP3    H275014   2.634   3.888  12.046 -0.7821 -0.4638 -0.1778
17867TIP3   OH275015   0.873   6.715  15.490 -0.4459 -0.1163 -0.5964
17867TIP3    H175016   0.852   6.640  15.433 -1.5815 -1.2700  1.2416
17867TIP3    H275017   0.807   6.712  15.559  1.4222  0.6531  1.3246
17868TIP3   OH275018   0.757   5.735   4.823 -0.3276 -0.1041  0.1692
17868TIP3    H175019   0.750   5.806   4.759  0.2568  0.9163  1.2022
17868TIP3    H275020   0.792   5.661   4.773  1.3062  1.0298 -0.4502
17869TIP3   OH275021   2.213   6.357   3.890 -0.0256 -0.2035 -0.5885
17869TIP3    H175022   2.288   6.315   3.848 -0.5950 -2.5928  0.6159
17869TIP3    H275023   2.188   6.428   3.830  3.0131  0.5454 -1.1209
17870TIP3   OH275024   4.294   4.852   5.228 -0.7622 -0.0975  0.4328
17870TIP3    H175025   4.315   4.928   5.281 -0.4745 -0.6676  1.1445
17870TIP3    H275026   4.240   4.887   5.157  0.2888  0.9445  0.1120
17871TIP3   OH275027   5.874   2.502  13.402 -0.6279  0.0002  0.1852
17871TIP3    H175028   5.789   2.538  13.427 -1.6442 -2.0597 -0.0682
17871TIP3    H275029   5.900   2.447  13.476  0.3086  0.2963  0.0953
17872TIP3   OH275030   1.355   3.036  11.443 -0.4264 -0.0279 -0.0687
17872TIP3    H175031   1.377   3.129  11.447  1.9390 -0.4530 -1.1423
17872TIP3    H275032   1.353   3.016  11.349 -0.2157 -1.1788  0.1557
17873TIP3   OH275033   1.618   5.892   0.494 -0.4732 -0.0258 -0.0173
17873TIP3    H175034   1.553   5.834   0.534 -0.3890 -0.3825 -0.3991
17873TIP3    H275035   1.700   5.869   0.538 -0.1800 -1.1346 -1.0928
17874TIP3   OH275036   6.549   4.447   3.604 -0.5832 -0.6041  0.1304
17874TIP3    H175037   6.497   4.474   3.529 -1.4903  0.9853  1.2639
17874TIP3    H275038   6.496   4.378   3.646 -1.1143 -0.0019  0.4730
17875TIP3   OH275039   1.458   5.197  15.536  0.6045 -0.5155 -0.0590
17875TIP3    H175040   1.513   5.266  15.574 -1.0863 -0.4693  2.5600
17875TIP3    H275041   1.384   5.190  15.596 -1.0410 -2.2380 -2.1541
17876TIP3   OH275042   4.494   2.987  15.068 -0.0255  0.4814 -0.1400
17876TIP3    H175043   4.448   2.969  15.150  0.3710  0.0578 -0.0050
17876TIP3    H275044   4.553   2.912  15.057 -1.3886 -0.4291 -1.7639
17877TIP3   OH275045   1.890   3.191  13.487 -0.1907 -0.3440  0.4544
17877TIP3    H175046   1.925   3.245  13.558  0.4275  0.8077 -0.6781
17877TIP3    H275047   1.917   3.237  13.407 -0.9802 -1.5313 -0.5234
17878TIP3   OH275048   0.128   5.007   1.485  0.2959  0.1283 -0.3494
17878TIP3    H175049   0.159   4.921   1.511  0.5814  0.4894  0.5555
17878TIP3    H275050   0.035   4.994   1.463  0.9369 -0.8885 -2.7728
17879TIP3   OH275051   1.318   6.091   1.060 -0.1480  0.1523  0.1462
17879TIP3    H175052   1.332   6.003   1.095 -0.5517  0.3702  0.8842
17879TIP3    H275053   1.291   6.143   1.136 -2.0908  0.3964 -0.6535
17880TIP3   OH275054   1.505   4.122   5.502 -0.1807  0.2189 -0.6711
17880TIP3    H175055   1.556   4.047   5.471  0.7834  0.2585  0.7254
17880TIP3    H275056   1.428   4.124   5.444 -0.4192 -2.0498 -0.5383
17881TIP3   OH275057   4.567   2.451   3.493  0.2096  0.2618  0.8651
17881TIP3    H175058   4.583   2.369   3.446 -0.9212  0.2149  0.5328
17881TIP3    H275059   4.621   2.516   3.448  0.0388 -0.0222  0.2429
17882TIP3   OH275060   1.702   4.134   5.943  1.0133  0.1035 -1.0066
17882TIP3    H175061   1.743   4.090   6.017 -1.4419  0.4685  0.7112
17882TIP3    H275062   1.673   4.218   5.979 -3.1806 -0.9875 -1.2432
17883TIP3   OH275063   5.897   4.799  11.727  0.0398 -0.2591  0.7148
17883TIP3    H175064   5.878   4.779  11.635  2.4385 -2.8553  0.6645
17883TIP3    H275065   5.837   4.744  11.777  0.0865 -0.3648  0.6557
17884TIP3   OH275066   0.666   2.614  13.825 -0.2287  0.2946 -0.4974
17884TIP3    H175067   0.597   2.624  13.759  0.6084 -0.3680 -1.5191
17884TIP3    H275068   0.684   2.704  13.854 -0.8506  0.5645 -0.9225
17885TIP3   OH275069   5.597   1.296   0.461  0.0550 -0.4085  0.1408
17885TIP3    H175070   5.632   1.348   0.388  0.0096 -0.9214 -0.2501
17885TIP3    H275071   5.608   1.205   0.434 -1.6183 -0.6016 -0.0359
17886TIP3   OH275072   1.492   4.208   1.702 -0.0171  0.0582  0.2289
17886TIP3    H175073   1.464   4.116   1.705  1.3594 -0.4662 -1.3931
17886TIP3    H275074   1.503   4.226   1.608 -0.1634  1.8745  0.5237
17887TIP3   OH275075   3.906   6.760   2.002 -0.1827  0.4306  0.5962
17887TIP3    H175076   3.930   6.851   1.985  2.2480 -0.1145  0.7389
17887TIP3    H275077   3.886   6.757   2.095 -1.2452  0.9745  0.4063
17888TIP3   OH275078   3.488   0.460   3.200 -0.1870  0.1089  0.0294
17888TIP3    H175079   3.394   0.455   3.180 -0.0583  1.3385 -1.0314
17888TIP3    H275080   3.531   0.436   3.118  0.4114  1.0111  0.0687
17889TIP3   OH275081   1.305   4.130  14.382 -0.0225  0.1966 -0.2290
17889TIP3    H175082   1.230   4.074  14.362 -0.0167 -0.0154  0.3236
17889TIP3    H275083   1.322   4.114  14.475  0.5287  0.4598 -0.2849
17890TIP3   OH275084   2.872   4.767   3.675  0.0984 -0.1917  0.5802
17890TIP3    H175085   2.855   4.798   3.764 -1.2081 -0.1267  0.3267
17890TIP3    H275086   2.931   4.693   3.686  0.6280  0.3419  1.4309
17891TIP3   OH275087   0.024   3.654   0.366  0.1056 -0.1133  0.6291
17891TIP3    H175088   0.020   3.749   0.367  1.5983  0.0631 -1.4788
17891TIP3    H275089   0.087   3.632   0.434  0.3948  0.4815  0.5600
17892TIP3   OH275090   3.748   5.009   3.012 -0.0841 -0.2643 -0.1801
17892TIP3    H175091   3.701   4.931   3.042 -2.4223  1.5486  1.1350
17892TIP3    H275092   3.749   5.067   3.087  2.0339  0.8729 -0.9908
17893TIP3   OH275093   5.262   2.764   2.768  0.1857  0.1646  0.4330
17893TIP3    H175094   5.200   2.833   2.746  0.7938  0.4695 -0.3876
17893TIP3    H275095   5.287   2.783   2.859  1.0598  1.6143 -0.0702
17894TIP3   OH275096   6.228   0.820  14.470  0.0305  0.6655 -0.1305
17894TIP3    H175097   6.139   0.786  14.466  0.5103 -0.6433 -0.0425
17894TIP3    H275098   6.278   0.754  14.517  1.3379  0.7122 -1.3738
17895TIP3   OH275099   3.871   1.781   2.403 -0.3078  0.6734  0.3549
17895TIP3    H175100   3.843   1.760   2.314  1.1574  1.2568 -0.2765
17895TIP3    H275101   3.921   1.704   2.431  0.4819  1.0916  0.1034
17896TIP3   OH275102   5.511   4.690   3.399  0.5712  0.4070  0.9432
17896TIP3    H175103   5.458   4.762   3.432  0.1219  0.0846  0.9317
17896TIP3    H275104   5.601   4.724   3.400  0.3800  0.9156  1.0651
17897TIP3   OH275105   3.702   2.921   1.782  0.4125  0.0653 -0.2034
17897TIP3    H175106   3.690   2.906   1.688 -0.7511 -0.8258  0.0710
17897TIP3    H275107   3.680   2.837   1.823 -0.0146  0.7195  0.9399
17898TIP3   OH275108   5.337   0.429  13.857 -0.0771  0.3976  0.0981
17898TIP3    H175109   5.346   0.515  13.896  3.1820 -0.0572  0.6210
17898TIP3    H275110   5.426   0.400  13.839 -1.0316 -2.7285 -0.4160
17899TIP3   OH275111   1.270   4.395  14.275  0.0058  0.2373 -0.1633
17899TIP3    H175112   1.298   4.474  14.323  0.8916  0.6733 -1.3463
17899TIP3    H275113   1.264   4.328  14.343 -4.0746  1.9840  1.5240
17900TIP3   OH275114   6.439   1.286   0.319 -0.1124 -0.0021  0.6941
17900TIP3    H175115   6.489   1.235   0.255  0.3287 -0.8277  1.6574
17900TIP3    H275116   6.502   1.304   0.389 -0.4128  1.4367  0.6187
17901TIP3   OH275117   2.001   5.495  12.395  0.6766 -0.3884 -0.1627
17901TIP3    H175118   2.073   5.458  12.344  0.8012 -0.5238  0.1089
17901TIP3    H275119   1.955   5.419  12.430  0.3195 -0.3055 -0.4427
17902TIP3   OH275120   2.496   6.274   2.503  0.3903  0.4307  0.4445
17902TIP3    H175121   2.403   6.251   2.511  0.1291  1.3307  0.1274
17902TIP3    H275122   2.509   6.289   2.410  0.1705  2.9478  0.7468
17903TIP3   OH275123   3.489   1.387   2.245  0.4562 -0.6555  0.2538
17903TIP3    H175124   3.437   1.307   2.245 -0.7925  0.1063  1.2487
17903TIP3    H275125   3.459   1.436   2.168 -1.7705  0.6071  1.7866
17904TIP3   OH275126   3.140   4.360  14.977 -0.5361 -0.5647 -0.5678
17904TIP3    H175127   3.191   4.280  14.991 -1.6761 -1.0013  1.5068
17904TIP3    H275128   3.112   4.354  14.886  0.4679 -1.8871 -0.8284
17905TIP3   OH275129   4.856   5.137   3.422 -0.0019 -0.4823  0.4579
17905TIP3    H175130   4.828   5.191   3.495 -1.4627  2.2198 -1.8826
17905TIP3    H275131   4.941   5.172   3.397 -0.2712 -0.2510 -0.1503
17906TIP3   OH275132   6.518   4.794   4.373  0.0493  0.7073 -0.0113
17906TIP3    H175133   6.482   4.712   4.339 -0.0359  0.4908  0.5901
17906TIP3    H275134   6.557   4.837   4.297 -2.7934  1.6767 -1.0413
17907TIP3   OH275135   0.628   0.726   4.452 -0.3972  0.0342  0.4891
17907TIP3    H175136   0.637   0.790   4.382 -1.7305 -0.5809 -0.3037
17907TIP3    H275137   0.663   0.769   4.530  0.8599  0.8357 -0.4890
17908TIP3   OH275138   0.838   6.240  16.084  0.4100  0.2861 -0.1627
17908TIP3    H175139   0.781   6.188  16.141  0.1872  0.6195 -0.0812
17908TIP3    H275140   0.832   6.197  15.998 -0.0474  0.3827 -0.1795
17909TIP3   OH275141   0.470   4.289  11.365  0.5233 -0.3118  0.5022
17909TIP3    H175142   0.483   4.198  11.389 -0.1171 -0.9839 -1.5270
17909TIP3    H275143   0.522   4.301  11.285 -0.0720  0.8633  0.2617
17910TIP3   OH275144   1.532   2.006   3.988  0.0809  0.1272  0.3859
17910TIP3    H175145   1.596   1.936   4.003  0.4236  0.5708  1.0292
17910TIP3    H275146   1.500   2.028   4.075  0.3977  1.1593  0.2582
17911TIP3   OH275147   5.368   3.475   3.476 -0.1888 -0.1093  0.1851
17911TIP3    H175148   5.350   3.439   3.563  2.3649  1.4248  1.4447
17911TIP3    H275149   5.400   3.564   3.493  0.5521  0.1637 -2.3202
17912TIP3   OH275150   4.866   4.879  11.279  0.3500 -0.2964  0.1573
17912TIP3    H175151   4.886   4.786  11.271 -0.0680 -0.3309 -0.5001
17912TIP3    H275152   4.945   4.923  11.248  0.5041 -0.4277  0.3564
17913TIP3   OH275153   3.521   6.536  12.570 -0.0532  0.4244 -0.0229
17913TIP3    H175154   3.541   6.506  12.659  1.8606  0.1060 -0.5223
17913TIP3    H275155   3.604   6.531  12.523 -1.1563 -0.0837 -2.0489
17914TIP3   OH275156   5.816   2.462  17.291 -0.7964  0.1113  0.5889
17914TIP3    H175157   5.783   2.490  17.206 -2.0153 -0.7947  0.7354
17914TIP3    H275158   5.809   2.540  17.346 -0.3488  0.5982 -0.0404
17915TIP3   OH275159   2.329   3.732   4.475  0.0206  0.3776  0.0114
17915TIP3    H175160   2.409   3.770   4.438 -0.6734  1.7225 -0.1891
17915TIP3    H275161   2.260   3.794   4.451 -1.1777 -0.9973 -0.2624
17916TIP3   OH275162   6.019   5.925  15.337 -0.0176 -0.0595 -0.2853
17916TIP3    H175163   6.110   5.895  15.334  0.3484  0.8560  0.7477
17916TIP3    H275164   6.012   5.969  15.422 -1.7912 -1.2205  0.2071
17917TIP3   OH275165   5.433   5.193   3.809  0.1666 -0.1918  0.4735
17917TIP3    H175166   5.501   5.196   3.742 -2.4623  0.2919 -2.3762
17917TIP3    H275167   5.394   5.106   3.799 -1.5141  0.5802 -0.0397
17918TIP3   OH275168   0.425   2.995   5.263  0.3417  0.1738  0.4266
17918TIP3    H175169   0.425   2.977   5.357  0.7588  1.3003  0.6649
17918TIP3    H275170   0.491   2.935   5.227  0.6350  0.1782  0.9482
17919TIP3   OH275171   2.040   3.912  16.017 -0.3528 -1.0052  0.1292
17919TIP3    H175172   2.109   3.847  16.031  0.7888 -0.3350 -1.9841
17919TIP3    H275173   2.013   3.900  15.926 -0.0078  1.5411 -0.3720
17920TIP3   OH275174   4.348   0.075   2.540  0.6530 -0.0649  0.2292
17920TIP3    H175175   4.338   0.023   2.620  1.4359  1.1045  1.1250
17920TIP3    H275176   4.419   0.136   2.560 -0.3225  1.4342 -0.7376
17921TIP3   OH275177   6.439   4.295   0.383 -0.1685  0.1941  0.3935
17921TIP3    H175178   6.476   4.382   0.395 -0.4978  0.3399  0.3790
17921TIP3    H275179   6.485   4.239   0.445 -0.3162  0.4859  0.7688
17922TIP3   OH275180   4.253   5.472   2.954  0.2150 -0.2051 -0.0547
17922TIP3    H175181   4.158   5.470   2.946 -0.0651 -2.9811  2.3932
17922TIP3    H275182   4.277   5.384   2.981  3.1745  1.1124  2.2331
17923TIP3   OH275183   1.359   0.241   2.446  0.5903 -0.1542 -0.4821
17923TIP3    H175184   1.303   0.236   2.523 -0.6343 -1.4150 -1.3898
17923TIP3    H275185   1.384   0.150   2.429  2.2236  0.2940 -0.6170
17924TIP3   OH275186   0.232   2.958   0.262 -0.0246  0.2259 -0.4107
17924TIP3    H175187   0.266   3.023   0.201  2.1311  1.1025  1.5544
17924TIP3    H275188   0.271   2.875   0.234  2.0692  0.8488  0.4609
17925TIP3   OH275189   3.794   1.398  10.746 -0.2749  0.4906 -0.3751
17925TIP3    H175190   3.734   1.363  10.681 -1.5262 -1.3305  1.6107
17925TIP3    H275191   3.876   1.350  10.731 -0.6573 -0.1649 -0.4255
17926TIP3   OH275192   6.336   1.237   4.674  0.5335 -0.0408  0.3004
17926TIP3    H175193   6.284   1.218   4.752 -0.0197 -0.1563 -0.0822
17926TIP3    H275194   6.272   1.231   4.602  0.4803  2.3454  0.0604
17927TIP3   OH275195   3.243   0.057   5.467 -0.5218 -0.3441 -0.4028
17927TIP3    H175196   3.332   0.025   5.482 -0.2024  1.1096  1.1127
17927TIP3    H275197   3.186  -0.012   5.501  0.1405  0.6073  2.9388
17928TIP3   OH275198   4.088   3.803   0.001  0.2316  0.5615  0.4036
17928TIP3    H175199   4.070   3.883   0.051 -0.9780  1.7669 -1.7535
17928TIP3    H275200   4.045   3.733   0.050 -1.4138  1.7724  0.7990
17929TIP3   OH275201   5.247   3.694  11.084 -0.4509  0.2357  0.4626
17929TIP3    H175202   5.333   3.659  11.106  0.7539  2.4409 -0.3769
17929TIP3    H275203   5.237   3.771  11.140 -0.0475  2.2966 -2.0594
17930TIP3   OH275204   2.307   4.388  17.026  0.7143 -0.1578  0.0463
17930TIP3    H175205   2.257   4.395  17.108  1.7127  0.5324  0.6114
17930TIP3    H275206   2.335   4.296  17.024 -0.2047 -0.4564 -0.0823
17931TIP3   OH275207   2.546   0.265   2.553  0.8485  1.0130 -0.1693
17931TIP3    H175208   2.612   0.199   2.576 -1.4141 -1.1820  0.4427
17931TIP3    H275209   2.520   0.244   2.464 -0.4832  0.4919  0.3168
17932TIP3   OH275210   2.011   3.964  16.330 -0.4590 -0.0992  0.0830
17932TIP3    H175211   1.926   4.006  16.322 -0.4259 -0.2244 -1.1983
17932TIP3    H275212   2.052   3.978  16.245  0.3508 -1.0071  0.3090
17933TIP3   OH275213   2.552   6.532  13.945  0.1054 -0.0594 -0.0688
17933TIP3    H175214   2.607   6.546  14.022 -2.3991  0.7065  1.7051
17933TIP3    H275215   2.571   6.607  13.888  0.0652  0.8529  1.0766
17934TIP3   OH275216   5.794   1.351  13.410  0.2313 -0.4225 -0.0410
17934TIP3    H175217   5.840   1.401  13.343  0.8157 -0.0179  0.6524
17934TIP3    H275218   5.701   1.371  13.396  0.4546  0.8717  0.2317
17935TIP3   OH275219   0.270   1.783  14.674  0.0866 -0.0533  0.4318
17935TIP3    H175220   0.250   1.710  14.615  1.6991 -0.5545  0.4616
17935TIP3    H275221   0.353   1.818  14.641 -0.0689  1.0316  1.1368
17936TIP3   OH275222   6.435   3.303  13.876 -0.0315 -0.0442  0.5983
17936TIP3    H175223   6.369   3.347  13.821  0.1922  2.3392  2.1129
17936TIP3    H275224   6.389   3.227  13.911 -0.7686 -0.5528 -1.3063
17937TIP3   OH275225   0.866   2.363   1.056  0.4745 -0.3401 -0.2366
17937TIP3    H175226   0.809   2.328   0.988 -1.3858 -1.7611  1.9192
17937TIP3    H275227   0.898   2.446   1.021 -1.7399 -0.2187 -2.1362
17938TIP3   OH275228   1.773   0.207  13.105 -1.0463 -0.3798 -0.4056
17938TIP3    H175229   1.786   0.166  13.020 -0.9555 -0.4336 -0.3661
17938TIP3    H275230   1.796   0.139  13.168 -4.4245 -1.5465 -0.2481
17939TIP3   OH275231   6.301   2.672  13.295 -0.2584 -0.4157 -0.0264
17939TIP3    H175232   6.330   2.581  13.304  0.0571 -0.3699 -0.5475
17939TIP3    H275233   6.208   2.665  13.275 -0.1935 -0.6338 -0.2630
17940TIP3   OH275234   0.679   2.215   5.504  0.3782  0.2556  0.4600
17940TIP3    H175235   0.731   2.168   5.570 -0.1404  1.2812  1.6215
17940TIP3    H275236   0.683   2.306   5.531  1.2340  0.9134 -1.6874
17941TIP3   OH275237   0.300   4.109  13.575  0.3012  0.1936  0.0361
17941TIP3    H175238   0.313   4.110  13.670  1.0098  1.2119 -0.0608
17941TIP3    H275239   0.238   4.179  13.558  3.5077  3.1514 -0.6473
17942TIP3   OH275240   6.615   2.213  11.462  0.6855 -0.0286 -0.3855
17942TIP3    H175241   6.705   2.215  11.494  1.0593  1.9453 -1.3917
17942TIP3    H275242   6.613   2.140  11.401  0.8384 -1.7627  1.5724
17943TIP3   OH275243   3.362   6.631  15.683  0.0330 -0.3883 -0.2637
17943TIP3    H175244   3.338   6.715  15.644 -1.2763 -0.2520  0.7783
17943TIP3    H275245   3.307   6.623  15.761  1.6090 -1.2665  0.8287
17944TIP3   OH275246   4.957   0.035  15.020 -0.5052  0.8902  0.1222
17944TIP3    H175247   4.887   0.096  15.043 -0.5863  0.7328  0.2960
17944TIP3    H275248   4.926  -0.050  15.051 -0.0976  0.8742  0.4932
17945TIP3   OH275249   3.938   5.200   2.912  0.4504 -0.2460 -0.2812
17945TIP3    H175250   4.018   5.156   2.883  0.2305 -1.2200  0.5379
17945TIP3    H275251   3.873   5.129   2.919 -0.2044  0.3777  0.0474
17946TIP3   OH275252   0.662   2.486  15.941 -0.8683 -0.0659  0.0942
17946TIP3    H175253   0.646   2.394  15.962 -1.0316 -0.1957 -0.5552
17946TIP3    H275254   0.756   2.490  15.924 -0.9915 -0.3063 -0.7188
17947TIP3   OH275255   4.778   4.274   5.488 -0.6890 -0.5805 -0.1828
17947TIP3    H175256   4.830   4.229   5.555 -1.5566 -1.5681 -0.1351
17947TIP3    H275257   4.786   4.218   5.411  1.7144  1.4125 -1.5286
17948TIP3   OH275258   0.247   3.936  17.038  0.3212  0.3838 -0.7152
17948TIP3    H175259   0.290   3.927  16.954 -0.5775  0.9302 -1.2492
17948TIP3    H275260   0.235   4.030  17.050  0.8366  0.3387  0.2333
17949TIP3   OH275261   5.012   0.775   5.229  0.4680  0.4143 -0.6586
17949TIP3    H175262   5.028   0.708   5.295  0.9767 -0.4149 -1.5907
17949TIP3    H275263   4.970   0.847   5.277 -0.9376 -0.9123  0.1962
17950TIP3   OH275264   5.214   6.091  16.259 -0.4657  0.0210  0.2956
17950TIP3    H175265   5.171   6.055  16.181  0.9970  0.8070 -0.9460
17950TIP3    H275266   5.165   6.170  16.280  0.1332  0.7416 -0.9111
17951TIP3   OH275267   2.063   4.086  12.391  0.3783 -0.3982 -0.3162
17951TIP3    H175268   2.034   4.055  12.477  0.8120  0.3493  0.1067
17951TIP3    H275269   2.127   4.020  12.363  1.9555  0.5120  0.9706
17952TIP3   OH275270   1.973   2.456   6.628 -0.2968 -0.6049 -0.5029
17952TIP3    H175271   2.018   2.448   6.712 -0.3610 -1.3896 -0.5395
17952TIP3    H275272   2.044   2.455   6.563 -0.1941  0.6826 -0.4374
17953TIP3   OH275273   3.234   6.439   3.357 -0.1825 -0.2309  0.0297
17953TIP3    H175274   3.255   6.364   3.302  1.9317  0.0365  0.3992
17953TIP3    H275275   3.205   6.506   3.295 -0.3899 -0.7712 -0.4728
17954TIP3   OH275276   3.569   4.757  12.794 -0.1527 -0.2451  0.1727
17954TIP3    H175277   3.564   4.692  12.723 -1.4270 -0.8887  0.8075
17954TIP3    H275278   3.624   4.827  12.759  0.1522 -1.0563 -1.0343
17955TIP3   OH275279   5.647   4.628   0.254  0.1037 -0.1966 -0.1236
17955TIP3    H175280   5.652   4.546   0.304  0.5078  0.7799  1.5078
17955TIP3    H275281   5.556   4.633   0.225 -0.7093  0.1071  2.2086
17956TIP3   OH275282   2.904   1.921   6.668  0.3006  0.0252 -0.8520
17956TIP3    H175283   2.833   1.985   6.656 -0.3672 -0.5162  0.1131
17956TIP3    H275284   2.910   1.876   6.583 -0.8736 -0.2831 -0.7904
17957TIP3   OH275285   1.177   1.007  12.015 -0.1942  0.0654  0.1912
17957TIP3    H175286   1.150   0.917  12.031 -1.2717 -0.3462 -3.2236
17957TIP3    H275287   1.245   1.000  11.948 -1.1751  1.8285 -1.0582
17958TIP3   OH275288   1.188   2.196  16.385  0.2603  0.2387 -0.0561
17958TIP3    H175289   1.243   2.198  16.463 -0.2991 -3.1818  0.5929
17958TIP3    H275290   1.101   2.223  16.415  0.2579 -0.1566  0.2971
17959TIP3   OH275291   3.200   2.977   1.176 -0.0318 -0.3681 -0.0557
17959TIP3    H175292   3.117   2.993   1.131  1.0660  2.4654 -1.2966
17959TIP3    H275293   3.188   3.015   1.263 -0.5103 -1.3994  0.3494
17960TIP3   OH275294   6.326   5.239   1.289 -0.3762 -0.7203  0.0379
17960TIP3    H175295   6.283   5.274   1.211 -0.0448  0.1422  0.2292
17960TIP3    H275296   6.283   5.284   1.362  2.1506  1.7710  0.1731
17961TIP3   OH275297   3.324   0.139   2.320 -0.0137  0.0965 -0.7571
17961TIP3    H175298   3.289   0.063   2.367 -2.0806  1.5665  0.2391
17961TIP3    H275299   3.316   0.115   2.227  0.9933 -1.5441 -0.4555
17962TIP3   OH275300   5.389   6.019  13.344 -0.4878  0.0025  0.2753
17962TIP3    H175301   5.345   6.033  13.260  1.2521  0.6552 -0.5925
17962TIP3    H275302   5.409   5.926  13.346 -1.7050 -0.2631  0.5933
17963TIP3   OH275303   0.311   4.077  12.967 -0.0415 -0.3818  0.2851
17963TIP3    H175304   0.391   4.032  12.941  0.2710  0.6743 -0.6794
17963TIP3    H275305   0.306   4.153  12.908 -1.9719 -0.6484  0.0393
17964TIP3   OH275306   2.124   5.821   0.604  0.3492  0.1038  0.0320
17964TIP3    H175307   2.211   5.846   0.572 -0.4703  0.9722 -1.6708
17964TIP3    H275308   2.078   5.904   0.613 -0.6795 -0.4263 -0.2812
17965TIP3   OH275309   5.284   1.767  16.443 -0.1446 -0.2024  0.2604
17965TIP3    H175310   5.316   1.689  16.399  0.3039 -0.1552  0.4894
17965TIP3    H275311   5.192   1.773  16.419  0.0880 -0.1785 -0.6582
17966TIP3   OH275312   3.956   0.947  12.420 -0.6169 -0.0260 -0.9599
17966TIP3    H175313   3.874   0.961  12.467 -0.8769 -1.6212 -0.8996
17966TIP3    H275314   3.947   0.861  12.380  1.4413 -0.7305 -0.0487
17967TIP3   OH275315   0.916   2.365  12.198  0.8032 -0.4423 -0.0054
17967TIP3    H175316   0.965   2.331  12.273  0.9763 -1.0950 -0.4010
17967TIP3    H275317   0.824   2.350  12.220  0.6248  2.2163  1.4354
17968TIP3   OH275318   6.261   1.979  12.162  0.4666  0.2301  0.2100
17968TIP3    H175319   6.199   2.007  12.096  0.4781 -0.4103 -0.0782
17968TIP3    H275320   6.346   2.011  12.131  0.3055  1.0329  0.5635
17969TIP3   OH275321   2.312   2.534  16.283  0.0769  0.4338 -0.5306
17969TIP3    H175322   2.326   2.581  16.201  2.7530  1.8586  0.6036
17969TIP3    H275323   2.240   2.580  16.326 -3.0764 -1.8089 -2.9510
17970TIP3   OH275324   1.323   2.554  16.107  0.0414  0.4617 -0.1414
17970TIP3    H175325   1.286   2.530  16.022  0.5072 -1.9905  0.2568
17970TIP3    H275326   1.248   2.557  16.166 -0.0252 -0.3213 -0.1717
17971TIP3   OH275327   0.534   3.391   1.597  0.1265  0.5847 -0.0697
17971TIP3    H175328   0.479   3.454   1.550  0.7840  0.0887 -1.5559
17971TIP3    H275329   0.608   3.444   1.629  0.6509  0.6104 -1.2686
17972TIP3   OH275330   0.472   5.098  14.263  0.5231  0.6177 -0.7407
17972TIP3    H175331   0.494   5.005  14.260 -2.1056 -0.0824 -0.8023
17972TIP3    H275332   0.503   5.128  14.348 -0.6447 -0.9404  0.2752
17973TIP3   OH275333   2.254   3.751   0.893  0.6361 -0.2220 -0.2966
17973TIP3    H175334   2.162   3.735   0.869  0.8169  0.7294 -1.7802
17973TIP3    H275335   2.257   3.845   0.913  1.2813 -0.2493 -0.2583
17974TIP3   OH275336   5.232   5.043   5.086  0.0567 -0.5730  0.0520
17974TIP3    H175337   5.166   4.975   5.092 -0.7476  0.3070  2.3161
17974TIP3    H275338   5.185   5.124   5.106  1.3188  0.4547 -0.9134
17975TIP3   OH275339   6.671   2.354  15.705 -0.2957  0.0030  0.1812
17975TIP3    H175340   6.761   2.369  15.733 -0.5035  0.6203  0.5263
17975TIP3    H275341   6.617   2.407  15.764 -0.9038 -0.5173  0.1114
17976TIP3   OH275342   5.058   3.935   5.312  0.1583  0.2181 -0.0740
17976TIP3    H175343   5.085   4.011   5.364 -0.1020  0.4772 -0.3182
17976TIP3    H275344   5.101   3.861   5.355 -1.1143  0.2481  1.3257
17977TIP3   OH275345   0.389   5.605   4.111 -0.0359 -0.0180  0.2769
17977TIP3    H175346   0.460   5.664   4.137  1.4728 -0.9324 -1.5406
17977TIP3    H275347   0.391   5.535   4.176  0.2782  0.2978  0.6101
17978TIP3   OH275348   1.011   3.831  15.241  0.3751 -0.0305  0.0219
17978TIP3    H175349   1.011   3.834  15.337  1.0689  0.7728  0.0101
17978TIP3    H275350   0.980   3.743  15.220 -1.2542  0.2648  0.9564
17979TIP3   OH275351   1.403   1.233  12.662 -0.3667 -0.1987 -0.1255
17979TIP3    H175352   1.341   1.160  12.659  0.2526 -0.7049 -1.3876
17979TIP3    H275353   1.379   1.289  12.589 -1.3018  1.3184  1.2626
17980TIP3   OH275354   3.154   1.167   1.356  0.3634 -0.8039 -0.5204
17980TIP3    H175355   3.079   1.228   1.348  1.7752  1.0189 -0.5813
17980TIP3    H275356   3.164   1.154   1.450  1.1710  0.6075 -0.3746
17981TIP3   OH275357   1.808   6.488  17.267  0.3712 -0.3184 -0.1694
17981TIP3    H175358   1.813   6.581  17.290  0.3680  0.0214 -1.4393
17981TIP3    H275359   1.860   6.444  17.334  2.1269  0.8256 -0.7110
17982TIP3   OH275360   4.405   3.873  13.761  0.2065 -0.4245  0.0924
17982TIP3    H175361   4.384   3.832  13.845 -0.1510 -0.8185 -0.1828
17982TIP3    H275362   4.326   3.859  13.708  0.7771 -1.0160 -0.6170
17983TIP3   OH275363   4.606   6.286   3.123  0.2184  0.9021  0.0353
17983TIP3    H175364   4.630   6.246   3.207 -1.3692 -0.3021 -0.0153
17983TIP3    H275365   4.511   6.296   3.129 -0.0752 -0.1603 -1.9814
17984TIP3   OH275366   0.020   3.408  15.958 -0.4115  0.5791  0.0794
17984TIP3    H175367   0.024   3.473  16.029  1.0536  0.5829  0.0244
17984TIP3    H275368   0.068   3.449  15.885  0.0541 -0.3334 -0.1468
17985TIP3   OH275369   3.551   4.949   2.216  0.0421 -0.7791 -0.1765
17985TIP3    H175370   3.609   4.961   2.291 -1.3686  0.2086  0.7989
17985TIP3    H275371   3.605   4.973   2.141  0.8997  0.1983  0.7012
17986TIP3   OH275372   6.486   5.734   4.739 -0.0027 -0.2837  0.6679
17986TIP3    H175373   6.420   5.794   4.704  0.6520 -0.0695 -0.2513
17986TIP3    H275374   6.517   5.778   4.819  0.0406  0.3152  0.3323
17987TIP3   OH275375   6.690   0.233   5.042  0.0122 -0.0760 -0.0088
17987TIP3    H175376   6.694   0.142   5.014  0.4791  0.0826 -0.4724
17987TIP3    H275377   6.614   0.237   5.100  0.3663 -0.8907  0.5196
17988TIP3   OH275378   2.986   3.765  15.908 -0.2205  0.4705  0.0045
17988TIP3    H175379   2.940   3.720  15.837  1.7390  0.9256 -1.6650
17988TIP3    H275380   3.007   3.696  15.971 -1.8288  0.0189  0.1018
17989TIP3   OH275381   4.545   2.199  10.840 -0.0674 -0.0614 -0.0840
17989TIP3    H175382   4.596   2.228  10.764  1.8847  1.1170  1.5610
17989TIP3    H275383   4.513   2.280  10.879  1.5981 -0.3189  2.0343
17990TIP3   OH275384   4.506   0.761  12.023 -0.1536  0.8499 -0.2243
17990TIP3    H175385   4.493   0.829  12.090  0.6914 -0.7582  1.6918
17990TIP3    H275386   4.600   0.744  12.025 -0.6699 -2.6094  1.8201
17991TIP3   OH275387   6.716   4.832   3.468 -0.3645  0.0342 -0.2591
17991TIP3    H175388   6.682   4.785   3.543 -0.4962  0.9791  0.2937
17991TIP3    H275389   6.668   4.798   3.393 -0.6443 -0.5027  0.1633
17992TIP3   OH275390   4.469   1.045   1.526 -0.2987 -0.1138  0.0451
17992TIP3    H175391   4.492   0.953   1.532  1.4483  0.2548 -0.6107
17992TIP3    H275392   4.489   1.081   1.613  1.1974  0.1016 -0.3752
17993TIP3   OH275393   0.794   4.169   3.992 -0.0330 -0.1346 -0.5032
17993TIP3    H175394   0.783   4.245   4.050 -0.4826  1.6262 -2.7156
17993TIP3    H275395   0.878   4.184   3.948 -1.2362  0.5181 -2.7705
17994TIP3   OH275396   6.193   2.798   5.988 -0.3330 -0.6522 -0.0246
17994TIP3    H175397   6.261   2.866   5.988 -1.3714  0.4109  0.1527
17994TIP3    H275398   6.242   2.716   5.978  0.9716  0.0863  0.0341
17995TIP3   OH275399   0.825   1.658   0.075  0.5204  0.2809  0.4519
17995TIP3    H175400   0.815   1.578   0.126  1.3635  0.1512  0.4233
17995TIP3    H275401   0.917   1.681   0.085  0.7099  0.2293 -1.0461
17996TIP3   OH275402   6.171   6.192   3.639 -0.2952 -0.1153 -0.2434
17996TIP3    H175403   6.205   6.272   3.681 -0.5563  0.5431 -1.2453
17996TIP3    H275404   6.240   6.127   3.652  0.9432  0.9224 -1.3723
17997TIP3   OH275405   5.353   3.025  15.835 -0.0184 -0.1834  0.5395
17997TIP3    H175406   5.350   3.107  15.883  2.4020  0.3684 -0.1465
17997TIP3    H275407   5.357   2.958  15.903  1.7820  0.4963  1.1516
17998TIP3   OH275408   4.222   4.789  15.649 -0.2250 -0.3777 -0.1991
17998TIP3    H175409   4.191   4.705  15.616 -0.7770  0.0153 -0.6996
17998TIP3    H275410   4.152   4.818  15.708  0.2384 -0.5432  0.4500
17999TIP3   OH275411   4.664   4.964   4.433  0.5866 -0.6577  0.1146
17999TIP3    H175412   4.661   5.052   4.471 -2.3662 -0.8260  0.4613
17999TIP3    H275413   4.733   4.919   4.481  1.3901  1.1264  0.6928
18000TIP3   OH275414   1.823   1.479   4.994 -0.1972  0.2293 -0.1708
18000TIP3    H175415   1.894   1.526   5.040  0.8279 -0.9555 -0.4855
18000TIP3    H275416   1.829   1.510   4.904  1.3411 -1.3855 -0.6833
18001TIP3   OH275417   2.216   3.126   5.484 -0.4395 -0.1039  0.3983
18001TIP3    H175418   2.297   3.114   5.533  1.0446  1.4826 -1.4799
18001TIP3    H275419   2.213   3.219   5.464 -2.6683 -0.1522  0.2337
18002TIP3   OH275420   3.462   4.015   3.341  0.1064  0.3025 -0.3303
18002TIP3    H175421   3.549   4.013   3.301 -0.5713  0.3076 -1.8959
18002TIP3    H275422   3.407   3.967   3.279 -0.9950  0.2621  0.6598
18003TIP3   OH275423   5.388   0.654  16.725 -0.3263  0.1895  0.8090
18003TIP3    H175424   5.385   0.713  16.801 -0.1068  0.8789  0.2957
18003TIP3    H275425   5.406   0.568  16.763 -2.3061  0.1188  1.7271
18004TIP3   OH275426   3.693   3.368   0.654 -0.3082  0.7228  0.3105
18004TIP3    H175427   3.760   3.413   0.706 -1.8291  1.1955  1.9861
18004TIP3    H275428   3.737   3.289   0.621  1.2222  1.3091  0.8511
18005TIP3   OH275429   5.927   0.129  15.609  0.0399 -0.5247  0.8729
18005TIP3    H175430   5.933   0.102  15.701 -0.7310 -0.2403  1.0116
18005TIP3    H275431   5.886   0.054  15.565  0.4977 -0.6992  0.7411
18006TIP3   OH275432   0.686   0.484  15.584  0.6080 -0.4509 -0.1213
18006TIP3    H175433   0.702   0.422  15.513  0.2776  0.1825 -0.7633
18006TIP3    H275434   0.597   0.516  15.568  1.0545  0.7779 -0.2824
18007TIP3   OH275435   1.142   1.421  13.496  0.1445 -0.4667 -0.1625
18007TIP3    H175436   1.067   1.422  13.555  0.2120 -0.4683 -0.0766
18007TIP3    H275437   1.179   1.509  13.503  0.1977 -0.4906 -0.1448
18008TIP3   OH275438   6.140   1.044  13.412 -0.4222  0.0880  0.2938
18008TIP3    H175439   6.146   1.118  13.473 -1.5484  1.7560 -1.4833
18008TIP3    H275440   6.050   1.014  13.421 -1.0535  1.2718 -1.4400
18009TIP3   OH275441   1.907   3.433  15.084  0.0796 -0.0799  0.1834
18009TIP3    H175442   1.887   3.393  14.999  0.1134 -3.3849  1.5756
18009TIP3    H275443   1.822   3.443  15.127  0.2941 -2.4344  1.3064
18010TIP3   OH275444   3.024   0.956  17.182 -0.5005  0.0551 -0.1993
18010TIP3    H175445   3.078   0.879  17.196  0.3184  0.4343 -1.1810
18010TIP3    H275446   3.086   1.027  17.163 -1.2198  1.0083  0.8655
18011TIP3   OH275447   0.274   3.597   0.083  0.0228 -0.5764  0.2346
18011TIP3    H175448   0.344   3.609   0.147 -2.5026  1.0857  2.9464
18011TIP3    H275449   0.273   3.678   0.032  1.0044 -1.2545 -0.9273
18012TIP3   OH275450   2.847   2.534  12.758  0.4025  0.2579  0.2530
18012TIP3    H175451   2.792   2.607  12.786  0.7629  1.2861 -1.5653
18012TIP3    H275452   2.802   2.498  12.681  1.3199 -0.0742 -0.1441
18013TIP3   OH275453   4.993   3.768   0.584  0.3040 -0.3671 -0.3505
18013TIP3    H175454   5.077   3.799   0.550  1.0198 -0.7844  0.9718
18013TIP3    H275455   5.016   3.719   0.663 -1.3089  0.8632  0.9542
18014TIP3   OH275456   5.491   2.400  13.400 -0.0904  0.0457  0.2406
18014TIP3    H175457   5.425   2.462  13.369  0.8412  0.1266 -1.6844
18014TIP3    H275458   5.566   2.455  13.424  0.2291 -0.2350 -0.1117
18015TIP3   OH275459   5.439   5.887   3.062  0.0926 -0.0763  0.0029
18015TIP3    H175460   5.389   5.901   2.982 -0.3917  0.3973  0.3787
18015TIP3    H275461   5.527   5.864   3.032  0.1927  1.0862 -0.6690
18016TIP3   OH275462   0.815   2.927   5.931 -0.0512 -0.5675 -0.2458
18016TIP3    H175463   0.828   2.985   5.855  0.6093 -2.3890 -1.6090
18016TIP3    H275464   0.722   2.933   5.950 -0.0183  0.8234 -0.4481
18017TIP3   OH275465   2.404   4.071  14.477 -0.5782 -0.7937  0.0665
18017TIP3    H175466   2.493   4.106  14.471 -0.8950 -0.1914 -2.2542
18017TIP3    H275467   2.408   3.986  14.433 -1.2782 -0.4368 -0.7230
18018TIP3   OH275468   6.639   1.114   5.691 -0.0211 -0.0156 -0.4212
18018TIP3    H175469   6.654   1.197   5.734  1.8107 -1.0719  1.1450
18018TIP3    H275470   6.592   1.061   5.755  1.1118 -0.9999 -0.3591
18019TIP3   OH275471   6.232   2.548  16.352 -0.5282  0.2869  0.3394
18019TIP3    H175472   6.265   2.584  16.269  1.3129 -0.2791  0.7833
18019TIP3    H275473   6.296   2.574  16.417 -0.6960 -1.2686  1.1888
18020TIP3   OH275474   5.265   3.827  10.671 -0.1884 -0.4001 -0.3566
18020TIP3    H175475   5.205   3.891  10.631 -1.7365 -1.5584  0.0195
18020TIP3    H275476   5.351   3.848  10.634 -0.5474  2.1558  0.0695
18021TIP3   OH275477   4.843   4.173   5.824  0.2773  0.1287 -0.1913
18021TIP3    H175478   4.855   4.190   5.918  0.4664 -1.4002  0.0772
18021TIP3    H275479   4.930   4.148   5.793  0.7250  2.6784 -1.2830
18022TIP3   OH275480   4.024   1.641  12.883 -0.0030  0.1538 -0.0209
18022TIP3    H175481   4.113   1.614  12.902 -0.3230  0.2253  1.8010
18022TIP3    H275482   3.999   1.590  12.806  1.0903 -1.0060  0.3600
18023TIP3   OH275483   2.533   5.808  11.803 -0.4927  0.7126 -0.1388
18023TIP3    H175484   2.547   5.783  11.894 -1.5510 -1.9133 -0.5820
18023TIP3    H275485   2.438   5.823  11.797 -0.4273  0.8950 -0.7827
18024TIP3   OH275486   5.761   0.011   2.066  0.0420 -0.1240  0.5490
18024TIP3    H175487   5.754   0.091   2.014  1.3482  0.3367  1.0513
18024TIP3    H275488   5.822  -0.044   2.017  2.3075  0.8186  2.1219
18025TIP3   OH275489   0.122   2.191  16.380  0.0060 -0.5695  0.1648
18025TIP3    H175490   0.107   2.258  16.314  0.6887 -0.6845 -0.1141
18025TIP3    H275491   0.209   2.211  16.415  0.1185 -1.1700  0.2395
18026TIP3   OH275492   4.237   0.973  14.420  0.0509 -0.3555 -1.1304
18026TIP3    H175493   4.251   0.912  14.347 -0.0263 -0.6553 -0.8967
18026TIP3    H275494   4.240   0.918  14.498 -1.3494 -0.2728 -0.9927
18027TIP3   OH275495   5.167   6.550   2.697  0.2148  0.0266 -0.1692
18027TIP3    H175496   5.205   6.608   2.763  0.1785  0.6347 -0.6760
18027TIP3    H275497   5.088   6.595   2.668  0.0627 -0.3869 -0.4075
18028TIP3   OH275498   1.012   3.641  15.753 -0.4647  0.1147  0.0753
18028TIP3    H175499   1.000   3.575  15.822 -0.8804  0.6875  0.5555
18028TIP3    H275500   1.037   3.720  15.800 -0.3711  0.4097 -0.4703
18029TIP3   OH275501   2.380   4.836  12.716  0.1772  0.1002 -0.3342
18029TIP3    H175502   2.466   4.844  12.675  0.2583 -1.1846 -0.4487
18029TIP3    H275503   2.342   4.758  12.676 -0.2794 -0.4324  1.0955
18030TIP3   OH275504   2.977   3.878   2.630 -0.5135 -0.1218 -0.2048
18030TIP3    H175505   2.937   3.799   2.667 -0.2380 -0.0660  0.2196
18030TIP3    H275506   2.951   3.877   2.538 -0.1658 -0.9305 -0.3060
18031TIP3   OH275507   4.727   0.831   5.492  0.0550 -0.2592 -0.2552
18031TIP3    H175508   4.817   0.852   5.467 -0.6561  1.8511 -1.3080
18031TIP3    H275509   4.681   0.823   5.408 -0.3277 -3.6699  0.1789
18032TIP3   OH275510   0.639   5.754   5.421 -0.2866  0.4570 -0.9486
18032TIP3    H175511   0.613   5.669   5.458  1.0765  0.2935 -0.2949
18032TIP3    H275512   0.700   5.732   5.351 -1.8262  0.8327 -2.4801
18033TIP3   OH275513   0.511   6.449  14.066  0.1019 -0.0106 -0.2934
18033TIP3    H175514   0.551   6.513  14.007  2.1047  0.4380  1.4137
18033TIP3    H275515   0.523   6.486  14.154 -0.7482 -1.6666  0.5772
18034TIP3   OH275516   4.128   6.174  12.896 -0.0785  0.0234  0.2804
18034TIP3    H175517   4.121   6.120  12.817 -0.4619 -0.0297  0.3485
18034TIP3    H275518   4.212   6.218  12.887  0.7075 -1.3259  0.6864
18035TIP3   OH275519   6.591   1.251   1.486  0.6224  0.0067  0.0243
18035TIP3    H175520   6.566   1.271   1.395 -0.3378  1.5094  0.5782
18035TIP3    H275521   6.545   1.169   1.505 -0.0328  0.2288 -0.5281
18036TIP3   OH275522   1.257   4.545  14.042 -0.1827  0.4256  0.4370
18036TIP3    H175523   1.334   4.601  14.053  0.3191  0.2040 -1.4496
18036TIP3    H275524   1.265   4.479  14.110 -0.3379  2.1143  2.1697
18037TIP3   OH275525   3.027   5.687   4.594  0.3881  0.1358  0.6581
18037TIP3    H175526   3.015   5.707   4.501 -1.5815  1.4203  1.1455
18037TIP3    H275527   3.042   5.772   4.635  2.1206 -0.5076  1.4377
18038TIP3   OH275528   1.056   3.163  13.611 -0.9002 -0.1791 -0.2249
18038TIP3    H175529   1.093   3.158  13.523  1.7085  1.0044  0.6952
18038TIP3    H275530   1.124   3.125  13.668 -2.5056 -0.8979  1.3119
18039TIP3   OH275531   6.662   5.685  13.992  0.0684  0.0051  0.5273
18039TIP3    H175532   6.756   5.670  13.979  0.3457  0.6034  1.7138
18039TIP3    H275533   6.626   5.690  13.903  0.9385 -1.4398  0.0584
18040TIP3   OH275534   5.702   4.427  13.202 -0.9697  0.5267  0.2818
18040TIP3    H175535   5.752   4.347  13.183 -1.0699  0.6881 -0.7100
18040TIP3    H275536   5.611   4.402  13.189 -1.1092  0.4406  1.3402
18041TIP3   OH275537   1.886   1.821   2.338 -0.3198  0.2400  0.1285
18041TIP3    H175538   1.972   1.840   2.374  0.3114  0.6224 -1.4696
18041TIP3    H275539   1.905   1.780   2.253 -1.6731 -2.5757  1.0380
18042TIP3   OH275540   4.938   2.288  15.363 -0.2210  0.8368 -0.6186
18042TIP3    H175541   4.935   2.210  15.418  2.6765  0.7099 -0.4751
18042TIP3    H275542   4.975   2.257  15.280  0.9977  2.0452 -0.5516
18043TIP3   OH275543   5.896   6.663   4.453 -0.2121 -0.5010  0.1128
18043TIP3    H175544   5.948   6.625   4.381  0.8538 -2.6767  1.9103
18043TIP3    H275545   5.910   6.757   4.446  0.8447 -0.7484 -1.7877
18044TIP3   OH275546   6.577   4.931   3.861  0.3558 -0.5055 -0.5576
18044TIP3    H175547   6.610   4.855   3.910 -2.2967 -2.5095 -1.5991
18044TIP3    H275548   6.572   4.900   3.770 -0.9202  0.8521 -0.9833
18045TIP3   OH275549   4.671   3.019  11.101  0.4595  0.3775  0.4201
18045TIP3    H175550   4.661   2.940  11.154  1.2109 -0.0038  0.0133
18045TIP3    H275551   4.705   2.987  11.017 -0.6533  0.9763 -0.2730
18046TIP3   OH275552   6.232   3.534   4.514  0.7702 -0.3439  0.1211
18046TIP3    H175553   6.281   3.563   4.590 -2.0676  2.3352  1.0983
18046TIP3    H275554   6.154   3.492   4.549  0.1234 -0.4371 -1.3337
18047TIP3   OH275555   1.114   3.394  12.353 -0.1862  0.0609 -0.5401
18047TIP3    H175556   1.123   3.312  12.402 -2.3272 -0.6430 -1.2505
18047TIP3    H275557   1.122   3.369  12.261 -2.6477  0.3070 -0.8747
18048TIP3   OH275558   6.479   1.044  15.616 -0.0268 -0.3761 -0.4041
18048TIP3    H175559   6.386   1.031  15.633  0.2497 -2.0625  0.0459
18048TIP3    H275560   6.489   1.030  15.522 -0.5222  2.1083 -0.9058
18049TIP3   OH275561   5.156   5.444  16.871  0.4364  0.1119  0.0455
18049TIP3    H175562   5.240   5.441  16.824  1.2855  1.5934  1.3979
18049TIP3    H275563   5.156   5.364  16.924 -0.0165 -0.9915 -1.5285
18050TIP3   OH275564   4.215   4.951  15.206 -0.2439 -0.1853  0.5687
18050TIP3    H175565   4.161   5.027  15.187 -0.4069 -0.6958 -1.2381
18050TIP3    H275566   4.158   4.876  15.188  0.7573 -0.7248 -0.5346
18051TIP3   OH275567   6.632   0.270   5.890 -0.1998  0.1940  0.2086
18051TIP3    H175568   6.645   0.175   5.899 -1.4773 -0.0704 -0.4703
18051TIP3    H275569   6.714   0.308   5.922  0.6878 -1.1681 -0.3080
18052TIP3   OH275570   2.623   3.114  14.786 -0.2035  0.4862  0.0407
18052TIP3    H175571   2.686   3.133  14.716  0.2540  0.9496  0.5720
18052TIP3    H275572   2.538   3.142  14.750 -0.0445  0.2543 -0.5181
18053TIP3   OH275573   1.529   4.673   3.115  0.1887 -0.7437 -0.1590
18053TIP3    H175574   1.617   4.696   3.145  0.2077 -0.8304 -0.1493
18053TIP3    H275575   1.483   4.757   3.109  0.3956 -0.6589 -0.5606
18054TIP3   OH275576   6.712   4.626   0.695 -0.4236  0.0055  0.1382
18054TIP3    H175577   6.744   4.687   0.628  1.7102 -0.8040  0.3367
18054TIP3    H275578   6.665   4.558   0.645 -1.2596  0.8466 -0.2468
18055TIP3   OH275579   3.708   4.099   2.085  0.0233 -0.4662 -0.0198
18055TIP3    H175580   3.650   4.071   2.157 -0.2900 -0.4181 -0.2512
18055TIP3    H275581   3.661   4.171   2.043  0.0478 -0.7246 -0.4921
18056TIP3   OH275582   1.655   0.572  15.624  0.1028  0.8210  0.5906
18056TIP3    H175583   1.714   0.640  15.591  1.6300 -0.1342  1.2297
18056TIP3    H275584   1.696   0.490  15.596 -1.1406  0.1333  0.7294
18057TIP3   OH275585   1.116   1.378   6.511  0.1156  0.1410 -0.0215
18057TIP3    H175586   1.076   1.455   6.551 -0.4924 -0.3398  0.3188
18057TIP3    H275587   1.194   1.361   6.564 -0.6534 -0.4566  0.9556
18058TIP3   OH275588   1.127   6.739   3.044  0.1720  0.1264  0.6810
18058TIP3    H175589   1.199   6.677   3.033  1.4229  1.3240  1.6465
18058TIP3    H275590   1.073   6.700   3.113  0.4500 -0.3332  0.6436
18059TIP3   OH275591   4.831   4.695  16.596 -0.7855 -0.2555 -0.2877
18059TIP3    H175592   4.784   4.776  16.577  1.0365  0.7354 -0.7965
18059TIP3    H275593   4.910   4.723  16.642 -0.5592 -1.8432  0.3738
18060TIP3   OH275594   2.495   1.805  17.030 -0.1836 -0.7482  0.2236
18060TIP3    H175595   2.483   1.887  16.983  1.8689 -1.7253 -2.2311
18060TIP3    H275596   2.581   1.813  17.071 -0.3031 -1.4023  0.6239
18061TIP3   OH275597   5.524   1.188   6.386  0.4525 -0.6975 -0.5893
18061TIP3    H175598   5.465   1.248   6.432 -0.1896  0.0077 -2.2531
18061TIP3    H275599   5.599   1.178   6.445  0.1094  0.9462  0.1783
18062TIP3   OH275600   4.114   4.856  14.449  0.0066 -0.4332  0.0208
18062TIP3    H175601   4.169   4.832  14.524 -0.9329  0.9668  1.2083
18062TIP3    H275602   4.166   4.832  14.372  1.7651 -0.2439  1.1026
18063TIP3   OH275603   1.331   3.235  14.680 -0.0092 -0.2114 -0.0607
18063TIP3    H175604   1.263   3.273  14.625  2.0143  0.0889 -2.5335
18063TIP3    H275605   1.387   3.309  14.704  0.9031 -0.8154 -0.2867
18064TIP3   OH275606   5.834   1.019   1.500  0.1719  0.3655  0.3783
18064TIP3    H175607   5.775   1.091   1.521 -0.7970 -0.2788 -0.0844
18064TIP3    H275608   5.899   1.057   1.441 -1.0075  0.6128 -0.8074
18065TIP3   OH275609   0.755   1.173   3.421 -0.0075 -0.1975 -0.0456
18065TIP3    H175610   0.837   1.216   3.448 -1.9187  3.8166  0.0950
18065TIP3    H275611   0.726   1.125   3.498  0.9237  0.5191  0.7728
18066TIP3   OH275612   5.695   3.358  11.319 -0.1160 -0.0536  0.1245
18066TIP3    H175613   5.683   3.300  11.244 -2.3704 -2.2937  2.0268
18066TIP3    H275614   5.719   3.442  11.281 -0.2853 -1.3014 -3.0211
18067TIP3   OH275615   1.571   5.956  16.321  0.2144 -0.3616  0.0660
18067TIP3    H175616   1.484   5.996  16.316  0.5021  0.2544 -0.1537
18067TIP3    H275617   1.570   5.887  16.255  0.0498 -0.0320 -0.2799
18068TIP3   OH275618   0.406   4.346  10.530 -0.7702 -0.4448  0.0897
18068TIP3    H175619   0.421   4.272  10.589 -1.2053  0.4020  1.3104
18068TIP3    H275620   0.353   4.407  10.581  0.8831  1.4158 -0.3038
18069TIP3   OH275621   5.667   4.997  14.735 -0.2617 -0.1161 -0.2768
18069TIP3    H175622   5.689   4.967  14.823  0.9429  0.1604 -0.4690
18069TIP3    H275623   5.642   5.089  14.746 -0.1328 -0.0879 -0.2300
18070TIP3   OH275624   1.345   6.724  16.401  0.6240 -0.1140 -0.0279
18070TIP3    H175625   1.260   6.768  16.392  1.3981  1.2248 -1.1400
18070TIP3    H275626   1.333   6.640  16.357  0.2399  0.6411 -1.4401
18071TIP3   OH275627   2.937   6.545   0.903 -0.4315 -0.4465 -0.1370
18071TIP3    H175628   2.904   6.562   0.991 -0.6929 -1.4442 -0.0299
18071TIP3    H275629   3.032   6.559   0.910 -0.2334 -2.0542  0.7138
18072TIP3   OH275630   5.301   2.357   5.365  0.7359 -0.1328 -0.3513
18072TIP3    H175631   5.307   2.452   5.355  0.5257 -0.2024 -1.1954
18072TIP3    H275632   5.353   2.338   5.443 -0.4545  0.8384  0.7328
18073TIP3   OH275633   3.826   2.098   5.982  0.1588 -0.3141  0.3017
18073TIP3    H175634   3.872   2.040   6.043 -1.8294 -0.5861  1.6202
18073TIP3    H275635   3.816   2.045   5.903  1.5932 -0.4278  0.1630
18074TIP3   OH275636   6.527   3.474   2.087  0.0874 -0.2383 -0.4067
18074TIP3    H175637   6.566   3.459   2.173 -2.7723  0.4454  1.1405
18074TIP3    H275638   6.439   3.437   2.093 -0.9075  1.5652 -2.3594
18075TIP3   OH275639   6.389   1.291   5.957 -0.2196 -0.4163 -0.8509
18075TIP3    H175640   6.359   1.376   5.990 -0.0427 -1.5645  2.6908
18075TIP3    H275641   6.474   1.278   5.999 -1.1974 -3.2089  0.5094
18076TIP3   OH275642   6.101   0.120  14.245  0.0291  0.2637  0.5237
18076TIP3    H175643   6.195   0.126  14.265  0.5002 -0.2559 -1.2747
18076TIP3    H275644   6.078   0.029  14.267  0.3879 -0.1119 -0.5561
18077TIP3   OH275645   4.587   5.347   0.249 -0.3302  0.0860 -0.1535
18077TIP3    H175646   4.543   5.334   0.333 -2.5240 -0.2010 -1.2484
18077TIP3    H275647   4.587   5.442   0.236 -2.0925  0.0474 -0.7843
18078TIP3   OH275648   0.978   1.624   1.633  0.3089 -0.3116  0.2327
18078TIP3    H175649   0.947   1.534   1.619  1.8567 -0.4689 -3.4143
18078TIP3    H275650   1.072   1.614   1.646  0.6261  0.8116 -1.0843
18079TIP3   OH275651   3.301   4.690  13.937  0.0486 -0.0017 -0.3435
18079TIP3    H175652   3.380   4.651  13.899 -0.1152 -0.0277 -0.6574
18079TIP3    H275653   3.331   4.733  14.017  0.2538 -0.7031 -0.0277
18080TIP3   OH275654   1.165   2.236   4.073  0.5107 -0.3595  0.0976
18080TIP3    H175655   1.121   2.201   4.151 -2.0359  2.3850  0.0980
18080TIP3    H275656   1.229   2.298   4.108 -0.6588  0.9011  0.1125
18081TIP3   OH275657   0.442   4.450   1.151  0.1813 -0.3228  0.0122
18081TIP3    H175658   0.471   4.392   1.081  0.5765  0.0963 -0.1747
18081TIP3    H275659   0.479   4.535   1.129  0.4498 -0.2228  0.8097
18082TIP3   OH275660   1.096   2.547   2.142 -0.3299 -0.2413 -0.6227
18082TIP3    H175661   1.155   2.606   2.189 -0.2369 -0.7665 -0.0765
18082TIP3    H275662   1.147   2.468   2.127 -0.2639  0.0082 -1.8593
18083TIP3   OH275663   3.263   5.858  13.330 -0.1926 -0.2289 -0.3000
18083TIP3    H175664   3.249   5.915  13.405 -0.9554 -1.9223  0.8972
18083TIP3    H275665   3.355   5.868  13.309 -0.5297  2.3535 -0.9481
18084TIP3   OH275666   5.170   4.281  15.140 -0.6644 -0.1650 -0.2992
18084TIP3    H175667   5.075   4.295  15.146 -0.6720 -0.9006  2.0652
18084TIP3    H275668   5.189   4.293  15.047 -3.0896 -0.0940 -0.8695
18085TIP3   OH275669   3.300   5.967   4.963  0.2796  0.7900 -0.1700
18085TIP3    H175670   3.299   5.909   5.039  0.5955  0.4907 -0.3881
18085TIP3    H275671   3.392   5.985   4.947  0.1377  2.7796  0.9398
18086TIP3   OH275672   5.222   1.424  15.971  0.1337  0.1153 -0.1637
18086TIP3    H175673   5.292   1.482  15.940  0.0586  0.0471 -0.4645
18086TIP3    H275674   5.224   1.349  15.911  0.3984 -0.3171  0.3827
18087TIP3   OH275675   2.308   4.834  13.760 -0.1416 -0.0708 -0.1426
18087TIP3    H175676   2.314   4.739  13.755  1.0989  0.0204 -0.5189
18087TIP3    H275677   2.214   4.852  13.756 -0.5272 -1.3562  1.7318
18088TIP3   OH275678   2.636   6.220   3.355  0.3565 -0.5153  0.6535
18088TIP3    H175679   2.646   6.125   3.358 -1.2591 -0.7826 -1.0506
18088TIP3    H275680   2.592   6.238   3.272  2.2264  1.8914  0.0205
18089TIP3   OH275681   1.769   3.353  12.873  0.0612 -0.8038 -0.0306
18089TIP3    H175682   1.730   3.439  12.854 -3.0602 -2.0975 -0.1012
18089TIP3    H275683   1.723   3.323  12.952 -1.3546 -3.6869 -1.7688
18090TIP3   OH275684   6.142   3.230  15.555 -0.1345 -0.8121  0.1073
18090TIP3    H175685   6.050   3.244  15.532 -0.0447 -0.3433  0.0167
18090TIP3    H275686   6.165   3.147  15.513 -0.3900 -0.7067 -0.2468
18091TIP3   OH275687   2.111   1.349  11.238 -0.4290  0.5616  0.3560
18091TIP3    H175688   2.106   1.428  11.185  1.0268  0.1711 -0.4237
18091TIP3    H275689   2.102   1.380  11.329  0.4760  1.6703  0.0902
18092TIP3   OH275690   2.931   5.936  11.723 -0.2802 -0.3597  0.2197
18092TIP3    H175691   3.005   5.995  11.708 -1.0917  1.4424  2.6923
18092TIP3    H275692   2.899   5.960  11.810 -2.6843 -2.3035 -0.0404
18093TIP3   OH275693   0.887   3.866  13.129 -0.0954 -0.5304 -0.5778
18093TIP3    H175694   0.924   3.796  13.183  0.3509 -1.0011 -1.4751
18093TIP3    H275695   0.924   3.947  13.164 -0.9819 -0.6717  0.7815
18094TIP3   OH275696   1.574   0.244   6.287 -0.2246 -0.2944 -0.6107
18094TIP3    H175697   1.663   0.272   6.308 -0.3423 -0.3409 -0.0170
18094TIP3    H275698   1.524   0.325   6.284 -0.6905 -0.4122  1.7176
18095TIP3   OH275699   0.430   5.486   2.277  0.1310  0.3990 -0.2535
18095TIP3    H175700   0.429   5.539   2.356 -2.8783  0.3637 -0.1559
18095TIP3    H275701   0.461   5.400   2.306 -1.2053  0.3079  0.9943
18096TIP3   OH275702   2.926   3.428   4.867  0.0719 -0.1408 -0.1798
18096TIP3    H175703   2.837   3.454   4.843  0.1454 -0.4411 -0.8208
18096TIP3    H275704   2.961   3.502   4.916 -0.6580 -0.1732  0.4053
18097TIP3   OH275705   5.459   2.818  15.406 -0.4326  0.3612  0.0638
18097TIP3    H175706   5.461   2.863  15.491  0.0163 -0.5547  0.5513
18097TIP3    H275707   5.375   2.843  15.368 -0.0710  1.8732  0.1540
18098TIP3   OH275708   3.282   4.416  13.335 -0.5641 -0.4265  0.1578
18098TIP3    H175709   3.305   4.456  13.420 -3.0567 -0.6843  1.0195
18098TIP3    H275710   3.359   4.433  13.280  0.7381  0.6239  2.1510
18099TIP3   OH275711   0.668   4.248   2.564  0.3682  0.7731 -0.3488
18099TIP3    H175712   0.710   4.331   2.543 -0.3655  0.8306 -1.7275
18099TIP3    H275713   0.739   4.193   2.598  1.5730  0.9342 -2.4020
18100TIP3   OH275714   2.653   4.095   0.459 -0.1527  0.0922  0.4242
18100TIP3    H175715   2.573   4.045   0.441  0.4563 -0.7549 -0.0086
18100TIP3    H275716   2.671   4.141   0.377  0.3882 -0.5723  0.1604
18101TIP3   OH275717   4.053   1.999  16.368  0.0763 -0.3488  0.0840
18101TIP3    H175718   4.082   2.003  16.460 -0.1120  0.2504  0.1201
18101TIP3    H275719   3.990   2.071  16.360 -0.4116 -0.8208 -0.3426
18102TIP3   OH275720   3.730   2.544   2.214  1.0059 -0.2241  0.4937
18102TIP3    H175721   3.670   2.477   2.182  0.7199  0.1406  0.2656
18102TIP3    H275722   3.732   2.531   2.308 -2.7577  2.4283  1.1377
18103TIP3   OH275723   5.262   5.225   3.568 -0.2358 -0.0210  0.2980
18103TIP3    H175724   5.192   5.177   3.611 -0.8043  0.6293  0.1241
18103TIP3    H275725   5.272   5.305   3.619  1.5010 -0.8062  1.2772
18104TIP3   OH275726   1.626   1.916   2.367 -0.6272 -0.0921 -0.5786
18104TIP3    H175727   1.718   1.890   2.363 -0.5182  0.4107 -2.1177
18104TIP3    H275728   1.624   1.989   2.429 -0.1402 -0.6147  0.0681
18105TIP3   OH275729   6.078   4.996   1.213  0.3042  0.9010  0.0212
18105TIP3    H175730   6.121   5.005   1.128 -0.0779 -2.9935 -0.8071
18105TIP3    H275731   6.140   4.943   1.265 -1.5803 -1.2601  0.2372
18106TIP3   OH275732   6.418   2.023   4.096 -0.0185 -0.2346  0.4554
18106TIP3    H175733   6.431   1.929   4.110  2.2946  0.1754  1.6465
18106TIP3    H275734   6.498   2.052   4.053 -1.0231  1.0947 -0.6120
18107TIP3   OH275735   5.559   0.719   3.912 -0.0265  0.0351  0.2746
18107TIP3    H175736   5.469   0.692   3.933 -0.4409  2.0323  1.2800
18107TIP3    H275737   5.612   0.682   3.983 -0.6490  2.0906  1.8936
18108TIP3   OH275738   5.793   3.716   4.945 -0.1887 -0.3558  0.1966
18108TIP3    H175739   5.726   3.678   5.001 -0.0251 -0.3152  0.4193
18108TIP3    H275740   5.849   3.766   5.004  0.7466 -1.3668  0.1941
18109TIP3   OH275741   0.477   6.195   6.112  0.1671  0.1242  0.2897
18109TIP3    H175742   0.523   6.274   6.085 -1.0311  0.0608 -2.1726
18109TIP3    H275743   0.393   6.226   6.146 -0.6207 -0.0556 -1.3856
18110TIP3   OH275744   5.165   0.900  15.903  0.9173  0.0744 -0.3139
18110TIP3    H175745   5.092   0.932  15.955  1.4055  0.7642 -0.0411
18110TIP3    H275746   5.177   0.810  15.932  1.9995  0.8141  1.7364
18111TIP3   OH275747   0.089   0.573   5.522  0.0509 -0.2407  0.6364
18111TIP3    H175748   0.178   0.548   5.498 -0.1470 -0.3348 -0.0121
18111TIP3    H275749   0.090   0.669   5.522 -0.1590 -0.2110 -0.6393
18112TIP3   OH275750   5.397   4.889  11.491  0.8392 -0.3928 -0.6647
18112TIP3    H175751   5.443   4.932  11.563  1.3054 -0.8663 -0.6676
18112TIP3    H275752   5.468   4.853  11.437  0.4764 -0.5829 -1.0124
18113TIP3   OH275753   2.515   2.779  11.386 -0.1978  0.0350 -0.1273
18113TIP3    H175754   2.431   2.824  11.392  0.6144  1.5405  0.5168
18113TIP3    H275755   2.550   2.781  11.475 -1.0829 -3.9323  0.5020
18114TIP3   OH275756   0.353   2.667  13.090 -0.2145  0.2633 -0.1525
18114TIP3    H175757   0.442   2.636  13.105 -0.9096 -1.9761 -0.2328
18114TIP3    H275758   0.349   2.752  13.133  1.5822 -0.1808  0.9897
18115TIP3   OH275759   0.680   3.819  12.369 -0.4187 -0.2371 -0.3753
18115TIP3    H175760   0.674   3.893  12.310 -1.9927 -0.9612 -1.1715
18115TIP3    H275761   0.766   3.781  12.352  2.0322  3.2983  2.4825
18116TIP3   OH275762   5.102   5.728  17.144 -0.1164  0.0197 -0.2895
18116TIP3    H175763   5.076   5.734  17.052  2.2481  0.6986 -0.9997
18116TIP3    H275764   5.184   5.679  17.142  0.5906  1.0553  1.3059
18117TIP3   OH275765   4.180   4.862  13.173 -0.2072 -0.4881 -0.0055
18117TIP3    H175766   4.231   4.860  13.093  0.3338 -1.7791  0.3515
18117TIP3    H275767   4.100   4.813  13.152 -1.1284  1.1172 -0.4199
18118TIP3   OH275768   5.112   2.404  17.080  0.1324 -0.1092 -0.1501
18118TIP3    H175769   5.113   2.429  17.173 -0.5998  0.0726 -0.1854
18118TIP3    H275770   5.183   2.455  17.041  0.7199 -0.4966  0.3827
18119TIP3   OH275771   4.180   4.859   5.904  0.0944  0.6036 -0.0229
18119TIP3    H175772   4.224   4.932   5.947  1.3085  0.1595 -0.4719
18119TIP3    H275773   4.248   4.816   5.853 -0.7211 -0.5114 -0.2180
18120TIP3   OH275774   4.512   1.235  11.514 -0.4190  0.4338 -0.3287
18120TIP3    H175775   4.596   1.263  11.549  0.1346 -2.2890  0.7487
18120TIP3    H275776   4.447   1.278  11.571  0.3131  0.6232  0.3847
18121TIP3   OH275777   1.666   0.436   5.738 -0.8858  0.5189 -0.3064
18121TIP3    H175778   1.692   0.462   5.826  0.9003  1.7102 -1.1142
18121TIP3    H275779   1.637   0.518   5.697 -3.4434 -0.3141 -0.3217
18122TIP3   OH275780   6.115   0.579   0.256 -0.5427 -0.2626 -0.3763
18122TIP3    H175781   6.131   0.584   0.162 -0.7299 -0.0963 -0.4009
18122TIP3    H275782   6.111   0.486   0.275 -0.7416 -0.2963 -0.5757
18123TIP3   OH275783   4.077   2.827   2.207  0.3267  0.2335 -0.1069
18123TIP3    H175784   4.063   2.738   2.176  0.2171  0.4430 -0.6746
18123TIP3    H275785   4.168   2.829   2.236  0.1292 -0.2515  0.5663
18124TIP3   OH275786   1.958   5.023  11.108  0.2817  0.3575  0.2323
18124TIP3    H175787   1.970   4.937  11.066 -0.6200  0.7720 -0.9143
18124TIP3    H275788   1.881   5.011  11.164  0.6372  0.2005  0.6915
18125TIP3   OH275789   0.485   5.043   3.773  0.4669  0.0269 -0.2788
18125TIP3    H175790   0.573   5.019   3.803 -0.7549 -1.4630  2.4736
18125TIP3    H275791   0.492   5.135   3.748  1.8021  1.6357  4.8525
18126TIP3   OH275792   3.984   4.071  16.493  0.1565  0.0576  0.6305
18126TIP3    H175793   3.949   4.039  16.410  1.9035  1.1472 -0.6281
18126TIP3    H275794   3.909   4.108  16.539 -1.0452 -1.5960  0.0620
18127TIP3   OH275795   6.597   1.242   6.113 -0.2954  0.5329  0.2612
18127TIP3    H175796   6.537   1.265   6.185 -0.9597  1.2231 -0.5027
18127TIP3    H275797   6.684   1.249   6.152 -0.6567  0.5105  1.1113
18128TIP3   OH275798   0.643   1.685   4.783  0.4764  0.0907 -1.0421
18128TIP3    H175799   0.581   1.630   4.832  0.3980 -0.8958 -2.1977
18128TIP3    H275800   0.676   1.747   4.847 -0.9504 -0.0280 -0.1559
18129TIP3   OH275801   2.044   2.068   5.754 -0.2021  0.6522 -0.0334
18129TIP3    H175802   2.101   1.993   5.741  0.1832  0.9962 -0.3546
18129TIP3    H275803   1.976   2.059   5.687 -2.2742 -1.3535  2.1585
18130TIP3   OH275804   0.103   0.413  11.996 -0.3754 -0.2677  0.2179
18130TIP3    H175805   0.146   0.434  11.913 -1.4032  0.3483 -0.1855
18130TIP3    H275806   0.160   0.451  12.063 -0.8990  1.6937 -0.3688
18131TIP3   OH275807   1.136   1.494   1.130  0.7152 -0.2888 -0.5065
18131TIP3    H175808   1.161   1.581   1.163 -0.4717 -0.7366  1.7356
18131TIP3    H275809   1.048   1.507   1.093  1.5556 -0.0526 -2.5602
18132TIP3   OH275810   6.510   1.853  11.686 -0.0054 -0.9322 -0.0422
18132TIP3    H175811   6.488   1.946  11.683  0.5779 -0.7727  0.3527
18132TIP3    H275812   6.428   1.810  11.708 -0.4302 -0.5754 -0.8841
18133TIP3   OH275813   5.576   3.121  17.184  0.4228  0.0914  0.3843
18133TIP3    H175814   5.617   3.082  17.261 -1.0583 -0.6508  0.8263
18133TIP3    H275815   5.494   3.160  17.217 -2.6870 -4.2091 -1.3731
18134TIP3   OH275816   0.532   6.678   6.359 -0.1599  0.4360  0.3318
18134TIP3    H175817   0.611   6.628   6.378 -0.0046  1.1494  1.7028
18134TIP3    H275818   0.466   6.611   6.339  0.3337 -0.2687  0.9852
18135TIP3   OH275819   0.735   6.193  16.554 -0.6353  0.0274  0.0853
18135TIP3    H175820   0.748   6.100  16.537  1.1580 -0.1955  2.1579
18135TIP3    H275821   0.667   6.196  16.621 -1.1344  0.2722 -0.4221
18136TIP3   OH275822   0.748   0.465  11.939 -0.0829 -0.4562 -0.0390
18136TIP3    H175823   0.716   0.552  11.964  0.1556 -0.4503  0.2567
18136TIP3    H275824   0.670   0.410  11.938  0.1405 -0.9485  2.7908
18137TIP3   OH275825   2.811   4.510  15.265 -0.2588 -0.6763  0.0343
18137TIP3    H175826   2.717   4.503  15.245 -0.5481  0.2666  0.9667
18137TIP3    H275827   2.826   4.443  15.331 -0.3745 -0.5431  0.1971
18138TIP3   OH275828   5.916   3.970  13.602 -0.1641  0.5253 -0.3010
18138TIP3    H175829   5.897   4.000  13.513 -1.4469  0.1244 -0.1963
18138TIP3    H275830   5.861   3.892  13.612  0.2314  0.3677  0.7208
18139TIP3   OH275831   0.778   0.664   1.570  0.2862  0.2452 -0.3503
18139TIP3    H175832   0.743   0.676   1.482  0.5533 -0.4509 -0.5615
18139TIP3    H275833   0.849   0.601   1.558  1.3748  1.3553  0.1179
18140TIP3   OH275834   0.150   6.729  12.204 -0.5643 -0.2981  0.2324
18140TIP3    H175835   0.143   6.824  12.201  0.1348 -0.2017  1.1602
18140TIP3    H275836   0.178   6.704  12.116  1.1072  0.5397  0.4770
18141TIP3   OH275837   5.059   2.601  17.326  0.3233 -0.0754 -0.0374
18141TIP3    H175838   5.085   2.578  17.415 -0.0616 -1.0178 -0.1550
18141TIP3    H275839   4.966   2.579  17.322 -0.6377  3.3745  0.4284
18142TIP3   OH275840   6.407   1.675   2.383 -0.2907 -0.5765  0.1492
18142TIP3    H175841   6.348   1.738   2.343 -1.8909 -1.2141  1.3964
18142TIP3    H275842   6.483   1.727   2.408 -1.3079  0.7631  0.6152
18143TIP3   OH275843   2.988   5.554   6.636  0.2649  0.6258 -0.3061
18143TIP3    H175844   3.061   5.512   6.681  0.8000  1.2319 -0.5899
18143TIP3    H275845   2.959   5.489   6.571  2.4775  1.4464 -2.2311
18144TIP3   OH275846   2.489   0.265   5.801 -0.1664 -0.0632  0.5574
18144TIP3    H175847   2.440   0.322   5.861  1.0895 -0.2195  1.7815
18144TIP3    H275848   2.559   0.320   5.767 -1.5968  0.4147 -1.8750
18145TIP3   OH275849   5.859   1.443   2.696  0.1271 -0.3410 -0.3485
18145TIP3    H175850   5.833   1.533   2.676 -1.9027 -0.5585  0.9477
18145TIP3    H275851   5.889   1.447   2.787  0.7123 -0.8588 -0.5161
18146TIP3   OH275852   2.322   4.402  15.821 -0.2078  0.1027  0.3222
18146TIP3    H175853   2.339   4.463  15.750 -0.1753 -0.9022 -0.5675
18146TIP3    H275854   2.227   4.394  15.824 -0.3348  1.5731  1.6800
18147TIP3   OH275855   3.300   2.080  13.316 -0.0054 -0.1834  0.5819
18147TIP3    H175856   3.212   2.080  13.277  0.0158  0.1321  0.5311
18147TIP3    H275857   3.304   2.162  13.366 -0.0509 -0.6088  1.2875
18148TIP3   OH275858   2.116   4.931   5.641 -0.2163 -0.5999  0.3286
18148TIP3    H175859   2.200   4.936   5.687  0.4007 -0.1483 -0.8163
18148TIP3    H275860   2.137   4.954   5.551 -2.1233  3.0343  0.6415
18149TIP3   OH275861   1.200   3.414   0.820 -0.3672 -0.1107  0.6633
18149TIP3    H175862   1.263   3.349   0.852 -1.7566 -1.6923  0.3315
18149TIP3    H275863   1.126   3.362   0.790 -0.8819  1.5668 -1.1528
18150TIP3   OH275864   4.011   0.567   3.176  0.3138  0.1310 -0.0799
18150TIP3    H175865   3.964   0.498   3.129  1.6017  0.2847 -1.6572
18150TIP3    H275866   3.952   0.590   3.249 -0.4844 -2.0706  0.0506
18151TIP3   OH275867   4.314   4.777  15.982 -0.3022  0.1155  0.2317
18151TIP3    H175868   4.326   4.687  15.950  0.3212 -0.7571  2.6493
18151TIP3    H275869   4.401   4.816  15.975 -0.3213  0.1506  0.1955
18152TIP3   OH275870   3.184   3.851   3.177  0.4081 -0.3112  0.3561
18152TIP3    H175871   3.244   3.787   3.140 -0.2589 -0.6633 -0.1373
18152TIP3    H275872   3.106   3.801   3.200 -0.3574  0.3938 -0.5835
18153TIP3   OH275873   6.307   2.840  14.061 -0.0155 -0.7130  0.1705
18153TIP3    H175874   6.365   2.813  14.132 -0.4261 -0.3902  0.6317
18153TIP3    H275875   6.236   2.776  14.063  1.2626 -2.2918 -1.6385
18154TIP3   OH275876   2.541   0.078   3.673 -0.1236  0.2535 -0.5951
18154TIP3    H175877   2.513   0.169   3.665  1.0000  0.7419  0.6215
18154TIP3    H275878   2.493   0.045   3.749  2.9182  1.3615  2.0874
18155TIP3   OH275879   2.952   4.840   5.899 -0.0724  0.0721 -0.0732
18155TIP3    H175880   3.047   4.853   5.895 -0.0939  0.1276 -0.4481
18155TIP3    H275881   2.925   4.834   5.808 -0.3227 -0.7480  0.0443
18156TIP3   OH275882   1.042   2.700  16.111  0.3002  0.2505  0.0947
18156TIP3    H175883   1.000   2.754  16.178 -2.1221 -0.0633 -1.0730
18156TIP3    H275884   1.101   2.760  16.066 -0.0236  1.1254  0.7994
18157TIP3   OH275885   4.943   0.020   1.988 -0.2118 -0.5072 -0.1232
18157TIP3    H175886   4.942  -0.069   2.022  0.5510  0.5829  3.0929
18157TIP3    H275887   5.032   0.052   2.007 -0.5255  1.0096 -1.0315
18158TIP3   OH275888   4.798   5.607  16.194  0.3412  0.2108  0.0771
18158TIP3    H175889   4.784   5.668  16.266 -0.1554  2.8736 -2.1283
18158TIP3    H275890   4.726   5.624  16.133  1.2686 -1.2390 -1.5378
18159TIP3   OH275891   5.928   4.859   2.627  0.0890  0.0829 -0.8187
18159TIP3    H175892   5.944   4.944   2.669 -1.0718  0.1243 -0.4433
18159TIP3    H275893   5.839   4.836   2.651  1.0258 -2.2279  0.8248
18160TIP3   OH275894   0.881   4.788   2.919 -0.5389  0.2187  0.3655
18160TIP3    H175895   0.895   4.882   2.905  0.0468  0.1793  0.6689
18160TIP3    H275896   0.813   4.785   2.987 -0.8283  0.4176  0.0909
18161TIP3   OH275897   1.814   1.553   5.382 -0.0689  0.7262 -0.2400
18161TIP3    H175898   1.860   1.630   5.348  0.1048  0.1604 -1.3215
18161TIP3    H275899   1.879   1.483   5.383 -0.3338  0.4701  0.3411
18162TIP3   OH275900   4.950   5.345   6.530 -0.2748 -0.7016 -0.5984
18162TIP3    H175901   4.940   5.440   6.539 -0.5596 -0.5768 -2.0827
18162TIP3    H275902   4.873   5.309   6.574  0.8308 -0.3777  1.7920
18163TIP3   OH275903   1.360   4.644   1.681 -0.4974  0.8364  0.2614
18163TIP3    H175904   1.265   4.637   1.668 -0.5663 -0.2885  1.2007
18163TIP3    H275905   1.381   4.574   1.743  0.8495  1.4893  0.5835
18164TIP3   OH275906   6.524   6.334   0.250 -0.1801  0.3516 -0.2685
18164TIP3    H175907   6.488   6.245   0.247  0.6337  0.0328 -2.9084
18164TIP3    H275908   6.451   6.388   0.279 -1.6612 -0.8053 -1.6420
18165TIP3   OH275909   6.356   6.626  11.923 -0.0794 -0.1412  0.0597
18165TIP3    H175910   6.382   6.682  11.996 -0.1558 -0.2065  0.1366
18165TIP3    H275911   6.261   6.626  11.925 -0.1789  1.7130 -1.4164
18166TIP3   OH275912   0.728   1.077  12.905  0.0602 -0.5251 -0.1559
18166TIP3    H175913   0.716   1.168  12.877  0.0728 -0.7279 -0.8211
18166TIP3    H275914   0.724   1.026  12.824 -0.5447 -1.1763  0.2772
18167TIP3   OH275915   2.793   5.910   0.482 -0.0404 -0.5475 -0.0509
18167TIP3    H175916   2.836   5.827   0.502  1.4937  0.6178  1.9260
18167TIP3    H275917   2.789   5.956   0.567 -0.1436  1.6914 -1.1839
18168TIP3   OH275918   3.901   2.332   3.722  0.2142 -0.2801 -0.0121
18168TIP3    H175919   3.989   2.316   3.689  1.0223  1.4768  1.0986
18168TIP3    H275920   3.912   2.335   3.817 -0.8221  0.9452  0.1023
18169TIP3   OH275921   1.879   5.009   3.395  0.7940  0.1684  0.1809
18169TIP3    H175922   1.814   5.035   3.460  0.4094 -1.3736  0.4363
18169TIP3    H275923   1.962   5.010   3.442  0.7288  0.5215  0.2913
18170TIP3   OH275924   5.798   6.760  12.112  0.4178 -0.1650 -0.4385
18170TIP3    H175925   5.805   6.745  12.206  0.2905 -0.3472 -0.4579
18170TIP3    H275926   5.888   6.777  12.083  0.2687  1.5796 -0.0059
18171TIP3   OH275927   5.211   2.296  13.218 -1.3263 -0.0281  0.4073
18171TIP3    H175928   5.179   2.386  13.211  2.1235  1.4345  1.2052
18171TIP3    H275929   5.276   2.289  13.148  0.4196 -0.8829  2.0365
18172TIP3   OH275930   4.747   0.689   3.847  0.4867 -0.8492  0.4617
18172TIP3    H175931   4.659   0.714   3.818  1.2648  1.8892  0.1569
18172TIP3    H275932   4.737   0.667   3.939 -0.3909  0.5209  0.7264
18173TIP3   OH275933   5.905   4.748  17.193 -0.3951 -0.3927 -0.0291
18173TIP3    H175934   5.893   4.797  17.112  1.8247 -1.0002 -0.8020
18173TIP3    H275935   5.932   4.660  17.164 -2.6295 -1.6372  1.3434
18174TIP3   OH275936   1.266   0.310   4.780 -0.3534 -0.2884 -0.0614
18174TIP3    H175937   1.200   0.242   4.769  0.2310 -0.7045 -1.3366
18174TIP3    H275938   1.246   0.352   4.863 -1.0355 -1.6923  0.5049
18175TIP3   OH275939   6.515   2.420   5.370  0.2701 -0.0583  0.2950
18175TIP3    H175940   6.519   2.375   5.455 -4.1733 -0.1095  0.7250
18175TIP3    H275941   6.544   2.509   5.390  1.4482 -0.6297  1.3042
18176TIP3   OH275942   2.178   2.899   1.475 -0.5645  0.5174 -0.1316
18176TIP3    H175943   2.188   2.878   1.567  0.1485  1.5612  0.0513
18176TIP3    H275944   2.132   2.824   1.437  0.4051 -0.5612  0.7771
18177TIP3   OH275945   6.767   3.367   5.219 -0.0697  0.0850 -0.0955
18177TIP3    H175946   6.847   3.416   5.232 -0.1313  0.6397 -1.5866
18177TIP3    H275947   6.789   3.277   5.242  0.3054  0.6186  1.7487
18178TIP3   OH275948   3.125   1.462  11.729 -0.5753  0.3675 -0.2349
18178TIP3    H175949   3.185   1.447  11.801  0.0005 -0.8393 -0.9332
18178TIP3    H275950   3.040   1.432  11.761 -1.0403  2.8194  1.0409
18179TIP3   OH275951   1.859   2.148   3.543 -0.3574 -0.5460 -0.9124
18179TIP3    H175952   1.941   2.183   3.508 -1.0191  2.1905  0.0162
18179TIP3    H275953   1.880   2.125   3.634 -0.8308  1.3380 -0.2787
18180TIP3   OH275954   1.554   2.645  14.342 -0.8532 -0.1445 -0.4769
18180TIP3    H175955   1.606   2.718  14.375  0.2214 -2.0965  2.5975
18180TIP3    H275956   1.463   2.673  14.351 -0.4576  1.2602 -0.6532
18181TIP3   OH275957   6.516   0.166   1.209  0.3648  0.3127  0.0988
18181TIP3    H175958   6.540   0.246   1.256 -1.4547  0.8613  0.1654
18181TIP3    H275959   6.509   0.194   1.117  0.2673  0.1021  0.0422
18182TIP3   OH275960   0.107   1.346  11.430  0.6970 -0.0582 -0.4175
18182TIP3    H175961   0.054   1.306  11.360  1.0642 -1.8329  0.2749
18182TIP3    H275962   0.191   1.300  11.426  0.5164 -0.6563  1.5754
18183TIP3   OH275963   5.770   2.690   3.296  0.3192 -0.2489 -0.2208
18183TIP3    H175964   5.862   2.680   3.273  0.2845 -0.2539 -0.3590
18183TIP3    H275965   5.771   2.720   3.387  0.4669  0.1587 -0.3587
18184TIP3   OH275966   3.815   1.793  13.002 -0.0334  0.1037 -0.6558
18184TIP3    H175967   3.896   1.763  12.960  0.2999  1.5488 -1.0782
18184TIP3    H275968   3.827   1.772  13.095  0.1192 -1.1707 -0.9493
18185TIP3   OH275969   4.999   6.592   3.545 -0.6958 -0.3383 -0.3840
18185TIP3    H175970   5.054   6.521   3.512 -0.8965 -0.4346 -0.5121
18185TIP3    H275971   5.022   6.668   3.492 -1.4043 -0.6211 -1.1190
18186TIP3   OH275972   3.885   1.887  14.507  0.0511  0.0067 -0.0285
18186TIP3    H175973   3.803   1.873  14.555 -0.0935 -2.5333 -0.8869
18186TIP3    H275974   3.866   1.963  14.451 -1.7004 -0.4518 -0.1371
18187TIP3   OH275975   1.364   1.845  16.962  0.5295  0.1298  0.3633
18187TIP3    H175976   1.416   1.853  16.882 -0.5738  0.3308 -0.3497
18187TIP3    H275977   1.329   1.932  16.977 -4.0130 -0.9077 -2.2835
18188TIP3   OH275978   6.271   4.762  13.540  0.0433  0.0085  0.6676
18188TIP3    H175979   6.248   4.816  13.465  1.1519 -0.3454  0.0399
18188TIP3    H275980   6.324   4.820  13.596  2.0289 -0.6081 -0.4535
18189TIP3   OH275981   4.420   5.405   2.302  0.0708 -0.1901  0.3317
18189TIP3    H175982   4.378   5.491   2.293  1.5684  0.4692 -0.7675
18189TIP3    H275983   4.347   5.343   2.306 -1.0425  0.8620 -1.9940
18190TIP3   OH275984   1.398   3.868  10.940 -0.2464  0.5481  0.2590
18190TIP3    H175985   1.441   3.782  10.937 -2.2730 -0.5045 -0.7095
18190TIP3    H275986   1.449   3.922  10.879  0.3464 -0.3218 -0.0304
18191TIP3   OH275987   1.398   1.559   2.324  0.2292  0.2637  0.2902
18191TIP3    H175988   1.419   1.596   2.238  3.4861  0.9512  1.2648
18191TIP3    H275989   1.310   1.592   2.343  0.1697  1.6182 -1.9468
18192TIP3   OH275990   1.238   2.113  15.455  0.1356  0.8672 -0.0709
18192TIP3    H175991   1.294   2.176  15.501  0.0634  1.0338 -0.2099
18192TIP3    H275992   1.149   2.142  15.474  0.0291 -0.4013  1.5891
18193TIP3   OH275993   2.783   4.327  15.500  0.3353 -0.2337  0.3207
18193TIP3    H175994   2.840   4.287  15.434  0.0061 -0.1173 -0.0398
18193TIP3    H275995   2.824   4.306  15.583  0.3140 -1.0898  0.1205
18194TIP3   OH275996   5.016   1.259  16.916  0.0282  0.3541 -0.0576
18194TIP3    H175997   4.920   1.262  16.920 -0.1573 -1.5458 -1.6392
18194TIP3    H275998   5.042   1.350  16.903 -1.5863  0.8589  0.0407
18195TIP3   OH275999   2.703   1.757   5.631  0.1856 -0.1324  0.7013
18195TIP3    H176000   2.776   1.775   5.572 -1.2446 -0.2538 -1.2108
18195TIP3    H276001   2.744   1.741   5.716  2.2321  1.4322  0.0767
18196TIP3   OH276002   1.977   2.942  13.302  0.1479  0.9249 -0.3614
18196TIP3    H176003   1.977   2.851  13.331  2.7084  0.8085 -0.5304
18196TIP3    H276004   1.966   2.993  13.382  0.3020  0.5075 -0.0759
18197TIP3   OH276005   2.452   3.509  13.825  0.4269  0.3549  0.3455
18197TIP3    H176006   2.524   3.572  13.833  1.4008 -0.6533 -0.1435
18197TIP3    H276007   2.491   3.434  13.780 -0.9288 -0.2461  0.1177
18198TIP3   OH276008   0.966   1.361  14.939 -0.0824 -0.5350 -0.6978
18198TIP3    H176009   1.022   1.297  14.984  0.4505 -0.2569 -0.9526
18198TIP3    H276010   0.898   1.308  14.898 -0.7460 -0.7666  0.6701
18199TIP3   OH276011   2.282   4.721  14.008  0.6839 -0.1543 -0.0253
18199TIP3    H176012   2.342   4.723  14.082  0.9153 -0.1637 -0.2110
18199TIP3    H276013   2.328   4.768  13.938  0.6715 -0.5653 -0.3151
18200TIP3   OH276014   2.981   2.604  12.528  0.0428 -0.6090 -0.3262
18200TIP3    H176015   3.071   2.633  12.544 -0.6983  0.6363  2.1422
18200TIP3    H276016   2.949   2.576  12.614 -2.6562  1.1888 -0.6196
18201TIP3   OH276017   2.222   6.647   3.788  0.1746  0.2790 -0.6029
18201TIP3    H176018   2.132   6.655   3.820  0.9101  2.1290  1.2819
18201TIP3    H276019   2.229   6.714   3.719 -0.1098 -0.5140 -1.4290
18202TIP3   OH276020   1.184   1.929   3.089 -0.0303  0.6124 -0.2760
18202TIP3    H176021   1.152   1.940   3.178  0.1620 -0.8651  0.0118
18202TIP3    H276022   1.119   1.973   3.034 -0.8424  0.4358  0.5137
18203TIP3   OH276023   0.325   3.323   3.308 -0.3981  0.1442  0.3378
18203TIP3    H176024   0.385   3.336   3.234  1.3887 -0.7287  1.5734
18203TIP3    H276025   0.282   3.407   3.318  0.8825  0.9290 -0.4046
18204TIP3   OH276026   5.054   0.427  13.257  0.2705 -0.3265 -0.1038
18204TIP3    H176027   4.985   0.493  13.253  0.7368  0.1867  0.2524
18204TIP3    H276028   5.106   0.441  13.178 -0.0214 -0.7105 -0.3700
18205TIP3   OH276029   1.631   5.014   2.206 -0.2514 -0.4894 -0.3536
18205TIP3    H176030   1.672   5.092   2.169  0.4665 -0.7367 -0.0912
18205TIP3    H276031   1.641   4.947   2.138  1.4248 -1.0565  0.3989
18206TIP3   OH276032   2.476   4.708  16.295 -0.3520 -0.3806 -0.4997
18206TIP3    H176033   2.485   4.802  16.283  0.8090 -0.2754  0.9569
18206TIP3    H276034   2.560   4.672  16.266 -0.4729 -0.8744 -0.2460
18207TIP3   OH276035   0.911   1.982   5.341  0.4318 -0.5311  0.0344
18207TIP3    H176036   0.957   2.064   5.361  1.4776 -0.8196 -1.0467
18207TIP3    H276037   0.931   1.924   5.414 -1.6971  0.6624  1.6745
18208TIP3   OH276038   0.947   0.312  15.655 -0.6851  0.4891  0.0240
18208TIP3    H176039   0.973   0.403  15.667 -0.7788  0.2534  2.6430
18208TIP3    H276040   0.979   0.268  15.734 -2.1641 -1.3966 -0.3573
18209TIP3   OH276041   0.895   2.369  13.332  0.2633  0.1461  0.4753
18209TIP3    H176042   0.927   2.316  13.260 -1.0634 -2.0550  1.4157
18209TIP3    H276043   0.949   2.448  13.329  2.9619 -1.6069 -0.4264
18210TIP3   OH276044   1.559   6.449   0.019 -0.2295  0.1999 -0.1032
18210TIP3    H176045   1.499   6.376   0.002 -0.4777  0.5575 -0.7616
18210TIP3    H276046   1.626   6.411   0.076 -0.0586 -0.6841 -0.8802
18211TIP3   OH276047   3.804   0.524  12.364 -0.3734  0.1820  0.8807
18211TIP3    H176048   3.836   0.445  12.320 -0.5158  0.1964  0.7500
18211TIP3    H276049   3.831   0.513  12.455  0.9422  0.6881  0.5735
18212TIP3   OH276050   3.840   4.589   2.731 -0.4981 -0.0966 -0.6113
18212TIP3    H176051   3.834   4.636   2.648 -1.0896 -2.2374 -1.8537
18212TIP3    H276052   3.753   4.599   2.771 -0.1613  1.0766 -0.1238
18213TIP3   OH276053   2.968   0.790   0.993 -0.4165  0.0378 -0.0575
18213TIP3    H176054   2.899   0.828   0.939 -0.3341  2.0868  1.1566
18213TIP3    H276055   2.945   0.815   1.083  0.0755 -2.2455  0.7689
18214TIP3   OH276056   6.350   3.509  10.645  0.2388 -0.4019  0.4404
18214TIP3    H176057   6.313   3.476  10.563  1.3138  0.0610 -0.2634
18214TIP3    H276058   6.329   3.442  10.710 -0.9376 -0.6135 -0.1235
18215TIP3   OH276059   6.006   5.925   5.746 -0.2270  0.3204  0.1957
18215TIP3    H176060   5.921   5.884   5.729  0.1830 -0.3136 -0.3282
18215TIP3    H276061   6.019   5.914   5.840 -0.6998  0.3780  0.2710
18216TIP3   OH276062   6.500   6.138  15.371 -0.1624  0.6466  0.3470
18216TIP3    H176063   6.433   6.157  15.436 -0.8228 -0.1796 -0.0643
18216TIP3    H276064   6.510   6.219  15.321  0.4443  1.3232  1.5310
18217TIP3   OH276065   2.603   4.541  16.556 -0.0014  0.1857 -0.3114
18217TIP3    H176066   2.548   4.535  16.634 -0.0287  0.1923 -0.3289
18217TIP3    H276067   2.619   4.635  16.546 -0.7061  0.2662 -0.7965
18218TIP3   OH276068   2.989   2.348   1.713 -0.4087 -0.8964  0.4328
18218TIP3    H176069   2.981   2.428   1.766  1.4557 -1.0754  1.0342
18218TIP3    H276070   2.971   2.377   1.623  1.0700  0.4041  0.5214
18219TIP3   OH276071   1.183   4.608  15.042 -0.0794 -0.3256 -0.0074
18219TIP3    H176072   1.243   4.660  14.989 -1.6086  2.2472  0.5796
18219TIP3    H276073   1.232   4.587  15.121  0.5277  0.4270 -0.1766
18220TIP3   OH276074   6.699   5.583   2.223  0.4181 -0.0244 -0.2513
18220TIP3    H176075   6.696   5.614   2.314  0.6861  1.5896 -0.7571
18220TIP3    H276076   6.792   5.564   2.208  0.5100  0.5599 -0.4447
18221TIP3   OH276077   0.739   6.344   4.663 -0.2240  0.1112 -0.0674
18221TIP3    H176078   0.648   6.362   4.687 -0.8500 -0.2691 -1.9713
18221TIP3    H276079   0.774   6.429   4.635  0.7510  0.7219  2.6824
18222TIP3   OH276080   1.734   2.494   2.844  0.0069 -0.4104  0.5094
18222TIP3    H176081   1.705   2.423   2.902 -1.2423 -2.0950 -1.9920
18222TIP3    H276082   1.655   2.547   2.831 -0.2045 -1.0399 -0.9334
18223TIP3   OH276083   2.066   5.974  14.559  0.3941 -0.7121 -0.0429
18223TIP3    H176084   2.098   6.056  14.596 -0.5247 -0.6547  0.6582
18223TIP3    H276085   2.098   5.974  14.469  0.7399  0.2241  0.0709
18224TIP3   OH276086   1.828   2.388  15.756 -0.0190 -0.0411  0.5242
18224TIP3    H176087   1.883   2.379  15.834  0.2609 -1.9841  0.1700
18224TIP3    H276088   1.863   2.464  15.710  0.5745  0.4183  1.7009
18225TIP3   OH276089   6.020   1.780  14.784  0.4740 -0.1326 -0.5873
18225TIP3    H176090   5.979   1.736  14.858 -0.2320  2.8501  0.9588
18225TIP3    H276091   6.100   1.819  14.820  0.8838  0.1627 -1.7659
18226TIP3   OH276092   3.334   0.547  14.296  0.1101 -0.0310  0.1463
18226TIP3    H176093   3.400   0.593  14.244  0.6327 -2.2327 -1.2334
18226TIP3    H276094   3.385   0.504  14.365 -0.0247 -0.7235 -0.1838
18227TIP3   OH276095   1.098   3.861  15.929  0.2436 -0.0489 -0.0323
18227TIP3    H176096   1.124   3.871  16.020  1.7867  1.1010 -0.5528
18227TIP3    H276097   1.098   3.950  15.894 -0.8162 -0.4163 -1.0481
18228TIP3   OH276098   6.200   6.659  16.644 -0.3089  0.3974  0.1164
18228TIP3    H176099   6.252   6.728  16.603 -1.3302  0.8955 -0.3847
18228TIP3    H276100   6.210   6.583  16.586 -0.0839  0.4676  0.0640
18229TIP3   OH276101   0.726   4.562  14.119  0.1608 -0.1541  0.0914
18229TIP3    H176102   0.697   4.591  14.206  0.9738 -0.0693  0.3442
18229TIP3    H276103   0.715   4.639  14.063  3.7573  1.2766  1.0881
18230TIP3   OH276104   2.736   5.414   5.427  0.8731 -0.1118 -0.0007
18230TIP3    H176105   2.712   5.380   5.513 -0.8771 -1.2467 -0.8731
18230TIP3    H276106   2.736   5.509   5.438 -1.9065 -0.0994  0.7088
18231TIP3   OH276107   6.044   5.036  13.784  0.7907  0.1349  0.0875
18231TIP3    H176108   6.017   5.027  13.693  1.5043  1.1012 -0.2388
18231TIP3    H276109   5.966   5.066  13.830  0.7595  0.8922 -0.4472
18232TIP3   OH276110   3.642   4.505  12.089 -0.3989 -0.7079 -0.2148
18232TIP3    H176111   3.603   4.515  12.176 -1.6409 -1.8480 -0.6109
18232TIP3    H276112   3.728   4.467  12.106  0.8046  2.1580  0.6935
18233TIP3   OH276113   5.204   1.149   4.736 -0.2666  0.2059  0.2921
18233TIP3    H176114   5.194   1.225   4.679 -0.7589 -0.6912 -0.8739
18233TIP3    H276115   5.160   1.078   4.688 -3.2002 -0.0394  3.0141
18234TIP3   OH276116   6.006   0.995  15.565 -0.0923 -0.3844 -0.9222
18234TIP3    H176117   5.939   1.048  15.607  0.6456 -0.4455  0.3878
18234TIP3    H276118   6.088   1.022  15.606  0.7602 -0.0752 -2.7143
18235TIP3   OH276119   1.021   1.224   3.496 -0.0821  0.4741  0.0286
18235TIP3    H176120   1.053   1.176   3.572  0.8025  1.2126  0.1422
18235TIP3    H276121   1.047   1.315   3.512 -0.4967  0.7598 -0.8301
18236TIP3   OH276122   1.178   0.738   1.139  0.2661 -0.3097  0.1376
18236TIP3    H176123   1.249   0.755   1.201  0.6180  1.5911 -0.6775
18236TIP3    H276124   1.223   0.727   1.055 -0.3314 -0.0665 -0.2202
18237TIP3   OH276125   4.090   1.800   4.790  0.2866 -0.5586  0.9047
18237TIP3    H176126   4.119   1.716   4.825  0.0168  0.3345  3.4948
18237TIP3    H276127   4.118   1.864   4.855 -2.2612  1.0005  0.6154
18238TIP3   OH276128   2.830   0.140   5.964 -0.7725 -0.1156 -0.2979
18238TIP3    H176129   2.772   0.068   5.989 -0.9240  0.0993 -0.0296
18238TIP3    H276130   2.916   0.115   6.000 -1.0869  0.4177  0.8999
18239TIP3   OH276131   2.032   4.113  13.894 -0.2411  0.0364 -0.1682
18239TIP3    H176132   2.064   4.037  13.846  0.4379 -1.3234  2.2700
18239TIP3    H276133   1.937   4.101  13.898 -0.0134 -1.7314  1.6841
18240TIP3   OH276134   4.543   2.850  10.758  0.0647 -0.4896  0.0687
18240TIP3    H176135   4.469   2.868  10.816 -0.4126 -0.8896 -0.4104
18240TIP3    H276136   4.591   2.934  10.754  0.4770 -0.6182  1.5334
18241TIP3   OH276137   2.038   5.356  16.684 -0.3279 -0.1698  0.0457
18241TIP3    H176138   2.030   5.440  16.639 -1.4740 -0.3260 -0.0829
18241TIP3    H276139   2.124   5.358  16.725 -1.1661  2.0136  1.9130
18242TIP3   OH276140   2.339   3.651   6.141  0.4505 -0.0615 -0.0488
18242TIP3    H176141   2.294   3.723   6.186 -0.2229 -1.2712  1.2811
18242TIP3    H276142   2.310   3.658   6.050 -1.2429  0.1436  0.4595
18243TIP3   OH276143   1.125   5.152  10.846  0.1822 -0.6021  0.0499
18243TIP3    H176144   1.182   5.202  10.905 -0.1986  2.2822 -1.8423
18243TIP3    H276145   1.178   5.076  10.821  1.4350 -0.3732  1.7831
18244TIP3   OH276146   1.211   4.539   4.381 -0.0056 -0.4785  0.0571
18244TIP3    H176147   1.149   4.600   4.421  2.2262 -0.6392  4.4443
18244TIP3    H276148   1.214   4.466   4.443  0.1292 -3.4564 -3.1619
18245TIP3   OH276149   0.238   6.488  11.766 -0.3389 -0.2103 -0.0887
18245TIP3    H176150   0.170   6.422  11.781 -0.4721  0.2432  1.4566
18245TIP3    H276151   0.274   6.466  11.680 -3.3241  0.2984 -1.5964
18246TIP3   OH276152   0.370   4.266   0.053 -0.7021  0.0546 -0.3720
18246TIP3    H176153   0.428   4.193   0.079 -0.7351 -0.2557 -1.1563
18246TIP3    H276154   0.282   4.230   0.060 -0.6756 -0.3053 -1.7271
18247TIP3   OH276155   2.884   1.271  13.835 -0.8002 -0.0779 -0.1546
18247TIP3    H176156   2.854   1.192  13.789 -0.2779 -0.7538  0.6336
18247TIP3    H276157   2.803   1.312  13.866 -1.0339 -2.4756  2.9415
18248TIP3   OH276158   2.487   5.858  16.525  0.1294 -0.5243  0.1127
18248TIP3    H176159   2.394   5.856  16.547  0.5698 -2.2761  2.0901
18248TIP3    H276160   2.532   5.867  16.609  1.7780  1.2672 -0.8754
18249TIP3   OH276161   6.547   3.578   3.104 -0.1477  0.3553 -0.0692
18249TIP3    H176162   6.630   3.601   3.063  0.1537 -2.1869 -1.0669
18249TIP3    H276163   6.569   3.557   3.194 -0.2517  2.5964  0.5265
18250TIP3   OH276164   4.208   6.063   2.038  0.1177 -0.0456  0.3764
18250TIP3    H176165   4.244   6.108   2.115 -2.1361 -0.3045  1.6620
18250TIP3    H276166   4.179   5.978   2.071  2.6985 -1.8731 -1.6509
18251TIP3   OH276167   6.335   2.344  16.579 -0.5210 -0.6258  0.3544
18251TIP3    H176168   6.297   2.406  16.641  0.2978  1.3116 -1.0056
18251TIP3    H276169   6.271   2.339  16.508  0.8224  1.1814 -1.0437
18252TIP3   OH276170   6.548   0.269   0.510 -0.3004 -0.1139 -0.0073
18252TIP3    H176171   6.610   0.310   0.450 -0.0087 -0.0061  0.3598
18252TIP3    H276172   6.465   0.314   0.494  0.0450  0.7166  0.4718
18253TIP3   OH276173   5.853   0.108   5.857  0.5094 -0.1775  0.3506
18253TIP3    H176174   5.879   0.019   5.879  0.8375 -0.4692 -1.1175
18253TIP3    H276175   5.927   0.163   5.884  0.4156 -0.3611  1.0082
18254TIP3   OH276176   1.744   5.997   1.993 -0.1952  0.5629  0.1655
18254TIP3    H176177   1.803   6.067   1.965  0.1817  0.3357  0.3889
18254TIP3    H276178   1.774   5.920   1.945 -0.1369  0.3850  0.4844
18255TIP3   OH276179   0.779   6.608  11.672 -0.2009  0.3918  0.0873
18255TIP3    H176180   0.705   6.551  11.692 -0.4129  1.2075  1.8773
18255TIP3    H276181   0.784   6.668  11.747  0.1470  2.5751 -1.5570
18256TIP3   OH276182   4.289   0.143   1.290 -0.3182 -0.1022 -0.6491
18256TIP3    H176183   4.380   0.112   1.293 -1.2838 -3.1952  1.7138
18256TIP3    H276184   4.289   0.219   1.347  0.8246  0.1042 -0.8882
18257TIP3   OH276185   1.674   6.747   1.307 -0.0415 -0.5387 -0.7122
18257TIP3    H176186   1.706   6.837   1.304 -1.1642 -0.1562 -2.1422
18257TIP3    H276187   1.722   6.702   1.238  0.6933 -1.1417  0.1517
18258TIP3   OH276188   0.107   5.048   1.847  0.1589  0.1624  0.4426
18258TIP3    H176189   0.190   5.060   1.894 -0.2329 -3.0644  2.2936
18258TIP3    H276190   0.040   5.080   1.907 -0.0925  0.3389  0.0729
18259TIP3   OH276191   3.702   1.214  17.341  0.3684 -0.3872  0.1268
18259TIP3    H176192   3.608   1.203  17.326  0.3820  0.2040 -0.4260
18259TIP3    H276193   3.731   1.128  17.372 -0.0182 -1.1424 -1.4946
18260TIP3   OH276194   3.276   4.227  15.707  0.1247  0.2462 -0.1572
18260TIP3    H176195   3.194   4.271  15.683 -1.9754 -2.4180  1.5133
18260TIP3    H276196   3.248   4.141  15.739  3.5702 -0.5582  1.0895
18261TIP3   OH276197   6.244   3.653   5.638  0.1164 -0.2906 -0.4212
18261TIP3    H176198   6.255   3.680   5.547  0.4668  2.2542  0.2916
18261TIP3    H276199   6.161   3.692   5.665  1.3964  1.5979  1.1084
18262TIP3   OH276200   5.673   2.698  15.282  0.2743 -0.3116 -0.4812
18262TIP3    H176201   5.598   2.729  15.333 -0.6808  0.2100 -2.1390
18262TIP3    H276202   5.653   2.607  15.262  0.0014 -0.1330 -1.0414
18263TIP3   OH276203   4.585   5.239   4.772  0.2201  0.2723 -0.1624
18263TIP3    H176204   4.588   5.329   4.804 -0.1446  0.4812 -0.7081
18263TIP3    H276205   4.629   5.188   4.840  0.0350  0.7988  0.3539
18264TIP3   OH276206   1.014   1.996  14.562  0.4557 -0.8388  0.0296
18264TIP3    H176207   0.988   2.003  14.654 -1.3348 -0.3953 -0.4568
18264TIP3    H276208   1.109   1.985  14.564  0.5323 -0.1997  1.9013
18265TIP3   OH276209   4.340   6.344   4.374  0.2418  0.3515 -0.2836
18265TIP3    H176210   4.251   6.316   4.353 -0.1529  1.1070  0.3046
18265TIP3    H276211   4.387   6.263   4.395  0.0696 -0.1911 -1.8591
18266TIP3   OH276212   5.872   6.322   1.429  0.2210 -0.3021  0.3018
18266TIP3    H176213   5.819   6.257   1.383  0.3644 -1.2286  1.4001
18266TIP3    H276214   5.828   6.405   1.411  0.5063 -0.5522 -1.8142
18267TIP3   OH276215   6.231   2.795   4.877 -0.3475  0.9088 -0.6103
18267TIP3    H176216   6.190   2.709   4.871  0.0185  0.5996  0.9625
18267TIP3    H276217   6.174   2.844   4.936 -0.8049  1.9218 -1.8486
18268TIP3   OH276218   6.560   5.091   6.502  0.3317  0.5290 -0.0791
18268TIP3    H176219   6.474   5.134   6.501 -0.6396 -1.2415  1.0420
18268TIP3    H276220   6.597   5.114   6.587  0.1740 -0.1028  0.1713
18269TIP3   OH276221   6.197   0.622  16.835 -0.1731 -0.0979 -0.1118
18269TIP3    H176222   6.269   0.653  16.891 -0.1175 -0.7300  0.1671
18269TIP3    H276223   6.170   0.700  16.787  1.3543 -0.0300 -0.9447
18270TIP3   OH276224   0.524   1.760  13.557 -0.1298 -0.0586  0.0075
18270TIP3    H176225   0.601   1.780  13.504  0.7063 -0.2209  1.1208
18270TIP3    H276226   0.451   1.800  13.510  1.0702  3.2256  0.6370
18271TIP3   OH276227   4.654   0.525  13.689  0.2306  0.0392 -0.4460
18271TIP3    H176228   4.649   0.583  13.613  1.3509  0.5768 -0.1260
18271TIP3    H276229   4.610   0.445  13.661 -2.3342  1.3731 -0.5573
18272TIP3   OH276230   0.067   5.122   0.195  0.9239  0.2938 -0.4994
18272TIP3    H176231  -0.027   5.132   0.182  0.4690 -0.0721  1.9461
18272TIP3    H276232   0.102   5.210   0.186 -0.1355  0.9703  1.4030
18273TIP3   OH276233   1.337   2.605   1.936  0.3843 -0.0169  0.0827
18273TIP3    H176234   1.275   2.535   1.913  0.6109 -0.0151 -0.5383
18273TIP3    H276235   1.335   2.664   1.861  0.6710  0.3125  0.3330
18274TIP3   OH276236   1.918   2.772  14.621 -0.2085 -0.0645 -0.1105
18274TIP3    H176237   1.874   2.687  14.613  2.2242 -1.3388 -0.9451
18274TIP3    H276238   2.010   2.750  14.633  0.4943  2.4789 -0.3244
18275TIP3   OH276239   6.631   0.887  16.073 -0.4291  0.3310 -0.2620
18275TIP3    H176240   6.699   0.849  16.129 -1.1371 -0.5245  0.0463
18275TIP3    H276241   6.667   0.882  15.984  0.7375  1.7749  0.0947
18276TIP3   OH276242   0.968   1.332   5.114 -0.3738 -0.1100  0.5481
18276TIP3    H176243   0.898   1.343   5.049  0.1750  1.2185  0.1489
18276TIP3    H276244   1.046   1.313   5.061  0.2819  1.9343  0.6985
18277TIP3   OH276245   4.447   6.665   3.717 -0.4441  0.0824 -0.4301
18277TIP3    H176246   4.539   6.652   3.691 -0.8292  0.5395 -2.1462
18277TIP3    H276247   4.417   6.577   3.741  0.5648  0.0031  0.6512
18278TIP3   OH276248   1.614   6.027  12.448  0.3482  0.1962 -0.0334
18278TIP3    H176249   1.682   6.091  12.468  0.0797  0.1670  1.0653
18278TIP3    H276250   1.566   6.017  12.531  0.6548 -1.7522 -0.0665
18279TIP3   OH276251   3.313   4.338  14.181  0.4840 -0.0676  0.3138
18279TIP3    H176252   3.378   4.383  14.235  0.0049  0.3745  0.5271
18279TIP3    H276253   3.327   4.245  14.199  0.8836  0.0364  0.5572
18280TIP3   OH276254   6.154   3.870   0.769 -0.0256 -0.0106  0.1955
18280TIP3    H176255   6.104   3.894   0.691  1.1994 -0.6214 -0.8131
18280TIP3    H276256   6.142   3.944   0.828  2.4309  2.5822 -2.2425
18281TIP3   OH276257   5.766   4.799  16.658 -0.3443 -0.1640  0.9042
18281TIP3    H176258   5.837   4.857  16.685  1.5396 -2.0646  0.3340
18281TIP3    H276259   5.810   4.721  16.625 -2.7193 -1.2699  0.0987
18282TIP3   OH276260   0.498   5.670   2.516  0.0192 -0.6205 -0.3040
18282TIP3    H176261   0.421   5.680   2.459 -0.8999 -0.4168  0.9318
18282TIP3    H276262   0.566   5.722   2.473 -1.0886  0.7484 -0.4705
18283TIP3   OH276263   6.688   1.052   1.063 -0.5203  0.5501 -0.2776
18283TIP3    H176264   6.631   1.102   1.004 -0.5159  1.0726  0.1536
18283TIP3    H276265   6.762   1.109   1.079 -1.4120  1.2313  1.7544
18284TIP3   OH276266   4.238   0.461   3.598  0.6504  0.2443 -0.1357
18284TIP3    H176267   4.273   0.428   3.515  0.4406  0.4610 -0.3105
18284TIP3    H276268   4.151   0.423   3.605  2.0039 -2.9300  1.8224
18285TIP3   OH276269   3.830   6.131   4.842  0.1235 -0.6559  0.6722
18285TIP3    H176270   3.749   6.127   4.792  1.2753 -2.7609 -1.2491
18285TIP3    H276271   3.871   6.213   4.816  0.6008 -1.6032 -1.8292
18286TIP3   OH276272   4.867   5.667   0.753  0.1781  0.0020  0.2089
18286TIP3    H176273   4.908   5.699   0.833  4.1561 -1.8495 -0.8454
18286TIP3    H276274   4.801   5.605   0.783  1.4154 -0.4787  2.0823
18287TIP3   OH276275   0.234   4.598   4.137 -0.2223  0.3530 -0.1524
18287TIP3    H176276   0.256   4.660   4.206  0.2223  0.7276 -0.6217
18287TIP3    H276277   0.190   4.651   4.070  0.9336  0.3386 -0.9438
18288TIP3   OH276278   4.077   0.113  17.206  0.0268  0.1840  0.8287
18288TIP3    H176279   4.082   0.209  17.215 -0.6068  0.4293 -1.0339
18288TIP3    H276280   4.051   0.099  17.115 -0.7502 -1.7495  1.3095
18289TIP3   OH276281   1.821   2.058  14.254  0.0629  0.7368 -0.5216
18289TIP3    H176282   1.751   2.122  14.263 -2.0055 -0.9981 -2.8090
18289TIP3    H276283   1.804   1.993  14.323 -1.0870 -0.0526 -1.5146
18290TIP3   OH276284   4.432   0.335   3.210 -0.0312 -0.1106 -0.0472
18290TIP3    H176285   4.503   0.297   3.159 -0.5154 -0.4113 -0.5132
18290TIP3    H276286   4.475   0.383   3.281  0.6390  0.0515 -0.5631
18291TIP3   OH276287   5.451   6.574  11.306 -0.4432 -0.0565 -0.3302
18291TIP3    H176288   5.522   6.627  11.270 -0.7059  1.3890  1.1388
18291TIP3    H276289   5.494   6.509  11.360 -0.2080  0.9208  0.6940
18292TIP3   OH276290   3.917   0.155  13.421  0.4714  0.5609  0.5040
18292TIP3    H176291   3.950   0.073  13.385 -0.5035 -0.3094  1.5234
18292TIP3    H276292   3.990   0.190  13.471  1.6755  1.5278 -1.7673
18293TIP3   OH276293   4.817   4.606   5.763  0.5890 -0.3297  0.0173
18293TIP3    H176294   4.825   4.665   5.837 -0.7060 -1.1265  0.8302
18293TIP3    H276295   4.905   4.605   5.724  1.5083 -0.4628  1.9596
18294TIP3   OH276296   6.585   1.795   1.322  0.3294  0.2126  0.1572
18294TIP3    H176297   6.512   1.850   1.293  1.5811  0.6857 -2.4461
18294TIP3    H276298   6.662   1.852   1.313  1.5709 -1.6123 -1.8538
18295TIP3   OH276299   1.043   0.095   2.387  0.5065 -0.2896 -0.0700
18295TIP3    H176300   1.044   0.189   2.367  0.5277 -0.1686  0.4747
18295TIP3    H276301   1.130   0.064   2.364  0.0364 -0.4963 -1.6815
18296TIP3   OH276302   6.374   5.907  16.847 -0.0488  0.4693 -0.0947
18296TIP3    H176303   6.366   5.965  16.771 -0.7764 -1.0366 -1.2194
18296TIP3    H276304   6.445   5.848  16.825  0.4541  0.6844  0.8956
18297TIP3   OH276305   5.589   2.533  16.700 -0.3465 -0.0173  0.5715
18297TIP3    H176306   5.594   2.627  16.682  0.3742  0.3356  2.3862
18297TIP3    H276307   5.677   2.509  16.730  0.2023 -1.8334 -2.1598
18298TIP3   OH276308   1.105   2.907   0.244  0.1503  0.7328  0.1514
18298TIP3    H176309   1.134   2.949   0.163 -2.8654  0.0379 -1.4385
18298TIP3    H276310   1.076   2.980   0.299  0.6159  1.1081 -0.0947
18299TIP3   OH276311   1.987   1.729   0.288 -0.1612  0.0242 -0.0318
18299TIP3    H176312   1.987   1.682   0.371  1.1825 -0.5495 -0.3141
18299TIP3    H276313   1.928   1.678   0.232 -0.2419 -0.1980  0.2505
18300TIP3   OH276314   0.735   5.456  12.878 -0.0773  0.3982  0.0951
18300TIP3    H176315   0.688   5.523  12.928  1.7421 -0.0957  2.6794
18300TIP3    H276316   0.704   5.373  12.914  0.8653  0.0029  0.0330
18301TIP3   OH276317   1.252   6.369   4.984 -0.1554 -0.1457  0.2679
18301TIP3    H176318   1.320   6.302   4.981  0.4438  0.4708 -0.6574
18301TIP3    H276319   1.185   6.338   4.923 -0.6166 -0.6474  1.0159
18302TIP3   OH276320   6.403   5.628   0.104 -0.5137  0.2191  0.3320
18302TIP3    H176321   6.318   5.589   0.083 -1.1070  1.3411  0.5754
18302TIP3    H276322   6.389   5.672   0.188  1.0522 -1.8202  1.7612
18303TIP3   OH276323   1.638   3.790  11.499  0.2089 -0.0008 -0.9139
18303TIP3    H176324   1.585   3.826  11.571  2.0759  0.4623  0.2788
18303TIP3    H276325   1.727   3.790  11.532  0.9253 -1.2371 -2.6986
18304TIP3   OH276326   3.570   1.294   4.002  0.3159 -0.3960 -0.2329
18304TIP3    H176327   3.612   1.254   3.925 -0.1848 -2.3409  0.4332
18304TIP3    H276328   3.530   1.220   4.048 -2.0265  1.0813  0.3003
18305TIP3   OH276329   3.533   2.206   0.838  0.7839 -0.0571 -0.8147
18305TIP3    H176330   3.540   2.116   0.807  0.7389  0.2259 -1.6699
18305TIP3    H276331   3.442   2.216   0.864  1.2799 -0.9592  1.5630
18306TIP3   OH276332   1.013   2.185   5.081 -0.4017 -0.5776  0.2994
18306TIP3    H176333   0.942   2.249   5.074  0.0460 -0.0747  0.3105
18306TIP3    H276334   0.982   2.110   5.031 -0.1765  0.3313 -1.2836
18307TIP3   OH276335   2.155   6.719  17.320  0.5518 -0.1704  0.8139
18307TIP3    H176336   2.230   6.664  17.343  1.8423  0.6458 -1.1527
18307TIP3    H276337   2.111   6.672  17.249 -0.3372 -0.2335  1.3872
18308TIP3   OH276338   1.076   5.417  16.427  0.5083  0.2882  0.3322
18308TIP3    H176339   1.080   5.439  16.334 -0.4366  1.8919  0.6289
18308TIP3    H276340   1.152   5.460  16.465  1.5766 -1.3646  0.1587
18309TIP3   OH276341   2.941   3.067   0.074 -0.1640  0.1175  0.1386
18309TIP3    H176342   3.034   3.045   0.071 -0.3016 -0.3451 -0.8531
18309TIP3    H276343   2.896   2.983   0.077 -0.5807  0.3223 -0.2701
18310TIP3   OH276344   0.976   3.815  10.949 -0.6577 -0.2258  0.2371
18310TIP3    H176345   0.897   3.789  10.902 -0.1776  0.2887 -0.8922
18310TIP3    H276346   0.974   3.763  11.030 -0.1908 -3.1630 -1.4759
18311TIP3   OH276347   1.948   3.241  17.331  0.6060  0.1125 -0.2653
18311TIP3    H176348   1.992   3.323  17.312  0.4486  0.7062  1.7387
18311TIP3    H276349   1.977   3.181  17.262 -1.6862  2.6116 -3.6785
18312TIP3   OH276350   0.398   6.601   3.939  0.2137  0.4282 -0.1428
18312TIP3    H176351   0.357   6.583   4.024  0.3792 -0.0918 -0.1694
18312TIP3    H276352   0.435   6.689   3.949  0.2900  0.3457  0.3484
18313TIP3   OH276353   0.943   0.318   4.972  0.6148  0.5287  0.1980
18313TIP3    H176354   0.996   0.257   5.024 -0.6323  0.3890  1.3541
18313TIP3    H276355   0.863   0.271   4.953  0.8285  0.7770 -1.4617
18314TIP3   OH276356   1.721   6.766   4.687  0.0142 -0.1379 -0.5212
18314TIP3    H176357   1.662   6.794   4.757  0.5096  0.4744 -0.3416
18314TIP3    H276358   1.671   6.701   4.639 -0.1548 -0.9570  0.7088
18315TIP3   OH276359   1.383   3.175   1.980  0.0988  0.0042 -0.8989
18315TIP3    H176360   1.434   3.115   1.926  2.4694  1.5799 -0.5187
18315TIP3    H276361   1.364   3.249   1.923 -0.6070  0.0540 -0.6157
18316TIP3   OH276362   2.295   1.283   4.853 -0.2056  0.0262  0.3882
18316TIP3    H176363   2.277   1.348   4.922  0.5917  1.1556 -0.4407
18316TIP3    H276364   2.224   1.295   4.790  0.0509  0.2401  0.1375
18317TIP3   OH276365   4.266   5.640   2.359  0.3651  0.0930 -0.2798
18317TIP3    H176366   4.251   5.730   2.330  1.7007  0.1665 -0.8060
18317TIP3    H276367   4.183   5.614   2.400 -1.3264  0.3396 -3.2491
18318TIP3   OH276368   3.846   0.025   1.260  0.0379 -0.2545  0.2776
18318TIP3    H176369   3.781  -0.027   1.212 -0.7266  0.0473  0.9469
18318TIP3    H276370   3.930  -0.004   1.227 -0.4381 -0.7996 -0.4785
18319TIP3   OH276371   5.519   6.055  15.183 -0.2377  0.3498 -0.4950
18319TIP3    H176372   5.589   6.024  15.240  0.8618  2.1768 -0.7674
18319TIP3    H276373   5.441   6.055  15.239  0.5798  0.9988  0.6753
18320TIP3   OH276374   5.961   1.684  15.046  0.4767  0.3274 -0.2443
18320TIP3    H176375   6.005   1.670  15.130 -0.3028 -0.8295 -0.0165
18320TIP3    H276376   5.872   1.708  15.069  1.0545  3.3668 -0.6915
18321TIP3   OH276377   4.678   3.579   1.722 -0.3704 -0.2030 -0.3222
18321TIP3    H176378   4.617   3.564   1.650  1.9171  1.1543 -2.6960
18321TIP3    H276379   4.628   3.632   1.785 -1.9402 -0.0338 -1.6461
18322TIP3   OH276380   1.205   0.689  13.489  0.0791 -0.2250  0.1567
18322TIP3    H176381   1.300   0.686  13.482  0.1099  0.1808  0.3591
18322TIP3    H276382   1.178   0.751  13.421  0.2202  2.1170  2.1072
18323TIP3   OH276383   5.358   3.255  17.287 -0.1453 -0.6617 -0.2081
18323TIP3    H176384   5.309   3.270  17.368  0.3435 -1.5331  0.2681
18323TIP3    H276385   5.299   3.204  17.232  0.9778 -3.8264  1.2970
18324TIP3   OH276386   6.536   1.594  13.186  0.6621 -0.0098  0.1100
18324TIP3    H176387   6.530   1.669  13.127  0.4462  1.4521  1.8903
18324TIP3    H276388   6.521   1.518  13.130 -2.0260  1.4322 -1.3028
18325TIP3   OH276389   5.199   6.038   0.626 -0.0410 -0.9440  0.0015
18325TIP3    H176390   5.144   5.960   0.620 -0.2119 -1.0324  1.9205
18325TIP3    H276391   5.202   6.058   0.720  0.1661  1.2472 -0.4114
18326TIP3   OH276392   5.649   2.880  13.913 -0.2017 -0.0198 -0.5124
18326TIP3    H176393   5.582   2.948  13.900 -1.5690 -1.4145 -1.1036
18326TIP3    H276394   5.658   2.873  14.008  0.3087  1.2871 -0.4463
18327TIP3   OH276395   1.931   0.828  10.441 -0.4289  0.2499  0.2223
18327TIP3    H176396   1.991   0.869  10.379  1.4763 -2.1784  0.3044
18327TIP3    H276397   1.962   0.738  10.448 -4.0943 -1.1588  0.3342
18328TIP3   OH276398   1.594   5.244  14.854 -0.1051 -0.1902  0.0466
18328TIP3    H176399   1.645   5.307  14.803  0.6513 -0.4856  0.4169
18328TIP3    H276400   1.505   5.251  14.820 -0.3806  2.1826  1.1139
18329TIP3   OH276401   5.633   6.216   3.296  0.8504  0.1468 -0.3037
18329TIP3    H176402   5.595   6.261   3.220  0.1303  0.1411  0.0410
18329TIP3    H276403   5.666   6.285   3.352  1.8547  0.1299 -0.8520
18330TIP3   OH276404   5.426   4.413  16.171 -0.1837  0.0087  0.2012
18330TIP3    H176405   5.461   4.479  16.230 -0.7310 -0.6107  1.2583
18330TIP3    H276406   5.500   4.356  16.151  0.0371  0.3074  0.1616
18331TIP3   OH276407   3.896   2.736   4.452  0.5772 -0.6495  0.1755
18331TIP3    H176408   3.887   2.643   4.432 -1.0945 -0.3220 -0.7606
18331TIP3    H276409   3.861   2.746   4.540 -3.0383 -0.3981 -1.1130
18332TIP3   OH276410   5.870   4.898   5.709 -0.4059  0.1536 -0.2437
18332TIP3    H176411   5.796   4.951   5.683 -0.5377  0.5625  0.8872
18332TIP3    H276412   5.870   4.823   5.649 -0.4469  1.2187 -1.6010
18333TIP3   OH276413   6.220   1.886   5.549  0.2410 -0.1652  0.1697
18333TIP3    H176414   6.231   1.877   5.454 -1.6172 -2.1622  0.0657
18333TIP3    H276415   6.228   1.797   5.583 -0.1713  0.3752  1.7811
18334TIP3   OH276416   0.645   4.226  16.707  0.4210 -0.0814 -0.0919
18334TIP3    H176417   0.619   4.266  16.624 -1.4563 -2.3565 -0.7229
18334TIP3    H276418   0.563   4.217  16.755  1.0233 -1.5847  0.7020
18335TIP3   OH276419   2.256   0.573  16.619  0.3014 -0.8412 -0.4739
18335TIP3    H176420   2.250   0.629  16.542  0.0015  0.6333  0.5676
18335TIP3    H276421   2.310   0.499  16.592  0.4464 -0.2021 -1.9961
18336TIP3   OH276422   5.749   1.980  14.802 -0.1981 -0.7178 -0.0358
18336TIP3    H176423   5.743   2.070  14.834 -2.3203 -0.8738  0.1139
18336TIP3    H276424   5.839   1.954  14.822  0.1917  1.0567  0.7286
18337TIP3   OH276425   6.131   2.599  12.208 -0.1574  0.1843  0.7865
18337TIP3    H176426   6.117   2.541  12.133 -1.0494  0.6195  0.6099
18337TIP3    H276427   6.224   2.588  12.229  0.4023  0.9087 -1.0922
18338TIP3   OH276428   2.967   0.280  12.194  0.6618 -0.3098  0.6197
18338TIP3    H176429   3.049   0.315  12.159 -0.1975  0.3928 -0.7514
18338TIP3    H276430   2.939   0.215  12.130 -0.8389  0.8444  0.0671
18339TIP3   OH276431   3.285   1.820  16.147 -0.7274 -0.1262  0.2364
18339TIP3    H176432   3.355   1.758  16.126 -0.0237  0.8936 -0.5324
18339TIP3    H276433   3.316   1.904  16.112 -1.2437  0.8721  2.0661
18340TIP3   OH276434   4.133   6.427   5.648  0.0759  0.6874  0.0589
18340TIP3    H176435   4.216   6.449   5.606  0.5789  0.2192  0.7630
18340TIP3    H276436   4.069   6.486   5.610  0.7572  1.1130 -0.4366
18341TIP3   OH276437   4.950   5.630  11.227  0.0329  0.1252  0.0298
18341TIP3    H176438   5.029   5.603  11.274 -0.4789 -2.1219 -0.2921
18341TIP3    H276439   4.979   5.703  11.172  1.6236  0.0345  0.6829
18342TIP3   OH276440   1.512   5.001   1.011 -0.1794  0.3575  0.0265
18342TIP3    H176441   1.575   4.930   0.997 -0.6139 -0.2070  0.8835
18342TIP3    H276442   1.431   4.969   0.971 -0.4448  0.2657  0.6428
18343TIP3   OH276443   4.566   5.051   0.244  0.3419 -0.0497  0.1085
18343TIP3    H176444   4.619   5.052   0.324  0.4569  1.3974  0.0428
18343TIP3    H276445   4.590   5.132   0.199 -1.8669  0.6153  0.0342
18344TIP3   OH276446   4.300   4.909  11.019  0.2278 -0.1402  0.0699
18344TIP3    H176447   4.281   4.931  10.928  0.5729  0.6969  0.1860
18344TIP3    H276448   4.396   4.909  11.024  0.2168 -0.6427  0.3272
18345TIP3   OH276449   0.191   0.738   5.235  0.2895  0.0870  0.2703
18345TIP3    H176450   0.136   0.661   5.216  1.1250 -0.4540 -0.0259
18345TIP3    H276451   0.279   0.702   5.248  0.8608  1.0638 -0.6770
18346TIP3   OH276452   2.073   2.640  15.948  0.1619  0.1843  0.0821
18346TIP3    H176453   2.054   2.686  15.866  0.4450  1.0674  0.5031
18346TIP3    H276454   2.054   2.703  16.016 -1.5534 -1.0320  0.7984
18347TIP3   OH276455   4.335   4.655   2.117 -0.4691 -0.0992 -0.1593
18347TIP3    H176456   4.287   4.573   2.102 -0.8718  0.1775 -0.4056
18347TIP3    H276457   4.266   4.720   2.131 -0.1454  0.0828  0.6828
18348TIP3   OH276458   0.553   0.931  14.288 -0.1832  0.1905 -0.2086
18348TIP3    H176459   0.504   0.962  14.364  0.5410  0.2915  0.2201
18348TIP3    H276460   0.645   0.939  14.313  0.0535 -2.2296 -0.1027
18349TIP3   OH276461   2.251   0.644   1.945 -0.3847 -0.0262 -0.2958
18349TIP3    H176462   2.290   0.574   1.892  1.4187  0.6921  0.0190
18349TIP3    H276463   2.267   0.724   1.895  1.3824  0.6669  1.2855
18350TIP3   OH276464   0.480   6.358   1.757 -0.2974 -0.1340  0.6424
18350TIP3    H176465   0.423   6.426   1.791 -0.4733  0.0565 -0.0149
18350TIP3    H276466   0.476   6.369   1.662 -1.6439 -2.0948  0.4070
18351TIP3   OH276467   4.361   4.336  15.494 -0.0132 -0.0392  0.2588
18351TIP3    H176468   4.351   4.343  15.589 -1.1918 -0.6750  0.1929
18351TIP3    H276469   4.430   4.271  15.481  1.7357  1.6211  0.6756
18352TIP3   OH276470   2.806   5.572   3.622  0.6108 -0.1020  0.4029
18352TIP3    H176471   2.791   5.662   3.652  0.0696 -0.0787  0.0831
18352TIP3    H276472   2.806   5.519   3.701  0.9551  0.1829  0.5960
18353TIP3   OH276473   4.466   5.709   1.588 -0.1852  0.2051  0.1966
18353TIP3    H176474   4.436   5.697   1.498 -0.9825 -0.7053  0.5683
18353TIP3    H276475   4.388   5.735   1.637  0.1002  0.0320  0.7620
18354TIP3   OH276476   1.125   1.615   2.417 -0.4730 -0.4934 -0.0051
18354TIP3    H176477   1.136   1.626   2.511 -0.0080 -1.8330  0.1160
18354TIP3    H276478   1.102   1.522   2.406 -2.9311  0.1730 -1.0141
18355TIP3   OH276479   6.526   5.455  13.810 -0.0295 -0.0844 -0.3172
18355TIP3    H176480   6.614   5.438  13.776 -0.0249  1.3273 -1.0914
18355TIP3    H276481   6.517   5.395  13.884  1.9801  0.4091  0.4178
18356TIP3   OH276482   6.444   6.133  12.032 -0.0933  0.4075 -0.6284
18356TIP3    H176483   6.475   6.184  12.107 -0.7391 -0.7335  0.4566
18356TIP3    H276484   6.367   6.180  12.002 -0.3680  0.3947  0.0240
18357TIP3   OH276485   4.360   2.898  13.596  0.4576 -0.4792  0.2652
18357TIP3    H176486   4.289   2.921  13.537  0.9324 -1.8145 -0.8639
18357TIP3    H276487   4.320   2.841  13.662  0.6263 -2.0904 -0.9611
18358TIP3   OH276488   6.187   5.845   0.733  0.4223  0.4749  0.1199
18358TIP3    H176489   6.154   5.932   0.713  0.3524  0.4761  0.2367
18358TIP3    H276490   6.113   5.799   0.772  0.1249 -0.0080 -0.9697
18359TIP3   OH276491   3.419   0.492   6.480  0.8700 -0.0262  0.0627
18359TIP3    H176492   3.461   0.548   6.414  0.7363 -0.2507 -0.2112
18359TIP3    H276493   3.327   0.517   6.478  0.3094 -2.0131 -1.8727
18360TIP3   OH276494   2.018   0.365  15.288 -0.2903 -0.3947  0.2721
18360TIP3    H176495   2.088   0.424  15.261  1.2853 -2.2602  0.0742
18360TIP3    H276496   1.964   0.353  15.210 -0.0203 -0.0056  0.0255
18361TIP3   OH276497   6.034   4.585  12.382  0.3335  0.1608 -0.0706
18361TIP3    H176498   6.126   4.564  12.366  0.2867 -0.9620  0.9517
18361TIP3    H276499   6.036   4.651  12.451  0.3737 -0.0311  0.1137
18362TIP3   OH276500   2.076   3.876  13.720 -0.1707  0.2921  0.0822
18362TIP3    H176501   2.068   3.910  13.630  1.6032  0.4630 -0.0311
18362TIP3    H276502   2.044   3.785  13.714  0.5928  0.0728 -0.8867
18363TIP3   OH276503   6.043   0.137  11.993  0.3082 -0.2459  0.4087
18363TIP3    H176504   6.128   0.130  11.951  0.5041 -0.6522  0.8607
18363TIP3    H276505   6.035   0.230  12.016  0.3170 -0.0754 -0.2678
18364TIP3   OH276506   4.766   2.602   0.689  0.6804  0.3463  0.0937
18364TIP3    H176507   4.722   2.551   0.621  0.1815 -0.7049  1.1706
18364TIP3    H276508   4.860   2.584   0.676  0.6919  1.1263 -1.0506
18365TIP3   OH276509   3.679   1.193   2.727 -0.3060  0.1025 -0.2892
18365TIP3    H176510   3.649   1.105   2.705 -1.7686  0.5865 -0.3489
18365TIP3    H276511   3.600   1.238   2.756  0.2249  1.7108 -1.2664
18366TIP3   OH276512   1.427   2.022  15.719 -0.1338  0.2910 -0.3473
18366TIP3    H176513   1.514   2.017  15.759 -0.8506  0.8272  1.3588
18366TIP3    H276514   1.426   2.108  15.676 -0.8357  1.7329  2.3075
18367TIP3   OH276515   4.564   5.783  10.904 -0.2073 -0.2673  0.1078
18367TIP3    H176516   4.623   5.819  10.971  0.0854  0.1624 -0.3747
18367TIP3    H276517   4.623   5.750  10.836 -0.4957  1.5851 -1.1306
18368TIP3   OH276518   5.960   4.786   4.163 -0.1762  0.1104  0.7736
18368TIP3    H176519   6.042   4.759   4.123 -0.9313  1.1788 -1.7022
18368TIP3    H276520   5.980   4.870   4.204 -0.0302  0.3837  0.1481
18369TIP3   OH276521   3.448   0.027  10.909  1.0270  0.5757  0.4094
18369TIP3    H176522   3.422  -0.053  10.955  0.6959  1.2885  1.5113
18369TIP3    H276523   3.397   0.096  10.951  1.6307  1.4335 -0.2331
18370TIP3   OH276524   6.136   1.053   1.701 -0.1021 -0.3816 -0.5292
18370TIP3    H176525   6.196   1.024   1.632  2.3175  2.7106  0.0577
18370TIP3    H276526   6.082   1.120   1.659 -0.9187 -0.8133 -0.1961
18371TIP3   OH276527   4.079   3.128   6.250  0.3450 -0.0416 -0.5207
18371TIP3    H176528   4.101   3.046   6.295  1.5615  0.6164  0.1267
18371TIP3    H276529   4.022   3.174   6.311  0.4747  0.0293 -0.4523
18372TIP3   OH276530   4.923   4.011  17.281 -0.3233 -0.2635  0.3353
18372TIP3    H176531   4.900   3.977  17.195 -1.5432 -1.7847  1.2181
18372TIP3    H276532   4.932   4.106  17.268 -0.7919 -0.4259 -1.3812
18373TIP3   OH276533   5.944   5.655  11.212  0.0564  0.2813 -0.0084
18373TIP3    H176534   5.937   5.750  11.207 -0.1835  0.2812  0.3450
18373TIP3    H276535   5.998   5.631  11.136 -1.0328  0.5726 -0.8947
18374TIP3   OH276536   4.610   6.190   3.440  1.2113 -0.3393  0.7082
18374TIP3    H176537   4.665   6.147   3.376  0.7172 -0.6628  0.4942
18374TIP3    H276538   4.572   6.119   3.492  1.5448 -0.0877  1.3125
18375TIP3   OH276539   0.783   1.800  12.345 -0.7879  0.4259  0.6753
18375TIP3    H176540   0.740   1.881  12.318  1.4406  1.6633  0.6401
18375TIP3    H276541   0.868   1.802  12.302  0.6624 -0.2912  3.2992
18376TIP3   OH276542   5.007   4.353  11.459 -0.3207 -0.4029  0.3506
18376TIP3    H176543   4.992   4.401  11.378  0.1279 -0.2940  0.3306
18376TIP3    H276544   5.027   4.264  11.431 -1.7379 -0.7642  0.4114
18377TIP3   OH276545   5.645   4.892   4.086  0.3489  0.5120 -0.2637
18377TIP3    H176546   5.695   4.966   4.119 -1.3941  2.0087 -0.8063
18377TIP3    H276547   5.703   4.850   4.022  1.1345  1.8388 -0.4537
18378TIP3   OH276548   0.701   0.678   5.117  0.0978 -0.6735  0.1949
18378TIP3    H176549   0.635   0.711   5.055 -0.4019 -0.5382  0.7910
18378TIP3    H276550   0.758   0.623   5.063  0.1446  0.0761 -0.5516
18379TIP3   OH276551   4.504   2.749   0.699 -0.4791 -0.4289  0.3989
18379TIP3    H176552   4.592   2.739   0.662 -0.2534  2.4459 -0.0576
18379TIP3    H276553   4.447   2.707   0.634  0.4525 -1.8110  0.4140
18380TIP3   OH276554   4.857   1.386   5.779  0.2275 -0.2070  0.1539
18380TIP3    H176555   4.781   1.329   5.784 -0.0144 -0.0453 -1.2311
18380TIP3    H276556   4.885   1.397   5.870 -1.5705 -0.0426  0.7382
18381TIP3   OH276557   5.593   4.070  12.666 -0.1119  0.6540 -0.2163
18381TIP3    H176558   5.556   4.105  12.747  0.6203  0.0361  0.4041
18381TIP3    H276559   5.606   3.977  12.684 -0.7176  0.3291 -1.3466
18382TIP3   OH276560   6.210   5.734   2.050  0.3138  1.1356  0.2378
18382TIP3    H176561   6.217   5.734   1.955 -0.9824  0.1872  0.0974
18382TIP3    H276562   6.300   5.736   2.081  0.7464  1.8613 -1.0005
18383TIP3   OH276563   6.665   0.378  16.146 -0.0839 -0.3087  0.0119
18383TIP3    H176564   6.590   0.428  16.177  0.0178  0.8365 -1.4623
18383TIP3    H276565   6.628   0.294  16.117 -0.2843 -1.0880  2.3037
18384TIP3   OH276566   5.521   1.005   0.913 -0.4082  0.2188  0.0634
18384TIP3    H176567   5.430   0.980   0.926 -0.1854 -0.7648 -0.1589
18384TIP3    H276568   5.571   0.945   0.969  0.1401  0.3041 -0.3213
18385TIP3   OH276569   5.956   3.147   2.698 -0.2226  0.5142  0.2977
18385TIP3    H176570   5.949   3.219   2.635  1.5129  0.1486 -0.3749
18385TIP3    H276571   6.018   3.086   2.657 -2.0035 -1.6320  0.6144
18386TIP3   OH276572   0.399   3.430   5.288 -0.1046 -0.0402  0.1660
18386TIP3    H176573   0.359   3.481   5.217  0.6609 -2.4221 -2.1360
18386TIP3    H276574   0.332   3.365   5.311  0.0757  0.0183  0.8902
18387TIP3   OH276575   4.753   2.896   0.510 -0.2388 -0.1593 -0.1509
18387TIP3    H176576   4.731   2.811   0.473 -1.9706  0.1363  0.1075
18387TIP3    H276577   4.775   2.951   0.435  0.3151 -0.6737 -0.3657
18388TIP3   OH276578   3.884   4.045  15.045  0.2265  0.9572 -0.0573
18388TIP3    H176579   3.941   4.063  14.970 -0.1505 -0.8084 -0.8007
18388TIP3    H276580   3.847   4.131  15.068  0.0332  1.4678 -2.1426
18389TIP3   OH276581   4.031   0.187  15.474 -0.4870 -0.4110 -0.0639
18389TIP3    H176582   4.041   0.279  15.496 -1.9347 -0.5240  1.2352
18389TIP3    H276583   3.945   0.163  15.508 -1.5796 -1.4456 -3.1347
18390TIP3   OH276584   4.124   1.141  17.325  0.1619 -0.0895  0.2722
18390TIP3    H176585   4.176   1.060  17.330  1.6823  0.8838  0.9870
18390TIP3    H276586   4.176   1.199  17.269  0.1725  1.1289  1.4958
18391TIP3   OH276587   2.378   4.081   2.677 -0.0141  0.1482 -0.4153
18391TIP3    H176588   2.359   4.057   2.767 -0.1587  0.8240 -0.2570
18391TIP3    H276589   2.354   4.004   2.625  0.5781 -0.4339  0.1674
18392TIP3   OH276590   2.747   5.750  11.655 -0.0346 -0.3518  0.2090
18392TIP3    H176591   2.808   5.823  11.666 -1.7851  1.5986 -1.7948
18392TIP3    H276592   2.679   5.766  11.721 -0.2293 -0.3537  0.0120
18393TIP3   OH276593   2.483   5.645   4.354  0.2288  0.0121 -0.2902
18393TIP3    H176594   2.418   5.698   4.400  1.7187  0.9208  0.8561
18393TIP3    H276595   2.468   5.556   4.385 -0.6413  0.1514 -0.2818
18394TIP3   OH276596   5.513   2.996  11.566 -0.0207 -0.0539 -0.3331
18394TIP3    H176597   5.606   3.013  11.580  0.6197 -1.9286 -1.9063
18394TIP3    H276598   5.487   3.060  11.499 -0.0779  0.9062  0.5700
18395TIP3   OH276599   0.923   4.386  14.622  0.8230  0.1705 -0.1005
18395TIP3    H176600   0.901   4.477  14.603 -0.7327 -0.0704  0.4374
18395TIP3    H276601   0.841   4.347  14.651  2.0596 -0.6293  2.6999
18396TIP3   OH276602   4.683   2.414   6.544 -0.0700 -0.4599 -1.0050
18396TIP3    H176603   4.650   2.326   6.525  1.9557 -1.2317 -1.2779
18396TIP3    H276604   4.668   2.464   6.464 -1.9006 -0.3061 -0.5966
18397TIP3   OH276605   4.545   4.018   6.117  0.7901 -0.1801 -0.2261
18397TIP3    H176606   4.461   4.025   6.162  1.0172 -0.4365  0.2459
18397TIP3    H276607   4.588   4.101   6.134  1.2087 -0.5810  0.7220
18398TIP3   OH276608   6.465   5.608  13.569 -0.1285 -0.0976  0.3029
18398TIP3    H176609   6.533   5.631  13.632  0.3726  0.0802 -0.2972
18398TIP3    H276610   6.513   5.583  13.490 -0.7313 -0.9150  0.1815
18399TIP3   OH276611   5.662   1.133  10.896  0.1104 -0.4055 -0.1159
18399TIP3    H176612   5.672   1.203  10.831 -0.8603 -0.2600 -0.1204
18399TIP3    H276613   5.609   1.173  10.966 -0.0411 -0.9895  0.1080
18400TIP3   OH276614   5.356   4.895   1.052 -0.2418  0.0551 -0.0050
18400TIP3    H176615   5.368   4.807   1.019  0.8821  0.2029 -0.0124
18400TIP3    H276616   5.262   4.911   1.044 -0.1705 -0.3561 -1.9555
18401TIP3   OH276617   4.421   0.204  17.089  0.7299  0.9053 -0.4935
18401TIP3    H176618   4.473   0.156  17.154 -0.3803  0.2660 -0.0532
18401TIP3    H276619   4.340   0.226  17.135 -0.1436  0.3079 -1.7015
18402TIP3   OH276620   6.320   5.184   4.115 -0.0263  0.8524 -0.1777
18402TIP3    H176621   6.327   5.223   4.203  0.1405 -2.8641  1.6770
18402TIP3    H276622   6.226   5.173   4.101 -0.0438  1.2521 -0.3874
18403TIP3   OH276623   4.874   3.496  13.134  0.2423  0.4237  0.2746
18403TIP3    H176624   4.789   3.461  13.161 -0.0022  0.7564 -0.0492
18403TIP3    H276625   4.885   3.466  13.044  0.4466  0.4234  0.2989
18404TIP3   OH276626   6.175   3.096   4.068 -0.2963  0.9529  0.1044
18404TIP3    H176627   6.230   3.174   4.057 -0.2571  0.9278  0.1211
18404TIP3    H276628   6.198   3.039   3.994  0.1328  0.6877  0.4333
18405TIP3   OH276629   0.938   6.369  12.408  0.4728  0.0955 -0.3284
18405TIP3    H176630   1.016   6.322  12.380  1.5708  1.8924 -0.4976
18405TIP3    H276631   0.957   6.395  12.499  0.6738  1.6332 -0.7783
18406TIP3   OH276632   3.890   0.558   2.240  0.5248  0.6890  0.0728
18406TIP3    H176633   3.917   0.471   2.267 -2.5407 -0.5512 -0.4780
18406TIP3    H276634   3.928   0.569   2.152  0.3096 -0.4274 -0.1689
18407TIP3   OH276635   5.801   6.642  17.340  0.0760 -0.4764  0.2702
18407TIP3    H176636   5.805   6.721  17.394  0.2728 -0.1861 -0.1654
18407TIP3    H276637   5.774   6.573  17.400  1.1967 -0.3405  0.9514
18408TIP3   OH276638   6.433   5.214   3.869 -0.0182 -0.0193 -0.3957
18408TIP3    H176639   6.528   5.224   3.867 -0.0421  0.3159  0.0295
18408TIP3    H276640   6.411   5.206   3.962 -0.1573 -2.6809 -0.5693
18409TIP3   OH276641   2.616   2.944  15.226  0.1438 -0.2100 -0.2938
18409TIP3    H176642   2.558   3.019  15.228  0.3576 -0.0543  0.1202
18409TIP3    H276643   2.626   2.924  15.133  0.9082  0.9182 -0.4797
18410TIP3   OH276644   0.257   5.505  14.906  0.0804  0.3518 -0.0124
18410TIP3    H176645   0.311   5.571  14.863 -0.6533  0.6965 -0.4326
18410TIP3    H276646   0.169   5.543  14.908 -0.0977 -0.0771  0.9110
18411TIP3   OH276647   0.088   5.445   5.896  0.1703 -0.1010  0.1703
18411TIP3    H176648   0.156   5.380   5.911 -0.0881 -0.5564 -0.5667
18411TIP3    H276649   0.120   5.524   5.938  1.8045  0.0989 -1.3361
18412TIP3   OH276650   5.690   2.405   0.259  0.3294 -0.4461 -0.2040
18412TIP3    H176651   5.605   2.398   0.302  1.7980 -0.4226  3.0121
18412TIP3    H276652   5.692   2.332   0.197 -1.5972 -1.1132  0.4526
18413TIP3   OH276653   3.796   0.548  15.693 -0.2554  0.4365 -0.1274
18413TIP3    H176654   3.797   0.521  15.601  3.0109 -1.2627  0.2775
18413TIP3    H276655   3.836   0.635  15.692 -2.6586  1.6367 -0.4749
18414TIP3   OH276656   3.246   2.330   1.833  0.4810  0.1083 -0.3955
18414TIP3    H176657   3.272   2.416   1.802 -0.6275  1.6387  2.4944
18414TIP3    H276658   3.150   2.329   1.825  0.5614 -1.3549 -1.4909
18415TIP3   OH276659   0.309   5.750  15.121 -0.3951 -0.0957  0.1850
18415TIP3    H176660   0.291   5.817  15.056  1.5266  0.1941 -0.1062
18415TIP3    H276661   0.223   5.713  15.143 -1.0696 -0.5274 -2.8167
18416TIP3   OH276662   6.625   3.510   2.651 -0.1832 -0.0922  0.1256
18416TIP3    H176663   6.549   3.506   2.709 -0.2878 -1.5964 -0.0652
18416TIP3    H276664   6.624   3.598   2.615 -0.3152  0.7740  2.1257
18417TIP3   OH276665   6.253   1.565   1.628 -0.6563  0.4220 -0.1376
18417TIP3    H176666   6.343   1.576   1.597  0.2861  1.5435  2.6487
18417TIP3    H276667   6.264   1.528   1.716 -3.0205 -0.9161 -0.3445
18418TIP3   OH276668   4.532   0.210   3.750 -0.7362 -0.2248 -0.1639
18418TIP3    H176669   4.581   0.176   3.676 -0.1703 -1.9466  0.9534
18418TIP3    H276670   4.472   0.139   3.774 -0.0780 -0.1867  1.7404
18419TIP3   OH276671   1.703   2.646  11.635 -0.1529 -0.0872  0.0478
18419TIP3    H176672   1.645   2.710  11.596  0.6951  1.2500  0.9115
18419TIP3    H276673   1.688   2.654  11.730 -0.8506 -1.9787  0.1431
18420TIP3   OH276674   3.177   5.246  14.098  0.4472  0.3523  0.5920
18420TIP3    H176675   3.109   5.307  14.127 -0.1170  1.1372 -2.0289
18420TIP3    H276676   3.190   5.268  14.005  4.0731 -0.0043  0.8783
18421TIP3   OH276677   5.579   5.147   3.548  0.2201  0.9292 -0.2068
18421TIP3    H176678   5.626   5.155   3.465 -1.0174  1.3448 -0.8909
18421TIP3    H276679   5.487   5.150   3.523 -0.2172 -0.8494  0.9842
18422TIP3   OH276680   2.223   6.205  17.125 -0.0792  0.2333 -0.2247
18422TIP3    H176681   2.271   6.177  17.203 -0.0323 -0.6543 -0.5699
18422TIP3    H276682   2.139   6.161  17.130 -0.3427  0.7125 -0.3319
18423TIP3   OH276683   0.000   2.823   5.166  0.6433  0.0136  0.1745
18423TIP3    H176684   0.020   2.772   5.245 -1.4159 -1.4356 -0.1674
18423TIP3    H276685  -0.087   2.793   5.139 -0.2730  3.0162 -0.6443
18424TIP3   OH276686   6.641   3.746  13.134 -0.3231  0.0264  0.0749
18424TIP3    H176687   6.696   3.807  13.181  0.2140 -1.0976  0.9479
18424TIP3    H276688   6.601   3.798  13.064  2.7974  0.6408 -1.4037
18425TIP3   OH276689   3.212   3.729  16.488  0.2587  0.1447 -0.5048
18425TIP3    H176690   3.262   3.706  16.410  0.3875  0.1863 -0.4352
18425TIP3    H276691   3.275   3.720  16.561  0.8500  2.4221 -0.6483
18426TIP3   OH276692   0.770   6.171  16.869  0.4212  0.0927  0.0686
18426TIP3    H176693   0.680   6.144  16.849 -0.2828  1.1365  1.6296
18426TIP3    H276694   0.765   6.207  16.958  2.0062  1.9511 -0.5294
18427TIP3   OH276695   4.581   5.923  13.088 -0.5652 -0.2761  0.2901
18427TIP3    H176696   4.535   5.865  13.149  0.3938 -1.6517 -0.2410
18427TIP3    H276697   4.527   6.002  13.084 -1.6634 -0.9383  1.4098
18428TIP3   OH276698   6.663   0.206  17.071  0.1389  0.6651  0.2532
18428TIP3    H176699   6.614   0.186  16.991  1.7212 -0.1805 -0.5467
18428TIP3    H276700   6.723   0.132  17.082  0.7022  1.2889  1.6435
18429TIP3   OH276701   3.198   5.758  13.913 -0.4005  0.2259  0.2033
18429TIP3    H176702   3.201   5.725  14.002  0.2944 -1.3069 -0.3440
18429TIP3    H276703   3.176   5.681  13.860  0.6905  0.7675 -1.0847
18430TIP3   OH276704   3.927   5.089   5.785 -0.3600 -0.0852 -0.2239
18430TIP3    H176705   3.883   5.172   5.772  0.0476  0.4268  1.3953
18430TIP3    H276706   4.007   5.111   5.832 -0.9334 -1.4844  1.5612
18431TIP3   OH276707   6.442   2.746   3.727  0.1793  0.2256  0.1214
18431TIP3    H176708   6.467   2.667   3.775 -0.2076  0.7367  1.2068
18431TIP3    H276709   6.396   2.713   3.649  2.0318 -0.6432 -0.6519
18432TIP3   OH276710   1.798   5.596  13.765 -0.1639  0.3539  0.6204
18432TIP3    H176711   1.877   5.548  13.788 -0.4324 -0.9563 -0.9249
18432TIP3    H276712   1.774   5.562  13.678 -3.2718 -0.4657  1.6418
18433TIP3   OH276713   0.969   5.337  15.219  0.0105 -0.2056  0.1468
18433TIP3    H176714   0.979   5.242  15.217 -0.8367 -0.3049  0.1603
18433TIP3    H276715   1.002   5.368  15.135  0.2453 -0.5167  0.1267
18434TIP3   OH276716   1.343   1.813   0.584  0.3861 -0.5003 -0.0461
18434TIP3    H176717   1.272   1.870   0.553 -0.5471 -1.6483 -0.0682
18434TIP3    H276718   1.379   1.773   0.505  0.4684 -0.5998  0.0413
18435TIP3   OH276719   5.327   4.614   3.224 -0.1908 -0.3641  0.8791
18435TIP3    H176720   5.273   4.558   3.280  1.4289 -1.0189  1.8680
18435TIP3    H276721   5.395   4.647   3.282  0.0381  1.0612 -0.1554
18436TIP3   OH276722   3.197   3.272  11.967  1.0684 -0.1927  0.1281
18436TIP3    H176723   3.247   3.270  12.049  1.3660 -0.8787 -0.0700
18436TIP3    H276724   3.121   3.327  11.988  1.1956 -0.2692  0.8339
18437TIP3   OH276725   0.021   2.044  14.720 -0.1945  0.0352  0.3051
18437TIP3    H176726   0.070   2.006  14.793  1.4604  0.2684 -0.6432
18437TIP3    H276727   0.040   1.987  14.645 -2.7125 -0.8200  0.2090
18438TIP3   OH276728   5.146   4.693  15.697  0.3511  0.3736 -0.2354
18438TIP3    H176729   5.146   4.787  15.719  0.3911  0.6788 -1.4798
18438TIP3    H276730   5.057   4.664  15.718  0.6253  0.4330  1.1215
18439TIP3   OH276731   1.902   6.579  14.877  0.2565  0.0207  0.0421
18439TIP3    H176732   1.978   6.629  14.848  0.9743  0.0798  1.8643
18439TIP3    H276733   1.928   6.487  14.865  0.8136  0.0316  1.0369
18440TIP3   OH276734   5.744   3.317   5.620 -0.4431  0.2157 -0.0599
18440TIP3    H176735   5.770   3.243   5.676 -0.4688 -0.0667 -0.4161
18440TIP3    H276736   5.653   3.334   5.643 -0.6264 -0.2640 -0.4056
18441TIP3   OH276737   1.741   2.377  15.214  0.2146 -0.3527  0.0685
18441TIP3    H176738   1.761   2.295  15.259 -2.8665 -0.4016  1.6698
18441TIP3    H276739   1.698   2.349  15.133 -0.0900 -0.3298  0.2202
18442TIP3   OH276740   1.722   1.179  13.819  0.0731  0.2914  0.3602
18442TIP3    H176741   1.757   1.259  13.859  1.2383  0.0278 -0.0930
18442TIP3    H276742   1.798   1.137  13.779 -0.9536  0.3391 -1.7918
18443TIP3   OH276743   1.258   3.714   6.127  0.6278 -0.0587  0.4203
18443TIP3    H176744   1.231   3.633   6.085  0.1976  0.3099 -0.0346
18443TIP3    H276745   1.327   3.689   6.188  0.4325 -0.7734  0.3487
18444TIP3   OH276746   0.327   0.260  15.824 -0.6523 -0.3688 -0.0947
18444TIP3    H176747   0.371   0.203  15.887 -3.0301 -0.0299  2.0615
18444TIP3    H276748   0.259   0.204  15.785 -2.3346  0.6093  1.2845
18445TIP3   OH276749   1.168   4.550  13.216 -0.0099 -0.6481  0.6367
18445TIP3    H176750   1.235   4.484  13.232  1.0209 -0.0350 -0.9285
18445TIP3    H276751   1.119   4.518  13.141  1.0058  0.6842 -0.6424
18446TIP3   OH276752   3.092   2.056   2.164  0.1941 -0.0290  0.2760
18446TIP3    H176753   3.048   2.091   2.086 -0.8449  0.2239  0.9457
18446TIP3    H276754   3.185   2.057   2.143 -0.0323  0.6158 -0.7296
18447TIP3   OH276755   0.025   2.544   2.177 -0.0001  0.1683 -0.0048
18447TIP3    H176756   0.114   2.514   2.196  1.0359  2.5432 -0.7273
18447TIP3    H276757  -0.028   2.510   2.249  1.5908 -0.8102  0.7591
18448TIP3   OH276758   1.260   5.473  11.992 -0.1897 -0.6003 -0.2138
18448TIP3    H176759   1.267   5.455  11.898  0.4359  0.4866 -0.3895
18448TIP3    H276760   1.219   5.394  12.028 -0.3323 -1.0834 -1.3749
18449TIP3   OH276761   3.016   6.361  11.319 -0.3253 -0.6529  0.3202
18449TIP3    H176762   3.005   6.452  11.292 -0.9054 -0.0425  2.4266
18449TIP3    H276763   2.984   6.358  11.409  0.7356 -2.7060  0.7025
18450TIP3   OH276764   0.551   4.231   4.901 -0.3602  0.5403 -0.2132
18450TIP3    H176765   0.616   4.301   4.906  0.2456 -0.0686  2.9125
18450TIP3    H276766   0.586   4.171   4.835 -0.0981  2.3308 -1.7939
18451TIP3   OH276767   3.464   6.661  17.017 -0.2453  0.2898  0.0299
18451TIP3    H176768   3.466   6.658  17.113 -0.1895 -0.5804  0.0120
18451TIP3    H276769   3.424   6.578  16.992 -1.7756  1.2146 -0.6710
18452TIP3   OH276770   4.051   4.310   0.768  0.5529 -0.2601 -0.0099
18452TIP3    H176771   4.071   4.387   0.821  0.3855 -0.4242  0.2918
18452TIP3    H276772   3.958   4.294   0.783  0.5902 -0.5316 -0.0615
18453TIP3   OH276773   2.738   0.485  15.172  0.1938 -0.0999 -0.0383
18453TIP3    H176774   2.739   0.429  15.094  0.3538 -0.8213  0.4726
18453TIP3    H276775   2.653   0.467  15.213 -0.8482  1.8600 -1.1414
18454TIP3   OH276776   4.939   3.840  11.073 -0.0937 -0.1343 -0.0115
18454TIP3    H176777   4.876   3.787  11.023 -1.6080  2.5359 -1.1364
18454TIP3    H276778   5.006   3.863  11.009  1.5530 -2.0381  0.9167
18455TIP3   OH276779   4.851   0.443  11.715  0.3114  0.4651 -0.1973
18455TIP3    H176780   4.891   0.529  11.702  2.5447 -0.8513 -3.7352
18455TIP3    H276781   4.807   0.424  11.632 -2.1213 -0.9761  1.2779
18456TIP3   OH276782   4.822   1.826   0.211 -0.4723 -0.2098  0.1444
18456TIP3    H176783   4.855   1.818   0.122 -0.6384  1.0939 -0.0536
18456TIP3    H276784   4.854   1.748   0.255  0.2014 -0.5336 -0.8708
18457TIP3   OH276785   4.598   3.163   2.223 -0.0906  0.2616  0.2814
18457TIP3    H176786   4.664   3.095   2.239 -0.3271 -0.6725 -2.2153
18457TIP3    H276787   4.551   3.171   2.305 -0.1358 -2.7275  0.6538
18458TIP3   OH276788   3.592   0.180   4.170  0.0996 -0.3121  0.1116
18458TIP3    H176789   3.547   0.155   4.251  0.3030 -1.3883 -0.0945
18458TIP3    H276790   3.523   0.176   4.103  0.0449  0.0784  0.1434
18459TIP3   OH276791   4.978   0.875   1.852 -0.0767  0.2568 -0.1052
18459TIP3    H176792   5.051   0.860   1.912  0.4978 -0.5825 -0.9766
18459TIP3    H276793   4.976   0.970   1.838 -0.6469  0.5559  1.7197
18460TIP3   OH276794   3.569   6.448   2.562 -0.1819  0.3831 -0.5929
18460TIP3    H176795   3.525   6.406   2.636  0.7646 -3.4703 -1.9848
18460TIP3    H276796   3.635   6.505   2.602  1.0337 -2.3812  1.6483
18461TIP3   OH276797   3.214   1.755   1.011 -0.2671  0.4142 -0.1023
18461TIP3    H176798   3.141   1.709   1.054 -1.1124  2.2771  0.6063
18461TIP3    H276799   3.265   1.686   0.969 -1.2928 -1.1732  1.1153
18462TIP3   OH276800   0.639   0.350   6.153  0.3989  0.0383  0.0241
18462TIP3    H176801   0.612   0.382   6.239  0.8083  0.5806 -0.0471
18462TIP3    H276802   0.655   0.256   6.167 -1.2972 -0.2664  0.1110
18463TIP3   OH276803   5.157   1.439   2.595 -0.0667  0.0094  0.3985
18463TIP3    H176804   5.228   1.501   2.609 -0.5577  0.5746  0.3964
18463TIP3    H276805   5.096   1.485   2.538 -1.0540  0.0019  1.4363
18464TIP3   OH276806   1.094   5.461   2.271 -0.1319 -0.3811 -0.3661
18464TIP3    H176807   1.128   5.549   2.256 -1.1676  0.3987  1.5165
18464TIP3    H276808   1.057   5.435   2.187 -0.3926  1.2598 -0.7858
18465TIP3   OH276809   5.361   3.968  12.146  0.3055  0.7399 -0.2703
18465TIP3    H176810   5.378   4.046  12.198  0.0696  1.0335 -0.6271
18465TIP3    H276811   5.266   3.969  12.131  0.2735  0.2863 -0.1241
18466TIP3   OH276812   6.447   5.561   2.124  0.0001  0.1906 -0.0060
18466TIP3    H176813   6.531   5.560   2.170 -0.5751  0.1910  1.0832
18466TIP3    H276814   6.413   5.473   2.134 -0.4589  0.3859  0.1961
18467TIP3   OH276815   6.627   3.402   4.495  0.6215 -0.0729  0.4387
18467TIP3    H176816   6.657   3.312   4.483  0.0434 -0.1663 -0.3725
18467TIP3    H276817   6.579   3.400   4.577 -1.5236 -1.1115 -0.7388
18468TIP3   OH276818   2.692   0.967  12.578 -0.6568 -0.1207  0.1740
18468TIP3    H176819   2.673   0.953  12.486 -2.0904 -0.2451  0.4658
18468TIP3    H276820   2.752   0.896  12.601 -0.9583 -0.5877 -0.4611
18469TIP3   OH276821   2.200   0.756   0.854  0.0097  0.3759  0.0420
18469TIP3    H176822   2.213   0.845   0.888  0.3615  0.7485 -1.0280
18469TIP3    H276823   2.288   0.722   0.842 -0.1021  0.3072 -0.6169
18470TIP3   OH276824   0.614   4.530   3.644 -0.3951  0.4388 -0.4494
18470TIP3    H176825   0.655   4.518   3.559 -1.7111 -1.3103 -0.8850
18470TIP3    H276826   0.607   4.625   3.654  0.6178  0.6873 -1.8578
18471TIP3   OH276827   3.312   5.284   1.702 -0.2340  0.3829  0.5063
18471TIP3    H176828   3.271   5.347   1.644 -0.2887  0.6526  0.8304
18471TIP3    H276829   3.406   5.300   1.693 -0.1961 -0.1783 -0.1732
18472TIP3   OH276830   2.186   6.184  13.482 -0.1830 -0.4845 -0.3886
18472TIP3    H176831   2.151   6.098  13.460 -0.9742 -0.1474 -0.4593
18472TIP3    H276832   2.136   6.245  13.429  0.6068  0.0048 -0.5977
18473TIP3   OH276833   5.385   5.196  11.939  0.1381 -0.6618 -0.1617
18473TIP3    H176834   5.374   5.118  11.994  2.6807 -2.2176 -1.6634
18473TIP3    H276835   5.388   5.163  11.850  1.0490  1.1845 -0.8715
18474TIP3   OH276836   3.753   3.021   5.609  0.1281  0.2595  0.6350
18474TIP3    H176837   3.845   3.021   5.635  0.1396 -1.7969  0.7553
18474TIP3    H276838   3.752   3.063   5.523  1.0351  1.1319  1.0387
18475TIP3   OH276839   4.651   2.794   6.725 -0.6961 -0.0296 -0.1832
18475TIP3    H176840   4.619   2.768   6.638 -1.7156  0.7272 -0.0567
18475TIP3    H276841   4.633   2.888   6.730  0.3954  0.1631  0.4190
18476TIP3   OH276842   0.019   5.629  14.952 -1.2317  0.4753 -0.3276
18476TIP3    H176843   0.012   5.639  15.047 -1.3941 -0.7769 -0.1846
18476TIP3    H276844  -0.072   5.629  14.922 -1.2158  0.1074 -0.3822
18477TIP3   OH276845   5.519   4.990   1.885 -0.2740  0.0733 -0.4197
18477TIP3    H176846   5.584   5.051   1.919 -1.0121 -0.0055  1.2176
18477TIP3    H276847   5.548   4.904   1.917  0.3698 -0.3665 -2.1079
18478TIP3   OH276848   6.656   4.979  15.802  0.3589  0.0036  0.7202
18478TIP3    H176849   6.719   5.029  15.750 -0.5181 -0.3788 -0.7793
18478TIP3    H276850   6.578   4.973  15.747  0.9599 -4.4900 -0.0597
18479TIP3   OH276851   5.528   4.700  13.812 -0.6477  0.2033 -0.1302
18479TIP3    H176852   5.465   4.770  13.828 -1.0569 -0.3781  0.8746
18479TIP3    H276853   5.595   4.711  13.878 -1.0705 -0.7444  0.4847
18480TIP3   OH276854   6.009   2.113   5.461 -0.1317  0.1360  0.1547
18480TIP3    H176855   6.020   2.018   5.460  1.4569  0.2996 -1.2505
18480TIP3    H276856   6.061   2.142   5.536 -1.3227 -0.1449  1.1195
18481TIP3   OH276857   4.944   2.415   6.675 -0.0150 -0.0807  0.0396
18481TIP3    H176858   4.872   2.443   6.618  1.0873  1.6402 -0.5899
18481TIP3    H276859   4.945   2.480   6.745 -1.3620 -2.1740  2.1478
18482TIP3   OH276860   5.049   1.740   0.919  0.1683  0.2715  0.3690
18482TIP3    H176861   5.102   1.820   0.925 -1.3046  1.2765  0.5032
18482TIP3    H276862   5.035   1.714   1.010  0.3216  0.0736  0.3374
18483TIP3   OH276863   4.969   5.852   0.022 -0.0672  0.1625 -0.4100
18483TIP3    H176864   5.061   5.857   0.047  0.2203 -2.0270 -0.7886
18483TIP3    H276865   4.971   5.838  -0.073 -0.6341 -1.9368 -0.1678
18484TIP3   OH276866   1.931   3.485   1.504  0.0194  1.1141 -0.0727
18484TIP3    H176867   1.970   3.489   1.417 -1.4785 -0.7099 -0.9043
18484TIP3    H276868   1.906   3.576   1.523 -0.0450  1.4794 -1.7457
18485TIP3   OH276869   2.588   6.299  15.641 -0.1200  0.0823 -0.2787
18485TIP3    H176870   2.514   6.296  15.702  1.7606 -0.3705  2.1666
18485TIP3    H276871   2.552   6.337  15.561 -2.7108  0.9919  1.1894
18486TIP3   OH276872   3.501   3.972   2.584  0.2698 -0.3462 -0.2687
18486TIP3    H176873   3.564   4.002   2.519  2.0618 -0.3063  1.3869
18486TIP3    H276874   3.473   3.886   2.553  1.2402 -0.4111 -1.0073
18487TIP3   OH276875   5.221   1.167  15.431 -0.3246 -0.2607 -0.8576
18487TIP3    H176876   5.205   1.110  15.506 -0.7395 -0.6882 -1.2634
18487TIP3    H276877   5.172   1.247  15.451 -0.0359 -0.1847 -0.4504
18488TIP3   OH276878   3.114   0.299   3.920 -0.3639 -0.0449  0.6848
18488TIP3    H176879   3.169   0.354   3.865 -1.8307  0.5856 -0.2276
18488TIP3    H276880   3.151   0.211   3.912  0.6784  0.4105  0.3752
18489TIP3   OH276881   0.343   2.345   2.042 -0.5236  0.1708  0.2166
18489TIP3    H176882   0.317   2.308   1.958 -0.4445  0.9723 -0.1782
18489TIP3    H276883   0.429   2.308   2.060  0.1584  1.1671 -0.8342
18490TIP3   OH276884   2.474   2.974  13.561  0.4636 -0.6991  0.4813
18490TIP3    H176885   2.446   2.949  13.649  0.3997 -1.6485  0.1965
18490TIP3    H276886   2.567   2.954  13.559  0.2838 -1.5206  0.0486
18491TIP3   OH276887   1.630   4.427  15.867 -0.2482 -0.1762  0.1359
18491TIP3    H176888   1.549   4.391  15.906  0.4226  2.4656  4.7178
18491TIP3    H276889   1.618   4.522  15.870  1.8957  0.2442 -1.9834
18492TIP3   OH276890   1.320   1.223   1.027  0.0752  0.3121  0.5429
18492TIP3    H176891   1.286   1.283   0.961 -0.6264  0.6762  1.2332
18492TIP3    H276892   1.283   1.138   1.003 -0.5539  0.5312  0.7451
18493TIP3   OH276893   4.986   2.109   6.026  0.0747  0.2519 -0.4661
18493TIP3    H176894   5.064   2.077   6.073 -0.8783 -0.1274  0.9212
18493TIP3    H276895   5.020   2.176   5.966  1.4024  0.5797  0.5897
18494TIP3   OH276896   3.565   2.644   3.579 -0.1730  0.1294  0.2229
18494TIP3    H176897   3.490   2.664   3.634 -1.2166  1.7456 -1.6617
18494TIP3    H276898   3.641   2.663   3.634 -1.1690  1.1736  1.2791
18495TIP3   OH276899   0.260   4.444   3.508 -0.6289  0.0600 -0.1972
18495TIP3    H176900   0.238   4.357   3.475 -0.4456 -0.0098 -0.1372
18495TIP3    H276901   0.354   4.440   3.529 -0.3184  0.6563 -1.3974
18496TIP3   OH276902   4.276   1.678   0.316 -0.2383 -0.2130 -0.1201
18496TIP3    H176903   4.237   1.614   0.257  2.8346 -1.2123 -1.2884
18496TIP3    H276904   4.318   1.625   0.384  0.3543  0.6729  0.2184
18497TIP3   OH276905   3.446   5.476   0.886  0.0280 -0.1869 -0.0375
18497TIP3    H176906   3.380   5.471   0.817 -0.1357 -0.4059  0.1339
18497TIP3    H276907   3.474   5.568   0.886 -0.2787 -0.0911 -0.1092
18498TIP3   OH276908   6.417   0.466  14.839  0.5818 -0.4105  0.1730
18498TIP3    H176909   6.487   0.406  14.814  0.2998 -1.3709  1.5206
18498TIP3    H276910   6.459   0.528  14.899  0.7172  0.3029 -0.6536
18499TIP3   OH276911   0.000   0.642  11.713 -0.7353 -0.4986  0.1113
18499TIP3    H176912   0.071   0.678  11.767  1.4290 -1.9407 -1.5835
18499TIP3    H276913  -0.043   0.578  11.769  0.5504 -0.9781  0.5798
18500TIP3   OH276914   1.215   4.350  14.685  0.3075  0.7887  0.2076
18500TIP3    H176915   1.256   4.411  14.623 -0.7392 -0.6112 -1.9712
18500TIP3    H276916   1.122   4.352  14.662  0.2700 -1.7497 -0.0769
18501TIP3   OH276917   4.857   3.589   0.438 -0.4254  0.1011  0.0473
18501TIP3    H176918   4.907   3.665   0.469 -0.3522  0.9067 -1.9013
18501TIP3    H276919   4.867   3.524   0.507  1.1900  1.1556  0.8713
18502TIP3   OH276920   5.669   1.822  11.555 -0.7439  0.6595  0.4553
18502TIP3    H176921   5.728   1.789  11.622  2.0676  4.1681  0.0356
18502TIP3    H276922   5.601   1.869  11.604 -0.2309  0.9318  0.9223
18503TIP3   OH276923   4.801   3.542   5.428 -0.3159 -0.3766 -0.1071
18503TIP3    H176924   4.839   3.526   5.513  0.1556 -0.1207 -0.2678
18503TIP3    H276925   4.873   3.577   5.375 -1.0530  1.3872 -0.0229
18504TIP3   OH276926   6.478   1.730   5.529  0.5300  0.0285  0.1094
18504TIP3    H176927   6.483   1.764   5.439  1.6691 -1.2815 -0.3620
18504TIP3    H276928   6.539   1.784   5.579 -0.0481  0.7114  0.0924
18505TIP3   OH276929   1.714   4.335  11.435 -0.9983  0.0763 -0.4701
18505TIP3    H176930   1.646   4.401  11.448 -1.0777  0.0428 -0.6993
18505TIP3    H276931   1.670   4.252  11.449 -1.4361 -0.0372 -2.2392
18506TIP3   OH276932   1.029   3.246  11.083 -0.4814 -0.1549 -0.7078
18506TIP3    H176933   1.089   3.281  11.149 -1.5133 -0.6785  0.5397
18506TIP3    H276934   0.979   3.322  11.053  0.4746  0.2088 -1.4397
18507TIP3   OH276935   1.728   5.830  15.403 -0.2409 -0.2393  0.2075
18507TIP3    H176936   1.701   5.894  15.337 -0.0244 -2.0219 -1.6889
18507TIP3    H276937   1.665   5.842  15.474  0.3801  2.7221  0.4131
18508TIP3   OH276938   2.064   5.022  14.751 -0.7640 -0.4567  0.7049
18508TIP3    H176939   2.120   5.057  14.682 -2.2592 -0.8340 -0.7660
18508TIP3    H276940   2.124   4.999  14.821  0.7429  0.5693 -0.1857
18509TIP3   OH276941   6.026   1.144  16.322  0.3301 -0.1068 -0.5956
18509TIP3    H176942   6.080   1.218  16.350  1.4164 -0.6527 -1.1942
18509TIP3    H276943   6.065   1.116  16.239 -0.3062 -1.0953 -0.5711
18510TIP3   OH276944   0.786   3.652   5.205  0.3919  0.0493  0.0728
18510TIP3    H176945   0.734   3.726   5.176 -0.7907 -0.9823 -0.5408
18510TIP3    H276946   0.819   3.678   5.291 -1.3055  0.6833  0.5763
18511TIP3   OH276947   2.716   6.739  16.033 -0.6294 -0.3360  0.0744
18511TIP3    H176948   2.653   6.692  15.977  0.2876 -0.3474 -0.9762
18511TIP3    H276949   2.715   6.828  15.999 -2.5328  0.5477  2.2093
18512TIP3   OH276950   0.424   1.106   5.963  0.6495 -0.5861 -0.1575
18512TIP3    H176951   0.328   1.111   5.955  0.2207 -0.2908  3.4539
18512TIP3    H276952   0.455   1.188   5.925 -0.8297  0.5723  0.9931
18513TIP3   OH276953   2.909   2.172   1.044  0.5757  0.1508 -0.1530
18513TIP3    H176954   2.914   2.101   1.109  0.7425  0.2286 -0.0795
18513TIP3    H276955   2.871   2.245   1.093  2.3986  0.7921  0.3775
18514TIP3   OH276956   2.419   4.447   4.830  0.0959  0.3821 -0.2434
18514TIP3    H176957   2.415   4.355   4.804  1.0824  0.6066 -1.3055
18514TIP3    H276958   2.439   4.445   4.924 -1.0026 -0.4725 -0.0124
18515TIP3   OH276959   6.746   0.292  12.891 -0.1383 -0.8109  0.3239
18515TIP3    H176960   6.672   0.238  12.862  0.5360 -0.9635 -1.2209
18515TIP3    H276961   6.816   0.228  12.910  0.8676 -0.5474 -2.1067
18516TIP3   OH276962   2.339   0.541  16.197 -0.3021 -0.0017  0.1990
18516TIP3    H176963   2.421   0.580  16.230 -0.2563 -0.8787  1.1697
18516TIP3    H276964   2.272   0.605  16.219 -0.0736  0.0589  0.7444
18517TIP3   OH276965   0.058   0.587  13.435 -0.1169  0.2190 -0.1196
18517TIP3    H176966   0.087   0.583  13.344 -0.8198  0.2801 -0.3503
18517TIP3    H276967   0.117   0.651  13.476 -0.1782  0.6360 -0.6732
18518TIP3   OH276968   5.319   4.954   3.896 -0.2144 -0.0242  0.4372
18518TIP3    H176969   5.374   4.878   3.877 -1.0048 -0.5911  0.4003
18518TIP3    H276970   5.236   4.936   3.851 -0.6372  0.5535  0.9736
18519TIP3   OH276971   5.006   1.051   0.117  0.0245 -0.6571  0.0622
18519TIP3    H176972   4.956   1.105   0.179  0.7479 -0.8172  0.8053
18519TIP3    H276973   4.959   1.061   0.034  0.6169  1.8561 -0.0610
18520TIP3   OH276974   2.718   1.530  13.350 -0.0825  0.3828 -0.4064
18520TIP3    H176975   2.682   1.617  13.368  3.2663  2.0779 -1.1725
18520TIP3    H276976   2.731   1.491  13.437 -0.9399  0.9018 -0.0313
18521TIP3   OH276977   5.301   3.540   1.032 -0.6981  0.2175 -0.3014
18521TIP3    H176978   5.351   3.528   0.951  0.8762 -0.7008  0.7450
18521TIP3    H276979   5.295   3.453   1.070 -0.2546  0.8132  1.2155
18522TIP3   OH276980   5.362   6.531  12.640  0.1973 -0.4078 -0.1670
18522TIP3    H176981   5.381   6.595  12.572 -1.6470 -0.1736 -0.5030
18522TIP3    H276982   5.419   6.457  12.620  2.6230  1.1782  0.4219
18523TIP3   OH276983   0.712   0.736  13.352 -0.2772  0.4815 -0.3940
18523TIP3    H176984   0.684   0.824  13.326  2.1973  0.9695 -1.7376
18523TIP3    H276985   0.793   0.751  13.402 -0.6979 -0.9791  0.7940
18524TIP3   OH276986   1.275   1.506   4.653  0.0279 -0.8068 -0.1211
18524TIP3    H176987   1.221   1.479   4.728  1.2058 -1.3872  0.5605
18524TIP3    H276988   1.259   1.600   4.644  1.4102 -0.2574  2.2269
18525TIP3   OH276989   4.752   2.474  15.295  0.0240 -0.0536  0.1898
18525TIP3    H176990   4.729   2.444  15.207 -0.5270 -0.7500  0.5584
18525TIP3    H276991   4.817   2.411  15.326 -0.6655 -0.5252  0.7255
18526TIP3   OH276992   5.219   5.513   2.156 -0.5783 -0.4524 -0.2538
18526TIP3    H176993   5.183   5.486   2.241 -0.8929  0.1261 -0.2009
18526TIP3    H276994   5.163   5.471   2.091 -1.2546  0.3065 -0.1721
18527TIP3   OH276995   0.508   2.714  16.727  0.4205  0.1303  0.2091
18527TIP3    H176996   0.588   2.712  16.780 -0.2351  0.9927  1.2925
18527TIP3    H276997   0.455   2.783  16.767  0.6501  2.1869 -2.7138
18528TIP3   OH276998   2.621   0.213   1.596 -0.1993 -0.6969 -0.2158
18528TIP3    H176999   2.697   0.246   1.645 -0.3235 -1.9123  0.8650
18528TIP3    H277000   2.550   0.214   1.660 -0.7111 -1.0307 -0.7701
18529TIP3   OH277001   2.367   6.647   5.763  0.0330  0.4181  0.0395
18529TIP3    H177002   2.356   6.616   5.853 -1.3238 -0.1484 -0.2922
18529TIP3    H277003   2.292   6.706   5.749 -1.8887 -2.2373 -1.8056
18530TIP3   OH277004   1.340   5.370  17.118  0.1722 -0.1201  0.6550
18530TIP3    H177005   1.261   5.422  17.102 -0.8631 -1.2790  1.7875
18530TIP3    H277006   1.407   5.412  17.065 -1.3700  0.4501 -0.9371
18531TIP3   OH277007   5.212   6.001  12.463 -0.2984  0.5059 -0.0035
18531TIP3    H177008   5.128   5.988  12.419 -0.8093  2.2398  0.3657
18531TIP3    H277009   5.278   5.990  12.395 -0.7260 -1.7451 -0.1228
18532TIP3   OH277010   5.784   0.543  14.251  0.0714  0.3580  0.3956
18532TIP3    H177011   5.691   0.553  14.230 -0.0467 -0.3542  0.5525
18532TIP3    H277012   5.829   0.583  14.177 -0.3564 -0.7037 -0.4801
18533TIP3   OH277013   1.799   5.261  16.799 -0.0983  0.2241  0.0765
18533TIP3    H177014   1.871   5.262  16.736 -0.6988  0.4777 -0.6272
18533TIP3    H277015   1.750   5.341  16.780 -1.1635 -0.4655 -0.1746
18534TIP3   OH277016   6.406   5.610  12.746  0.0411 -0.0022  0.1236
18534TIP3    H177017   6.385   5.642  12.659 -0.3462  1.6066  0.7821
18534TIP3    H277018   6.502   5.611  12.750  0.0487  0.3946 -0.1136
18535TIP3   OH277019   1.218   2.696  12.992  0.5369  0.4125 -0.1621
18535TIP3    H177020   1.272   2.636  13.043 -0.2367 -0.1894 -0.0300
18535TIP3    H277021   1.278   2.765  12.964  2.0784 -1.6778 -2.4464
18536TIP3   OH277022   5.484   3.286  16.362 -0.0899  0.3818 -0.4874
18536TIP3    H177023   5.474   3.311  16.454 -1.3151  1.3255 -0.8414
18536TIP3    H277024   5.422   3.342  16.315  0.2328 -0.3474 -1.8478
18537TIP3   OH277025   4.142   1.094  11.584 -0.0213  0.2714 -0.6137
18537TIP3    H177026   4.188   1.020  11.624  1.3372  0.5183 -1.6029
18537TIP3    H277027   4.201   1.168  11.597 -0.1041  0.6004 -1.9459
18538TIP3   OH277028   1.410   0.166  15.216 -0.2981  0.0182  0.0478
18538TIP3    H177029   1.411   0.134  15.126 -0.3996 -0.7093  0.2988
18538TIP3    H277030   1.394   0.260  15.208  1.7185  0.3535 -0.8068
18539TIP3   OH277031   2.613   5.365  13.238 -0.5369  0.2371 -0.0325
18539TIP3    H177032   2.687   5.424  13.221  1.1188 -1.6447  0.2846
18539TIP3    H277033   2.537   5.412  13.205  0.5304  2.9874  1.1117
18540TIP3   OH277034   5.305   1.793   6.224  0.3111 -0.4221 -0.1244
18540TIP3    H177035   5.264   1.706   6.233 -0.9384  0.1222 -0.3874
18540TIP3    H277036   5.327   1.818   6.314 -2.5843  0.4896  0.4141
18541TIP3   OH277037   0.707   5.946   6.491  0.9852  0.0711  0.2504
18541TIP3    H177038   0.731   5.992   6.571  0.6234 -1.6127  1.3951
18541TIP3    H277039   0.787   5.901   6.464  0.7314 -0.5644  0.5355
18542TIP3   OH277040   1.724   3.731  16.889 -0.2841  0.0804 -0.3162
18542TIP3    H177041   1.798   3.672  16.907 -0.7920 -0.8725 -1.2353
18542TIP3    H277042   1.721   3.789  16.966  1.6614  0.4232 -0.4354
18543TIP3   OH277043   5.871   4.105  11.199  0.1340 -0.1951  0.5065
18543TIP3    H177044   5.895   4.012  11.198  1.7460  0.1480 -2.1328
18543TIP3    H277045   5.843   4.123  11.109  1.2241  2.1817  0.5856
18544TIP3   OH277046   2.721   2.461  16.663  1.2164 -0.2976 -0.0613
18544TIP3    H177047   2.627   2.476  16.667  1.2042 -0.4727  0.3694
18544TIP3    H277048   2.745   2.478  16.572  0.6200 -1.1391 -0.3794
18545TIP3   OH277049   2.858   3.617  10.840 -0.4240 -0.2020 -0.2489
18545TIP3    H177050   2.933   3.653  10.887 -0.6478 -0.8096  0.6035
18545TIP3    H277051   2.823   3.549  10.899 -1.4086 -0.1930 -0.7974
18546TIP3   OH277052   0.011   1.149  10.804 -0.0928 -0.4095 -0.3820
18546TIP3    H177053  -0.040   1.089  10.749 -0.0540 -1.4803  0.7070
18546TIP3    H277054   0.097   1.108  10.810  0.0105 -0.1136  0.1693
18547TIP3   OH277055   4.378   0.936  13.465 -0.4363 -0.0450 -0.3023
18547TIP3    H177056   4.422   0.876  13.405 -3.4643 -0.4649 -2.3743
18547TIP3    H277057   4.352   0.882  13.539  1.3328 -0.0516  0.3460
18548TIP3   OH277058   0.125   3.630   4.569  0.9058  0.5858 -0.0422
18548TIP3    H177059   0.150   3.581   4.647 -0.9929  0.2276  0.3897
18548TIP3    H277060   0.204   3.679   4.545  1.5255  0.7319  2.1153
18549TIP3   OH277061   4.224   5.866  14.898  0.4722  0.2402 -0.8668
18549TIP3    H177062   4.201   5.809  14.972  1.1928 -2.5270 -2.6048
18549TIP3    H277063   4.279   5.934  14.936  0.5850 -0.9162  1.2024
18550TIP3   OH277064   5.042   4.953  10.877 -0.3568  0.0613  0.1763
18550TIP3    H177065   4.947   4.953  10.873 -0.3793 -0.0057  0.6892
18550TIP3    H277066   5.068   4.864  10.854 -0.5611 -0.8095  2.9205
18551TIP3   OH277067   4.902   5.491  14.735 -0.4312 -0.4065 -0.1537
18551TIP3    H177068   4.837   5.533  14.792 -0.4245 -2.1272  1.1882
18551TIP3    H277069   4.853   5.423  14.689  0.3464 -1.6097  0.7461
18552TIP3   OH277070   4.555   0.325  15.605  0.0714 -0.1965 -0.4119
18552TIP3    H177071   4.645   0.314  15.636  0.0932 -0.6302 -0.6238
18552TIP3    H277072   4.541   0.420  15.607  0.2768 -0.1762  0.3361
18553TIP3   OH277073   4.494   0.059  12.713  0.4152 -0.3288 -0.0844
18553TIP3    H177074   4.409   0.065  12.757  1.1084  0.3224  1.2326
18553TIP3    H277075   4.503   0.143  12.668 -0.0871 -0.8164 -1.1461
18554TIP3   OH277076   6.240   5.006  15.156 -0.7057  0.4943 -0.7368
18554TIP3    H177077   6.237   5.066  15.231 -0.6161 -0.9439  0.4592
18554TIP3    H277078   6.325   4.962  15.165 -2.2156 -2.4509  0.6100
18555TIP3   OH277079   6.214   2.425   1.552 -0.0003  0.0953 -0.3733
18555TIP3    H177080   6.185   2.499   1.606  0.2104 -1.1414  1.5458
18555TIP3    H277081   6.205   2.456   1.462 -2.0274  1.6665  0.2880
18556TIP3   OH277082   1.902   2.598  15.584 -1.0802  0.6665 -0.2585
18556TIP3    H177083   1.895   2.616  15.490 -1.6726  0.9484 -0.1675
18556TIP3    H277084   1.941   2.677  15.621 -0.8554  0.5592 -0.2668
18557TIP3   OH277085   3.167   6.371   4.574 -0.4109  0.5812 -0.1549
18557TIP3    H177086   3.078   6.406   4.564 -0.9962 -0.8062 -0.1474
18557TIP3    H277087   3.182   6.372   4.669 -0.8634 -0.1597 -0.0634
18558TIP3   OH277088   4.495   2.421  12.336  0.3592 -0.3446 -0.1279
18558TIP3    H177089   4.569   2.447  12.390  0.3823  0.2805 -0.4509
18558TIP3    H277090   4.477   2.331  12.361  1.4009 -0.5874 -0.2351
18559TIP3   OH277091   0.345   5.458   4.331 -0.0084 -0.0968 -0.5047
18559TIP3    H177092   0.257   5.470   4.367  0.2075  2.8955 -0.7415
18559TIP3    H277093   0.403   5.493   4.399  0.8243  0.0633 -1.2827
18560TIP3   OH277094   0.751   1.196  14.375 -0.6393 -0.0964  0.0715
18560TIP3    H177095   0.694   1.196  14.452 -1.0579 -1.2772 -0.2224
18560TIP3    H277096   0.764   1.104  14.354  0.8531  0.1593 -0.2734
18561TIP3   OH277097   6.325   1.170   2.440  0.0900  0.0178  0.7063
18561TIP3    H177098   6.235   1.168   2.472 -0.7655  1.8271 -1.3294
18561TIP3    H277099   6.322   1.119   2.359  0.9228  0.0059  0.6784
18562TIP3   OH277100   1.937   6.014  15.339  0.8778 -0.3416 -0.6072
18562TIP3    H177101   1.887   5.972  15.410  0.0638 -0.3057 -1.1491
18562TIP3    H277102   1.871   6.044  15.277  1.5253  0.5934 -0.8688
18563TIP3   OH277103   6.142   0.881   3.193  0.2390  0.6496 -0.2331
18563TIP3    H177104   6.088   0.890   3.114 -1.2038  0.6242  0.7231
18563TIP3    H277105   6.181   0.968   3.204  1.2592  0.3860 -1.5109
18564TIP3   OH277106   0.977   0.569   1.958  0.0127  0.0098  0.0611
18564TIP3    H177107   1.058   0.616   1.978 -0.2964 -0.0914  1.7152
18564TIP3    H277108   0.937   0.620   1.887  1.2945  0.3075 -0.4739
18565TIP3   OH277109   5.717   3.127  13.369  1.1744  0.0721 -0.6545
18565TIP3    H177110   5.660   3.065  13.323 -0.8106  0.3441  1.2536
18565TIP3    H277111   5.786   3.074  13.408 -1.2217 -1.3109  2.0743
18566TIP3   OH277112   6.090   6.564  14.932  0.4889 -0.0490 -0.5364
18566TIP3    H177113   6.135   6.643  14.960 -0.0394  0.0193  0.1509
18566TIP3    H277114   6.006   6.594  14.899 -0.5138 -0.4610  1.5265
18567TIP3   OH277115   6.002   0.175  12.916  0.0397  0.4639 -0.1847
18567TIP3    H177116   6.091   0.201  12.892  0.8081 -2.4152 -0.8876
18567TIP3    H277117   5.946   0.222  12.855  0.9677  2.9173  0.7544
18568TIP3   OH277118   1.658   2.203  12.859 -0.0280  0.1241 -0.4965
18568TIP3    H177119   1.651   2.192  12.764  2.7084  1.9846 -1.0198
18568TIP3    H277120   1.625   2.291  12.875 -1.4138 -0.5433  0.4793
18569TIP3   OH277121   6.564   2.760  13.017  0.2559 -0.3470  0.0470
18569TIP3    H177122   6.481   2.728  12.982 -0.4607  1.5223 -0.0568
18569TIP3    H277123   6.547   2.776  13.110  0.3938  0.3649 -0.0481
18570TIP3   OH277124   3.478   4.120   0.015 -0.0688 -0.0734 -0.9782
18570TIP3    H177125   3.409   4.062   0.048  0.1310 -0.1982 -0.7803
18570TIP3    H277126   3.559   4.073   0.033  0.5905  2.3328  3.7445
18571TIP3   OH277127   4.113   6.471   5.264  0.3256  0.4400 -0.2122
18571TIP3    H177128   4.116   6.407   5.193  1.9718  0.9629 -0.6548
18571TIP3    H277129   4.160   6.429   5.336  0.2864  0.6336 -0.0733
18572TIP3   OH277130   1.969   4.316  11.369  0.2902 -0.5756  0.3374
18572TIP3    H177131   2.008   4.254  11.430  0.1626  0.0423  1.0535
18572TIP3    H277132   1.882   4.333  11.404  0.4902  0.3583  0.4047
18573TIP3   OH277133   4.123   3.409  14.156  0.3437 -0.3998 -0.5665
18573TIP3    H177134   4.138   3.385  14.064 -0.5954 -1.0355 -0.5668
18573TIP3    H277135   4.062   3.343  14.188 -0.8886  0.9464 -0.0444
18574TIP3   OH277136   3.402   5.511   4.861 -0.0952  0.1453 -0.2528
18574TIP3    H177137   3.453   5.590   4.878 -0.5193 -0.1208  2.6658
18574TIP3    H277138   3.466   5.440   4.859 -0.0563  0.1441  0.7133
18575TIP3   OH277139   2.006   3.172  13.017 -0.0229  0.2137  0.1029
18575TIP3    H177140   2.016   3.184  12.922  0.2622 -0.8562 -0.0183
18575TIP3    H277141   2.029   3.257  13.054 -0.6682  0.8091 -0.8110
18576TIP3   OH277142   3.267   0.152   6.564 -0.9831 -0.5180 -0.5233
18576TIP3    H177143   3.177   0.120   6.563 -1.3999  0.3296  2.3013
18576TIP3    H277144   3.259   0.244   6.537 -1.0707 -0.2542  0.3892
18577TIP3   OH277145   1.402   5.062  17.080  0.0928  0.0841 -0.6308
18577TIP3    H177146   1.365   5.104  17.158 -0.2181 -0.5381 -0.4377
18577TIP3    H277147   1.494   5.090  17.080  0.2290 -0.3071  0.2494
18578TIP3   OH277148   2.783   6.595   3.416  0.1503  0.4276  0.3593
18578TIP3    H177149   2.834   6.613   3.494  0.3542  1.1279  0.0689
18578TIP3    H277150   2.746   6.680   3.390 -0.4452  0.0915  0.0673
18579TIP3   OH277151   0.911   3.756  14.647  0.0776  0.0966  0.3269
18579TIP3    H177152   0.831   3.794  14.613 -0.0526  0.4662  1.0267
18579TIP3    H277153   0.961   3.830  14.681 -0.0077 -0.2892  1.3574
18580TIP3   OH277154   3.953   4.949  12.860 -0.4998  0.4215  0.4870
18580TIP3    H177155   3.932   4.900  12.939  1.4909  0.0904  0.8615
18580TIP3    H277156   3.989   5.032  12.892 -0.6477  0.7087 -0.0855
18581TIP3   OH277157   1.323   4.118   0.885 -0.2308 -0.7783 -0.3441
18581TIP3    H177158   1.299   4.160   0.803  0.1818  1.1004  0.4429
18581TIP3    H277159   1.417   4.136   0.896 -0.8962  1.9036  2.0482
18582TIP3   OH277160   6.052   4.331  15.472 -0.3415  0.2019 -0.0997
18582TIP3    H177161   6.101   4.257  15.435  3.5741  1.6607  1.6146
18582TIP3    H277162   5.970   4.292  15.502  0.9011 -3.1623 -0.5366
18583TIP3   OH277163   4.509   4.319   5.448  0.1257  0.6589  0.0454
18583TIP3    H177164   4.508   4.306   5.354 -1.6139  0.0027  0.1014
18583TIP3    H277165   4.601   4.322   5.472  0.6036 -0.8310 -1.4634
18584TIP3   OH277166   1.356   3.950  15.161  0.0251 -0.1277  0.1166
18584TIP3    H177167   1.342   3.857  15.179  0.1393 -0.0211  0.7844
18584TIP3    H277168   1.275   3.979  15.119 -1.5102  0.2588  3.0466
18585TIP3   OH277169   0.970   1.921  11.150 -0.2900 -0.6255  0.1399
18585TIP3    H177170   1.065   1.934  11.142 -0.5017  0.3342 -1.1356
18585TIP3    H277171   0.937   2.005  11.182 -0.7773 -0.7243 -0.0887
18586TIP3   OH277172   0.370   2.740   5.449 -0.0010  0.2118 -0.0295
18586TIP3    H177173   0.449   2.722   5.396  0.0509 -0.4154  0.2498
18586TIP3    H277174   0.383   2.828   5.482  0.3322  0.3192 -0.4297
18587TIP3   OH277175   6.425   5.206  16.032  0.2121 -0.5616 -1.1375
18587TIP3    H177176   6.379   5.129  15.998  1.0677 -0.9077 -1.5583
18587TIP3    H277177   6.414   5.273  15.965  2.4317 -1.4404 -2.4743
18588TIP3   OH277178   1.061   2.807  14.932  1.0079  0.1797 -0.0330
18588TIP3    H177179   0.991   2.811  14.867  2.0880 -1.5177 -1.3822
18588TIP3    H277180   1.142   2.811  14.881  1.8937 -0.6215  1.2484
18589TIP3   OH277181   2.957   5.022  12.466  0.4622  0.4623  0.6971
18589TIP3    H177182   2.886   5.063  12.514 -0.3702  0.2829 -0.3387
18589TIP3    H277183   3.033   5.076  12.484 -0.0759  1.0341  1.2996
18590TIP3   OH277184   5.445   2.808  13.501  0.2002  0.0838  0.0487
18590TIP3    H177185   5.359   2.821  13.541 -0.3748 -1.7055 -0.4972
18590TIP3    H277186   5.507   2.839  13.567 -0.8344  0.6423  0.7888
18591TIP3   OH277187   1.273   1.671  16.383 -0.0725 -0.2821  0.1777
18591TIP3    H177188   1.209   1.659  16.453  0.4971  3.7728  1.6591
18591TIP3    H277189   1.229   1.728  16.319  0.5356 -1.2547 -1.1633
18592TIP3   OH277190   4.186   6.084  11.545 -0.2989  0.8281  0.2872
18592TIP3    H177191   4.137   6.085  11.462 -0.1989  0.9271  0.2299
18592TIP3    H277192   4.199   5.991  11.563 -2.2791  0.6972  1.3444
18593TIP3   OH277193   5.382   2.566  11.325  0.1942 -0.3672  0.4797
18593TIP3    H177194   5.407   2.658  11.328  1.0454 -0.4667 -1.6860
18593TIP3    H277195   5.341   2.549  11.410 -0.0184  1.9946  0.9052
18594TIP3   OH277196   3.648   2.776   2.406 -0.1656  0.1264 -0.0690
18594TIP3    H177197   3.590   2.836   2.454  0.9831 -0.4639  2.1465
18594TIP3    H277198   3.718   2.833   2.372 -0.5188  0.4115 -0.3412
18595TIP3   OH277199   4.415   2.682   6.203 -0.4880 -0.3850  0.4497
18595TIP3    H177200   4.384   2.773   6.200 -0.2143 -0.3057 -0.2266
18595TIP3    H277201   4.432   2.660   6.111  4.0729  0.4801  0.8212
18596TIP3   OH277202   5.164   4.627  13.346 -0.7736 -0.3519 -0.4255
18596TIP3    H177203   5.196   4.539  13.368  0.0308  0.0565  0.1190
18596TIP3    H277204   5.236   4.667  13.298 -0.2310  0.7364  1.1933
18597TIP3   OH277205   2.282   0.457   5.071 -0.5038  0.3993 -0.7097
18597TIP3    H177206   2.292   0.520   5.000  2.1437  2.1285  1.0427
18597TIP3    H277207   2.359   0.400   5.062 -1.1300 -0.5285 -0.2914
18598TIP3   OH277208   2.917   4.614   0.524 -0.9504 -0.6336  0.3231
18598TIP3    H177209   2.853   4.685   0.517 -0.5964 -0.1281  1.8764
18598TIP3    H277210   2.996   4.656   0.559 -0.3683 -1.5977  0.2099
18599TIP3   OH277211   4.221   1.215   2.392 -0.0578  0.0144  0.1719
18599TIP3    H177212   4.270   1.138   2.361  0.3228  0.8931 -1.4955
18599TIP3    H277213   4.158   1.233   2.323  0.0875  1.4092  0.3790
18600TIP3   OH277214   2.251   1.829  14.839  0.1149 -0.1837  0.6184
18600TIP3    H177215   2.188   1.822  14.767 -0.2935  0.7618  0.8714
18600TIP3    H277216   2.319   1.765  14.818  0.4075  0.6245 -1.0244
18601TIP3   OH277217   1.814   0.627   4.061 -0.0561 -0.1368 -0.7752
18601TIP3    H177218   1.878   0.679   4.014 -0.1557  0.6003 -0.1197
18601TIP3    H277219   1.810   0.544   4.013 -1.1383  1.0394 -2.8569
18602TIP3   OH277220   4.495   1.867  17.324  0.1257 -0.0546  0.2977
18602TIP3    H177221   4.482   1.778  17.355 -0.6003 -0.8678 -2.1368
18602TIP3    H277222   4.559   1.860  17.253  0.9117  1.5375  0.7953
18603TIP3   OH277223   5.637   6.204  10.911  0.2326  0.0287 -0.1188
18603TIP3    H177224   5.602   6.116  10.926  0.5669 -0.1532 -0.3992
18603TIP3    H277225   5.559   6.260  10.912 -0.0069 -0.2959 -0.1459
18604TIP3   OH277226   6.383   5.482   5.566  0.3061 -0.2549 -0.1796
18604TIP3    H177227   6.324   5.423   5.612 -0.2378  0.7917  0.4976
18604TIP3    H277228   6.430   5.426   5.504  1.6211 -1.8836  2.1146
18605TIP3   OH277229   3.592   2.829  11.712  0.0065 -0.4299  0.4482
18605TIP3    H177230   3.527   2.763  11.737 -1.9932  0.5402 -1.7979
18605TIP3    H277231   3.556   2.912  11.743  0.6545  0.0242  0.0184
18606TIP3   OH277232   2.610   6.485   5.478 -0.6980 -0.7625 -0.6262
18606TIP3    H177233   2.647   6.469   5.565 -1.8840 -1.4198 -0.2208
18606TIP3    H277234   2.601   6.580   5.472  0.3560 -0.6463 -0.4503
18607TIP3   OH277235   4.103   5.486   6.259  0.6031  0.6671  0.4528
18607TIP3    H177236   4.172   5.527   6.309  0.7244  1.3244 -0.2325
18607TIP3    H277237   4.092   5.542   6.182  0.2246 -0.1467 -0.1084
18608TIP3   OH277238   0.891   1.975  16.856 -0.2359  0.2356 -0.4089
18608TIP3    H177239   0.910   2.025  16.777  2.7752 -1.6280 -1.0084
18608TIP3    H277240   0.951   2.010  16.922  0.8170 -1.4505 -0.4118
18609TIP3   OH277241   4.286   4.365   2.760  0.5994  0.2178 -0.2698
18609TIP3    H177242   4.263   4.396   2.847  1.1957  1.2491 -0.4587
18609TIP3    H277243   4.205   4.370   2.710  0.1459 -0.8303  0.3357
18610TIP3   OH277244   0.586   3.623   0.141 -0.8390 -0.3659  0.6145
18610TIP3    H177245   0.598   3.602   0.048 -1.5677 -1.8358  0.8398
18610TIP3    H277246   0.675   3.631   0.175 -0.5543  0.7680 -0.3075
18611TIP3   OH277247   6.490   6.383  11.472 -0.1846  0.2397 -0.4700
18611TIP3    H177248   6.449   6.326  11.407  1.0895 -1.0525 -0.1929
18611TIP3    H277249   6.421   6.445  11.497 -1.5145 -0.9651 -1.0340
18612TIP3   OH277250   3.117   2.003  15.063 -0.0751  0.3978  0.3476
18612TIP3    H177251   3.060   2.006  15.139 -1.4448 -2.7467 -0.4102
18612TIP3    H277252   3.077   2.064  15.001 -1.1102  0.2095  0.8074
18613TIP3   OH277253   0.032   1.575   1.032  0.3805 -0.3265  0.1054
18613TIP3    H177254  -0.047   1.520   1.026 -0.4187  0.8803 -1.2206
18613TIP3    H277255   0.075   1.546   1.112 -1.9505 -0.3569  1.4495
18614TIP3   OH277256   3.370   4.915  12.916  0.3354  0.9487 -0.5587
18614TIP3    H177257   3.308   4.852  12.953 -0.8094  2.5714  0.4251
18614TIP3    H277258   3.438   4.861  12.876 -1.4468 -0.9093 -1.2725
18615TIP3   OH277259   0.470   2.001   6.029  0.3004 -0.1346 -0.5580
18615TIP3    H177260   0.464   2.022   5.936 -3.2363 -0.7567 -0.6050
18615TIP3    H277261   0.482   2.085   6.073 -1.2578  0.5633 -1.4216
18616TIP3   OH277262   2.194   3.655  17.009 -1.2784 -0.0468  0.2431
18616TIP3    H177263   2.274   3.661  16.957 -0.7459  0.8030  1.1379
18616TIP3    H277264   2.172   3.562  17.007 -1.5048 -0.0096 -1.7970
18617TIP3   OH277265   1.868   5.910  10.505  0.6058  0.6084  0.1277
18617TIP3    H177266   1.950   5.873  10.536  2.3068  1.9708 -2.4026
18617TIP3    H277267   1.872   6.003  10.530  0.6632  1.0535 -1.3812
18618TIP3   OH277268   0.271   1.484   4.871 -0.0880  0.9342  0.4067
18618TIP3    H177269   0.259   1.396   4.906  0.5932  1.5954  2.4753
18618TIP3    H277270   0.188   1.528   4.889 -0.3580  0.7960 -0.4466
18619TIP3   OH277271   4.878   0.751  10.779  0.1983  0.0001  0.0907
18619TIP3    H177272   4.937   0.822  10.752  0.6839  0.5848  2.4635
18619TIP3    H277273   4.806   0.754  10.716 -0.1842  3.1338  0.5179
18620TIP3   OH277274   5.930   1.055  11.230  0.0196  0.0386 -0.2068
18620TIP3    H177275   5.921   1.139  11.184 -1.1757 -0.2765 -0.5959
18620TIP3    H277276   5.840   1.022  11.235  0.1595 -0.1739  1.9318
18621TIP3   OH277277   1.646   5.867  14.282 -0.2436  0.1484 -0.0045
18621TIP3    H177278   1.603   5.912  14.355 -0.0567 -0.1700  0.3053
18621TIP3    H277279   1.702   5.802  14.324  0.7266  0.7171 -0.3927
18622TIP3   OH277280   6.323   3.009   4.739  0.3956 -0.1975  0.4187
18622TIP3    H177281   6.268   2.931   4.740 -0.6492  0.4936  2.3541
18622TIP3    H277282   6.394   2.988   4.801  1.8187 -0.6793 -1.2732
18623TIP3   OH277283   3.304   4.045  14.123  0.3083 -0.2106 -0.0547
18623TIP3    H177284   3.371   3.989  14.163  0.7045  0.0753 -0.3103
18623TIP3    H277285   3.221   4.001  14.142  0.4763 -0.0262  1.1821
18624TIP3   OH277286   3.036   1.625  14.103 -0.4831  0.2515 -0.1712
18624TIP3    H177287   3.070   1.630  14.014 -2.0564 -0.2094 -0.8389
18624TIP3    H277288   3.053   1.712  14.140  0.8617  0.2120 -0.6403
18625TIP3   OH277289   2.953   1.421   6.156 -0.7083  0.2415 -0.1145
18625TIP3    H177290   2.919   1.334   6.135  0.9403 -0.3004 -0.6525
18625TIP3    H277291   2.940   1.428   6.251  0.8442 -1.4107  0.2909
18626TIP3   OH277292   1.801   5.062  13.666  0.1124  0.0233 -0.4396
18626TIP3    H177293   1.825   5.004  13.594 -0.2127 -0.5492 -0.0903
18626TIP3    H277294   1.878   5.118  13.678 -0.1359  0.6727 -1.7609
18627TIP3   OH277295   0.839   6.072   5.836 -0.1745  0.1419  0.0577
18627TIP3    H177296   0.755   6.064   5.883  0.6629 -3.4634  1.2841
18627TIP3    H277297   0.825   6.024   5.754  0.3136  0.6715 -0.3410
18628TIP3   OH277298   3.762   3.883   1.916 -0.0763 -0.7201  0.3737
18628TIP3    H177299   3.759   3.950   1.985  0.4852  0.1951 -0.4530
18628TIP3    H277300   3.856   3.866   1.903 -0.1269 -0.2629 -0.7196
18629TIP3   OH277301   2.394   1.737   0.383 -0.0438 -0.9353 -0.7147
18629TIP3    H177302   2.320   1.679   0.363  0.3413 -1.1863 -1.4595
18629TIP3    H277303   2.363   1.792   0.455 -0.8140 -1.3031 -0.7552
18630TIP3   OH277304   4.986   2.428   2.575  0.1591  0.2117  0.1487
18630TIP3    H177305   5.015   2.421   2.666  1.6821 -1.1892 -0.3974
18630TIP3    H277306   4.944   2.514   2.569  0.6025  0.5901  1.9970
18631TIP3   OH277307   3.803   4.530  16.997 -0.6476 -0.3853 -0.4800
18631TIP3    H177308   3.791   4.438  16.976  2.3796 -0.9202 -0.2855
18631TIP3    H277309   3.773   4.538  17.088 -0.0286 -1.4132 -0.1761
18632TIP3   OH277310   2.193   2.050  13.366 -0.6711  0.4582 -0.0437
18632TIP3    H177311   2.218   1.961  13.342  0.9552  0.5104  1.2733
18632TIP3    H277312   2.138   2.079  13.294 -0.5215 -1.3006 -0.9303
18633TIP3   OH277313   5.216   5.878   5.987  0.3316 -0.3662  0.1903
18633TIP3    H177314   5.163   5.798   5.994  1.3862 -1.2777 -1.5445
18633TIP3    H277315   5.191   5.930   6.064 -2.3931 -1.1350 -0.0680
18634TIP3   OH277316   0.684   2.198  15.998  0.2014 -0.0941  0.0527
18634TIP3    H177317   0.630   2.158  16.067 -3.0785  1.7189 -1.2746
18634TIP3    H277318   0.734   2.124  15.962 -0.5415 -1.7047  2.0826
18635TIP3   OH277319   0.396   6.322   3.874 -0.7319  0.4045  0.0070
18635TIP3    H177320   0.409   6.416   3.889 -2.1178  0.4323  1.2663
18635TIP3    H277321   0.307   6.316   3.840 -0.4748 -0.4290 -0.5399
18636TIP3   OH277322   5.988   1.254   3.161  0.1993 -0.5141 -0.0463
18636TIP3    H177323   6.067   1.204   3.181  0.0886 -0.4763  0.5249
18636TIP3    H277324   5.982   1.317   3.233 -0.3442 -0.5102 -0.0947
18637TIP3   OH277325   2.495   5.156   1.906  0.2695 -0.5835 -0.5558
18637TIP3    H177326   2.562   5.089   1.917  0.9306  0.1529 -0.0181
18637TIP3    H277327   2.492   5.172   1.811  0.7634 -0.6981 -0.5899
18638TIP3   OH277328   6.030   4.089   4.678  0.1379 -0.1680  0.3230
18638TIP3    H177329   6.086   4.076   4.755  0.3799  0.8940  0.3427
18638TIP3    H277330   5.973   4.162   4.702 -2.3661 -2.1529  0.8953
18639TIP3   OH277331   0.126   2.021   1.584  0.0127  0.4696 -0.1206
18639TIP3    H177332   0.096   1.930   1.581 -0.0606  0.5059 -0.7985
18639TIP3    H277333   0.154   2.035   1.674  0.4280 -0.3633 -0.1107
18640TIP3   OH277334   3.324   1.132  14.923  0.3385 -0.1809  0.1696
18640TIP3    H177335   3.291   1.131  15.013  0.5971 -1.9766  0.2804
18640TIP3    H277336   3.255   1.175  14.873  0.0194  0.4892  1.1558
18641TIP3   OH277337   5.210   5.054  16.958  0.1016 -0.3502  0.5332
18641TIP3    H177338   5.302   5.054  16.932 -0.2358 -0.0789 -0.7327
18641TIP3    H277339   5.164   5.016  16.884 -0.7295 -1.3491  1.5169
18642TIP3   OH277340   5.688   5.556   5.490  0.1528 -0.1774  0.4590
18642TIP3    H177341   5.762   5.582   5.435  0.8145 -1.9721  0.4499
18642TIP3    H277342   5.616   5.541   5.428  0.9961 -2.5500 -0.0359
18643TIP3   OH277343   2.862   1.032  16.826 -0.4718 -0.1759 -0.2576
18643TIP3    H177344   2.771   1.016  16.802 -0.8620  0.6919  0.5872
18643TIP3    H277345   2.885   0.960  16.884 -0.8505 -0.0102  0.1006
18644TIP3   OH277346   4.689   4.005  10.870  0.0248  0.0629  0.6258
18644TIP3    H177347   4.783   4.019  10.870 -0.0222  0.8238 -1.7507
18644TIP3    H277348   4.654   4.071  10.929  0.7833  1.8898 -0.8856
18645TIP3   OH277349   6.273   3.660   4.963 -0.3877 -0.7454  0.1854
18645TIP3    H177350   6.334   3.587   4.958 -0.0761 -0.4915  0.2524
18645TIP3    H277351   6.196   3.630   4.915  0.6852 -0.1835 -2.0136
18646TIP3   OH277352   4.841   1.339   5.072  0.2503  0.5172 -0.4117
18646TIP3    H177353   4.915   1.297   5.029 -0.0366  1.3185 -1.7602
18646TIP3    H277354   4.787   1.371   5.000 -1.6041 -0.3540  0.5263
18647TIP3   OH277355   0.583   1.747   3.259 -0.2026 -0.7152 -0.6598
18647TIP3    H177356   0.666   1.792   3.271 -1.5323  1.5290  1.0782
18647TIP3    H277357   0.548   1.782   3.177 -0.6862  0.6261  0.0798
18648TIP3   OH277358   3.806   6.151  16.033  0.3988 -0.2536  0.0946
18648TIP3    H177359   3.842   6.084  15.975  0.4786 -0.4879  0.4156
18648TIP3    H277360   3.741   6.105  16.086 -0.7409  0.2507 -0.8017
18649TIP3   OH277361   2.281   3.605  16.608  0.1805 -0.0891 -0.1590
18649TIP3    H177362   2.318   3.607  16.696  0.8823 -0.5427 -0.4297
18649TIP3    H277363   2.186   3.614  16.621  0.1858 -1.0656  0.7114
18650TIP3   OH277364   4.785   5.668   6.278  0.4838 -0.5388  0.2249
18650TIP3    H177365   4.702   5.653   6.323  0.2083 -0.5249 -0.2729
18650TIP3    H277366   4.849   5.683   6.348 -0.0816  0.2132  0.5893
18651TIP3   OH277367   3.091   1.674   4.819 -0.9873 -0.9196  0.5634
18651TIP3    H177368   3.164   1.613   4.815  0.5733  0.8521  0.8290
18651TIP3    H277369   3.085   1.699   4.911 -1.1068 -0.1144  0.3483
18652TIP3   OH277370   3.354   4.089  11.877 -0.0527  0.3773 -0.0343
18652TIP3    H177371   3.391   4.176  11.892 -1.0011  0.6337  0.9534
18652TIP3    H277372   3.347   4.082  11.782  1.0162  0.9492 -0.1709
18653TIP3   OH277373   1.552   5.951  14.892 -0.1864 -0.4722  0.1752
18653TIP3    H177374   1.515   5.869  14.859 -0.1522 -0.3830 -0.0794
18653TIP3    H277375   1.629   5.966  14.838 -1.5633  1.0449 -1.4713
18654TIP3   OH277376   3.961   6.514  13.916 -0.4465 -0.6500  0.0680
18654TIP3    H177377   4.030   6.578  13.934 -0.7385 -0.2119 -0.3470
18654TIP3    H277378   3.931   6.486  14.002 -0.0622 -0.5077  0.2514
18655TIP3   OH277379   3.167   0.879  13.519 -0.0298 -0.2964  0.0188
18655TIP3    H177380   3.219   0.920  13.449  0.5207  0.2885  0.7571
18655TIP3    H277381   3.207   0.910  13.600 -1.7002  0.4003  0.6142
18656TIP3   OH277382   1.432   5.175   0.245 -0.0193  0.3206 -0.0471
18656TIP3    H177383   1.476   5.172   0.160  0.9800  0.1197  0.4666
18656TIP3    H277384   1.487   5.232   0.298  1.3788 -2.3503  1.5606
18657TIP3   OH277385   0.574   4.567   1.604 -0.0378 -0.4542  0.7399
18657TIP3    H177386   0.559   4.577   1.510  1.2143 -1.2491  0.4236
18657TIP3    H277387   0.489   4.582   1.644 -0.5416  0.1512 -0.5010
18658TIP3   OH277388   4.066   2.918   6.419 -0.3471  0.7621 -0.2715
18658TIP3    H177389   3.978   2.895   6.449  0.0885 -1.3414 -0.4364
18658TIP3    H277390   4.125   2.866   6.474  0.6545  0.1605 -1.8274
18659TIP3   OH277391   2.480   6.178   1.612 -0.2468 -0.2917 -0.0418
18659TIP3    H177392   2.490   6.154   1.704 -1.1444  1.6180  0.5841
18659TIP3    H277393   2.447   6.267   1.613 -0.2545 -0.2124 -2.2346
18660TIP3   OH277394   6.701   6.757   4.789  0.1177 -0.2371  0.3048
18660TIP3    H177395   6.721   6.758   4.883 -0.8207  0.9738  0.5124
18660TIP3    H277396   6.685   6.848   4.767 -1.5926 -0.7209 -0.5964
18661TIP3   OH277397   0.358   2.910  13.247 -0.2228 -0.2207 -0.2914
18661TIP3    H177398   0.325   2.989  13.204 -0.7769 -0.1991  0.1645
18661TIP3    H277399   0.300   2.897  13.322  1.2233  0.2603  0.9910
18662TIP3   OH277400   3.594   5.689  16.116 -0.0152 -0.2534  0.1561
18662TIP3    H177401   3.574   5.597  16.096  1.5277 -0.6561  0.3464
18662TIP3    H277402   3.550   5.704  16.200 -1.5002 -0.3469 -0.5680
18663TIP3   OH277403   1.463   4.534  10.807 -0.1271  0.3748  0.3204
18663TIP3    H177404   1.544   4.557  10.762 -0.8733  1.6966 -0.3999
18663TIP3    H277405   1.468   4.439  10.818  0.2436  0.0457 -2.2162
18664TIP3   OH277406   4.228   2.818  11.389  0.1757  0.7772  0.2977
18664TIP3    H177407   4.249   2.812  11.296  0.7985  1.5130  0.3800
18664TIP3    H277408   4.153   2.878  11.393 -1.1523 -0.8054  0.1193
18665TIP3   OH277409   5.473   5.761   5.074 -0.1680 -0.4264  0.1678
18665TIP3    H177410   5.440   5.817   5.003 -0.9881 -2.3472 -1.0569
18665TIP3    H277411   5.401   5.701   5.093  1.2687 -2.2614  0.1231
18666TIP3   OH277412   4.632   0.302   4.073 -0.5231 -0.0704 -0.0559
18666TIP3    H177413   4.542   0.280   4.098 -1.0461 -1.6909 -2.8893
18666TIP3    H277414   4.684   0.276   4.148 -2.2546 -0.9384  0.9200
18667TIP3   OH277415   5.858   5.328   1.493  0.0727  0.4376  0.3356
18667TIP3    H177416   5.949   5.312   1.470 -0.1678 -2.1458  0.9102
18667TIP3    H277417   5.859   5.336   1.588 -0.3465 -0.2068  0.4021
18668TIP3   OH277418   4.284   0.549  14.401 -0.3031  0.6265 -0.1234
18668TIP3    H177419   4.289   0.454  14.413  2.1195  0.4219 -1.8795
18668TIP3    H277420   4.305   0.585  14.486  2.0868 -0.5073 -0.1511
18669TIP3   OH277421   6.569   5.288  15.712  0.1129 -0.4615  0.0563
18669TIP3    H177422   6.651   5.292  15.761 -1.0646 -0.6703  2.1664
18669TIP3    H277423   6.534   5.377  15.715 -0.0069 -0.4888 -0.3748
18670TIP3   OH277424   3.285   5.551  16.156 -0.2272 -0.2903  1.3802
18670TIP3    H177425   3.208   5.495  16.156 -0.4112 -0.0692  0.0228
18670TIP3    H277426   3.275   5.606  16.233 -1.4724 -0.1981  1.1691
18671TIP3   OH277427   2.463   0.812  16.520 -0.5347  0.2006 -0.1221
18671TIP3    H177428   2.409   0.834  16.597 -0.9140  0.9455 -0.5931
18671TIP3    H277429   2.512   0.734  16.547 -0.5598  0.5296  0.9283
18672TIP3   OH277430   2.278   5.016  11.117  0.3223  0.1457  0.2807
18672TIP3    H177431   2.185   5.022  11.096  0.5430  0.4146 -0.7108
18672TIP3    H277432   2.306   5.106  11.130  0.5377  0.1091  0.0934
18673TIP3   OH277433   0.050   2.852   4.238 -0.4755 -0.0282 -0.1377
18673TIP3    H177434   0.098   2.868   4.319 -1.1957 -0.1792  0.3352
18673TIP3    H277435  -0.022   2.916   4.240  0.0482  0.6026 -1.1276
18674TIP3   OH277436   1.308   2.269  11.421 -0.8774  0.1101  0.0872
18674TIP3    H177437   1.377   2.309  11.474 -0.8957  0.9044 -0.4739
18674TIP3    H277438   1.247   2.233  11.485 -0.4630  0.2932  0.5981
18675TIP3   OH277439   6.730   0.099   0.174 -0.4829 -0.3754  0.6733
18675TIP3    H177440   6.698   0.024   0.224 -1.2911 -0.2877  0.3051
18675TIP3    H277441   6.653   0.130   0.125 -0.7008  1.9543  2.3564
18676TIP3   OH277442   5.806   0.700  16.293  0.1211  0.0625 -0.1298
18676TIP3    H177443   5.746   0.627  16.279 -0.4551  0.3169  0.9309
18676TIP3    H277444   5.750   0.777  16.293  0.3886  0.2782  1.1767
18677TIP3   OH277445   6.450   6.673   4.649  0.0947 -0.3663 -0.7391
18677TIP3    H177446   6.521   6.703   4.706  0.5418  0.7006 -1.8116
18677TIP3    H277447   6.431   6.584   4.679  0.4023  0.1095  0.9580
18678TIP3   OH277448   6.475   6.492   1.548 -0.2797  0.2559  0.1848
18678TIP3    H177449   6.491   6.577   1.509 -1.7271 -1.0561 -3.8387
18678TIP3    H277450   6.556   6.443   1.534 -0.6970 -0.1171 -1.1735
18679TIP3   OH277451   6.537   3.648   0.229 -0.3446 -0.0262 -0.4241
18679TIP3    H177452   6.602   3.604   0.283  0.1781 -0.9607 -1.7919
18679TIP3    H277453   6.497   3.712   0.288  2.2546  1.0661  0.2867
18680TIP3   OH277454   6.525   2.104  12.047  0.0707  0.5527 -0.0266
18680TIP3    H177455   6.609   2.100  12.092  0.0480  0.7260  0.0347
18680TIP3    H277456   6.537   2.053  11.967  0.6595  1.7353 -0.7109
18681TIP3   OH277457   4.984   6.121  12.850 -0.5236  0.1084  0.4205
18681TIP3    H177458   4.905   6.067  12.851 -1.0667  0.8824  0.0378
18681TIP3    H277459   5.054   6.060  12.830 -1.0786 -0.5283  0.3782
18682TIP3   OH277460   0.488   2.812   1.534 -0.1188  0.0203  0.2419
18682TIP3    H177461   0.580   2.793   1.517 -0.3266 -1.5207  0.6478
18682TIP3    H277462   0.472   2.896   1.492  1.1217 -0.3454 -1.0306
18683TIP3   OH277463   0.004   2.192   5.105  0.2713  0.1411 -0.6234
18683TIP3    H177464   0.053   2.227   5.180 -0.4058 -2.5931  1.2185
18683TIP3    H277465  -0.085   2.184   5.137  0.2163 -2.3055 -1.2476
18684TIP3   OH277466   0.752   3.863   4.384 -0.3521 -0.0331  0.0616
18684TIP3    H177467   0.759   3.776   4.423 -0.3212 -0.8211 -1.6061
18684TIP3    H277468   0.668   3.862   4.338 -0.3356  0.7986 -0.0015
18685TIP3   OH277469   2.871   2.568   1.830  0.0733 -0.5084 -0.2371
18685TIP3    H177470   2.828   2.505   1.888 -0.1437 -0.0053  0.1614
18685TIP3    H277471   2.827   2.651   1.849  0.8634 -0.0880 -0.2084
18686TIP3   OH277472   0.394   1.523  10.720 -0.6232 -0.1729  0.0550
18686TIP3    H177473   0.358   1.440  10.689  1.8303 -1.0819 -0.6019
18686TIP3    H277474   0.391   1.581  10.645 -0.5515 -0.3095 -0.0533
18687TIP3   OH277475   0.018   3.738  12.203 -0.0456 -0.3930 -0.4699
18687TIP3    H177476   0.038   3.681  12.277  1.3662  2.5113  1.6107
18687TIP3    H277477  -0.068   3.709  12.173 -0.9920 -1.3382  2.7577
18688TIP3   OH277478   4.799   0.032   3.331  0.8410  0.1336 -0.1069
18688TIP3    H177479   4.775  -0.033   3.265 -0.2681  0.3744  0.0455
18688TIP3    H277480   4.894   0.042   3.321  0.8356 -0.5639 -0.9880
18689TIP3   OH277481   1.026   3.145   4.826  0.2244  0.5477 -0.2023
18689TIP3    H177482   1.017   3.160   4.920  2.0718  1.4311 -0.1220
18689TIP3    H277483   0.964   3.206   4.786 -0.5473  0.1956  0.4298
18690TIP3   OH277484   1.485   5.710  12.470  0.0108  0.3120 -0.1124
18690TIP3    H177485   1.457   5.653  12.398 -2.6517  0.9835  0.2829
18690TIP3    H277486   1.508   5.793  12.428  3.3800 -0.7137 -0.6266
18691TIP3   OH277487   1.516   2.583   3.309  0.2271 -0.1405  0.1301
18691TIP3    H177488   1.488   2.526   3.238  1.0626  0.7273 -0.9402
18691TIP3    H277489   1.554   2.524   3.374 -1.9439 -1.0957  0.6105
18692TIP3   OH277490   2.173   3.108   4.977 -0.4654 -0.2272 -0.2163
18692TIP3    H177491   2.082   3.125   4.950 -0.5498 -0.3907 -0.0421
18692TIP3    H277492   2.170   3.021   5.017 -0.1144 -0.4900 -0.7487
18693TIP3   OH277493   3.490   5.838  16.939 -0.1734 -0.0239  0.0502
18693TIP3    H177494   3.452   5.919  16.906 -0.6047 -0.7050 -1.2032
18693TIP3    H277495   3.574   5.864  16.978 -0.9891  1.2130  1.0235
18694TIP3   OH277496   0.241   6.181   0.679  0.4707  0.0213  0.1724
18694TIP3    H177497   0.214   6.225   0.598  0.9685  0.8662  0.4455
18694TIP3    H277498   0.279   6.251   0.732  0.5324 -0.6034  0.9678
18695TIP3   OH277499   5.307   2.141  16.124 -0.6408  0.5134 -0.1168
18695TIP3    H177500   5.368   2.069  16.139 -0.1470  1.1341  0.9716
18695TIP3    H277501   5.221   2.101  16.124 -0.2732 -0.3435 -1.3921
18696TIP3   OH277502   3.432   4.174  15.256 -0.5426 -0.1024  0.0658
18696TIP3    H177503   3.394   4.186  15.169  2.2664  0.7881 -1.1391
18696TIP3    H277504   3.418   4.081  15.275 -0.1588 -0.5947 -1.8811
18697TIP3   OH277505   4.765   2.005   5.889 -0.8261 -0.5161 -0.3037
18697TIP3    H177506   4.732   2.093   5.905 -1.5064 -0.8082 -0.0468
18697TIP3    H277507   4.860   2.014   5.891 -0.8656 -0.0639  1.3373
18698TIP3   OH277508   1.878   2.890   3.275  0.1722  0.3188  0.0704
18698TIP3    H177509   1.971   2.909   3.263  0.4444 -0.8550  0.1297
18698TIP3    H277510   1.856   2.834   3.200 -0.5615  0.8100 -0.0909
18699TIP3   OH277511   0.346   0.699   5.537  0.6184 -0.3283  0.1217
18699TIP3    H177512   0.392   0.669   5.458  0.6000 -0.4393  0.1528
18699TIP3    H277513   0.396   0.662   5.609  0.4832 -0.4459  0.1559
18700TIP3   OH277514   2.034   6.308   4.107  0.0863  0.5064  0.5652
18700TIP3    H177515   2.084   6.377   4.151 -0.0078  1.0016 -0.0922
18700TIP3    H277516   2.090   6.281   4.034  0.7575 -1.1131  1.6054
18701TIP3   OH277517   4.600   5.036  14.538  0.0014 -0.5126  0.2948
18701TIP3    H177518   4.511   5.016  14.509 -0.4226  0.8788  0.5327
18701TIP3    H277519   4.642   5.076  14.462 -0.3410  0.9243  0.8136
18702TIP3   OH277520   4.295   0.618  14.130 -0.2838  0.1090  0.1003
18702TIP3    H177521   4.344   0.537  14.110  3.4712  1.9869  0.7760
18702TIP3    H277522   4.281   0.615  14.224 -0.6949 -0.0392  0.0337
18703TIP3   OH277523   2.839   1.148  14.104 -0.0546  0.4699  0.0920
18703TIP3    H177524   2.829   1.238  14.073  1.2459  0.3169 -0.8386
18703TIP3    H277525   2.851   1.096  14.025 -0.3254 -0.4572  0.6463
18704TIP3   OH277526   0.736   1.854  10.547 -0.3266 -0.2634  0.0750
18704TIP3    H177527   0.820   1.899  10.546 -0.4395  0.0079 -2.2883
18704TIP3    H277528   0.677   1.913  10.500 -2.1295 -0.0428  2.3798
18705TIP3   OH277529   5.354   6.543   5.460  0.5530 -0.1414  0.2717
18705TIP3    H177530   5.351   6.560   5.366 -3.1647  0.0588  0.2818
18705TIP3    H277531   5.422   6.601   5.493  0.5889  1.2423 -2.0418
18706TIP3   OH277532   5.501   3.260   4.836 -0.7860  0.3675  0.5034
18706TIP3    H177533   5.415   3.253   4.793 -0.1135 -0.3969 -0.7824
18706TIP3    H277534   5.554   3.311   4.774 -0.1009  0.2040  0.9486
18707TIP3   OH277535   1.259   3.725   3.851 -0.5716 -0.3848 -0.0066
18707TIP3    H177536   1.175   3.770   3.860 -0.5948 -0.4340  0.0198
18707TIP3    H277537   1.302   3.770   3.778 -1.2024 -1.2639 -0.9419
18708TIP3   OH277538   4.785   1.694  15.754  0.1422 -0.0446 -0.0897
18708TIP3    H177539   4.828   1.725  15.675 -2.6100  0.8235 -1.3818
18708TIP3    H277540   4.835   1.616  15.780  1.8055  0.3101 -1.9834
18709TIP3   OH277541   2.054   2.238   0.468  0.2167 -0.0214  0.2238
18709TIP3    H177542   2.007   2.312   0.507 -0.3395 -1.3685  2.2817
18709TIP3    H277543   2.135   2.276   0.433 -1.4577  2.0434 -1.7102
18710TIP3   OH277544   6.748   5.051  16.907  0.1052 -0.1082  0.3826
18710TIP3    H177545   6.714   5.102  16.981  0.9078  1.2917 -0.1763
18710TIP3    H277546   6.672   5.031  16.853 -0.3557 -0.3660  1.1160
18711TIP3   OH277547   4.536   0.845   0.930  0.4840  0.1996 -0.1117
18711TIP3    H177548   4.566   0.814   0.845 -0.0260  1.1010 -0.6206
18711TIP3    H277549   4.616   0.870   0.976  0.7108  0.2310 -0.5251
18712TIP3   OH277550   6.384   4.279  15.255 -0.1475 -1.1851  0.0500
18712TIP3    H177551   6.433   4.280  15.173  0.1056 -1.0746  0.2007
18712TIP3    H277552   6.297   4.314  15.232  0.0604 -0.7462 -0.0863
18713TIP3   OH277553   3.059   3.066   6.605  0.0155  0.7471 -0.1554
18713TIP3    H177554   3.047   2.984   6.654  3.8770  1.4363  2.3825
18713TIP3    H277555   3.010   3.131   6.654  0.3191  0.6441  0.2941
18714TIP3   OH277556   3.342   4.284  16.528 -0.0920 -0.1967  0.3396
18714TIP3    H177557   3.320   4.221  16.597  2.0678  0.2310  1.5344
18714TIP3    H277558   3.314   4.243  16.447 -0.2804 -1.9299  1.2457
18715TIP3   OH277559   5.809   4.743  10.767 -0.1936 -0.0082 -0.3463
18715TIP3    H177560   5.799   4.724  10.673  1.8142  0.4518 -0.6943
18715TIP3    H277561   5.891   4.793  10.773  0.2226 -0.8354  1.7637
18716TIP3   OH277562   1.683   4.381  16.152  0.1513  0.1073 -0.0425
18716TIP3    H177563   1.669   4.461  16.203 -0.5980 -0.5971  0.8791
18716TIP3    H277564   1.708   4.413  16.065 -0.0634  1.3432  0.3259
18717TIP3   OH277565   5.084   0.323  15.633 -0.1720  0.5490  0.2326
18717TIP3    H177566   5.108   0.401  15.584  1.5163  0.7951  1.3534
18717TIP3    H277567   5.155   0.261  15.618 -1.5523 -0.8848 -0.7649
18718TIP3   OH277568   4.416   4.707   2.748 -0.2389 -0.2631  0.2983
18718TIP3    H177569   4.498   4.673   2.784 -0.2713  0.1950  0.8188
18718TIP3    H277570   4.352   4.693   2.818 -0.5703 -0.4725 -0.0460
18719TIP3   OH277571   6.450   1.025  14.899 -0.2625 -0.3498  0.5413
18719TIP3    H177572   6.539   1.011  14.868 -0.4486 -0.6675  0.1526
18719TIP3    H277573   6.429   1.115  14.873  0.3444  0.1208  1.6178
18720TIP3   OH277574   4.942   1.671   5.358 -0.3406 -0.0018  0.2706
18720TIP3    H177575   4.951   1.584   5.399 -0.2815 -0.8840 -1.5117
18720TIP3    H277576   5.004   1.670   5.286  0.4908  1.9942  0.8906
18721TIP3   OH277577   2.365   4.604   5.916 -0.4352 -0.0740 -0.7299
18721TIP3    H177578   2.404   4.614   6.003 -1.5175 -0.7333 -0.1456
18721TIP3    H277579   2.326   4.517   5.918  1.4871 -1.0683 -2.6884
18722TIP3   OH277580   2.062   2.156  14.584 -0.2499  0.0066  0.4022
18722TIP3    H177581   2.060   2.204  14.501 -0.2850 -2.0789 -0.8766
18722TIP3    H277582   2.142   2.104  14.580 -0.9356 -1.1321  1.0693
18723TIP3   OH277583   1.441   5.258   3.576  0.1692 -0.4351 -0.1509
18723TIP3    H177584   1.359   5.303   3.597  0.4858 -0.1557  0.4870
18723TIP3    H277585   1.501   5.282   3.646  0.2347 -2.1403  0.4284
18724TIP3   OH277586   4.305   5.753   2.074 -0.1152  0.0602 -0.1086
18724TIP3    H177587   4.369   5.822   2.060  0.8210 -0.8634 -0.5233
18724TIP3    H277588   4.348   5.674   2.042 -1.7575 -0.4636 -1.1058
18725TIP3   OH277589   1.538   0.572   0.780  0.4890  0.1652  0.3621
18725TIP3    H177590   1.579   0.656   0.802  1.0881 -0.1779  0.5761
18725TIP3    H277591   1.525   0.576   0.685  2.0827 -0.1749  0.1045
18726TIP3   OH277592   5.943   1.069  16.564  0.6780  0.1344 -0.5414
18726TIP3    H177593   5.952   1.078  16.469  0.7858  1.1709 -0.4383
18726TIP3    H277594   5.968   1.154  16.599  1.6236 -0.5481  0.4901
18727TIP3   OH277595   2.534   4.147  13.961 -0.2381  0.6800  0.0474
18727TIP3    H177596   2.514   4.058  13.990  0.3314  1.0048  1.5098
18727TIP3    H277597   2.449   4.184  13.935 -0.7422  0.2614  1.0485
18728TIP3   OH277598   3.089   2.687  11.738  0.7118 -0.4935  0.2207
18728TIP3    H177599   3.060   2.673  11.828  1.5800 -0.0379  0.5742
18728TIP3    H277600   3.015   2.732  11.696  0.7316  0.3089  1.0147
18729TIP3   OH277601   3.415   6.610  16.080 -0.4555 -0.2099 -0.3735
18729TIP3    H177602   3.493   6.664  16.093 -1.3034  0.7772  0.8641
18729TIP3    H277603   3.445   6.535  16.029  0.8903  1.1207 -1.6073
18730TIP3   OH277604   4.384   6.005   4.165 -0.2429 -0.3208  0.2041
18730TIP3    H177605   4.355   6.025   4.254 -1.8731 -0.7249 -0.1977
18730TIP3    H277606   4.325   6.056   4.109  0.5329 -0.3473 -0.6607
18731TIP3   OH277607   6.591   3.082   1.488  0.0845  0.1568  0.1476
18731TIP3    H177608   6.518   3.144   1.487 -0.4142 -0.4274 -0.4228
18731TIP3    H277609   6.631   3.093   1.575  0.2649  1.5600 -0.0961
18732TIP3   OH277610   6.690   1.873   0.427  0.1836  0.0021 -0.5758
18732TIP3    H177611   6.698   1.883   0.332 -0.3528  1.1546 -0.5049
18732TIP3    H277612   6.597   1.862   0.442  0.1330  1.0296 -0.0762
18733TIP3   OH277613   5.398   4.871  16.086 -0.9394 -0.5830 -0.2989
18733TIP3    H177614   5.375   4.809  16.017 -1.4040 -0.1693 -0.5292
18733TIP3    H277615   5.395   4.820  16.167 -1.0311 -0.9256 -0.5165
18734TIP3   OH277616   5.688   5.492  14.981  0.1699 -0.4161 -0.0650
18734TIP3    H177617   5.603   5.480  15.023 -0.8021 -1.5467 -2.1872
18734TIP3    H277618   5.677   5.569  14.925  0.4879 -0.6202 -0.4171
18735TIP3   OH277619   1.823   0.516   3.413 -0.6601  0.4147 -0.3491
18735TIP3    H177620   1.838   0.468   3.495 -0.5325 -0.2317 -0.7384
18735TIP3    H277621   1.740   0.562   3.428 -0.0347  1.2896  0.5778
18736TIP3   OH277622   6.462   2.977  15.771  0.0155  0.0604 -0.0095
18736TIP3    H177623   6.453   3.061  15.727 -1.9497 -0.8539 -1.5016
18736TIP3    H277624   6.506   2.921  15.707 -2.2235 -1.0805 -0.6761
18737TIP3   OH277625   1.879   0.143  13.953 -0.5918  0.0169  0.2581
18737TIP3    H177626   1.804   0.166  14.007  0.2644 -0.7199  1.8155
18737TIP3    H277627   1.951   0.133  14.015  0.3091 -1.3547 -0.9491
18738TIP3   OH277628   3.699   1.464  11.163 -0.2194  0.0013 -0.6535
18738TIP3    H177629   3.651   1.414  11.098 -2.8485  0.5729  0.7010
18738TIP3    H277630   3.758   1.520  11.113  0.0732 -1.7057 -2.3277
18739TIP3   OH277631   4.062   5.891  13.766  0.0541  0.5348  0.1471
18739TIP3    H177632   4.045   5.828  13.695  1.0199  0.2288  0.1784
18739TIP3    H277633   4.103   5.965  13.723 -0.2794  0.7816  0.2467
18740TIP3   OH277634   0.099   0.264   3.459 -0.5281 -0.3868 -0.4128
18740TIP3    H177635   0.004   0.272   3.469 -0.3697  0.0263  0.9137
18740TIP3    H277636   0.118   0.173   3.480 -0.6544 -0.5741 -1.0637
18741TIP3   OH277637   5.172   3.872   0.369 -0.4566 -0.0079  0.0438
18741TIP3    H177638   5.104   3.830   0.318 -1.3308 -0.8996  1.8732
18741TIP3    H277639   5.244   3.809   0.370 -0.5029 -0.0596  0.0773
18742TIP3   OH277640   1.094   3.942  16.312 -0.9761 -0.6453  0.3133
18742TIP3    H177641   1.180   3.975  16.341 -1.4725  0.2989  0.7595
18742TIP3    H277642   1.095   3.850  16.337  0.1020 -0.7718 -0.1318
18743TIP3   OH277643   5.513   5.273   5.545  0.3152 -0.5401 -0.3385
18743TIP3    H177644   5.555   5.187   5.554 -0.0252 -0.5891  0.8925
18743TIP3    H277645   5.572   5.322   5.488  1.3036 -1.0892  0.1816
18744TIP3   OH277646   4.154   4.138  13.079  0.2933  0.0738  0.4032
18744TIP3    H177647   4.063   4.112  13.065  1.0288 -1.7502 -1.3605
18744TIP3    H277648   4.201   4.056  13.093  2.0939  0.6875 -1.5052
18745TIP3   OH277649   4.404   6.087  11.772 -0.0855 -0.1209  0.3359
18745TIP3    H177650   4.486   6.068  11.726 -0.0338 -0.7149  0.6616
18745TIP3    H277651   4.337   6.087  11.703  0.2122  0.5775  0.0384
18746TIP3   OH277652   1.913   4.016   2.009 -0.0883  0.5072  0.1823
18746TIP3    H177653   1.952   4.070   2.078 -1.6272 -0.9175  2.3217
18746TIP3    H277654   1.819   4.034   2.014 -0.1949  0.7817 -1.9864
18747TIP3   OH277655   1.338   1.827  13.176 -0.1925  0.0556  0.6861
18747TIP3    H177656   1.396   1.903  13.177 -0.1082 -0.0098  0.9352
18747TIP3    H277657   1.317   1.814  13.084  1.1201 -0.6170  0.4480
18748TIP3   OH277658   4.592   4.958   5.588  0.2514 -0.0246 -0.6759
18748TIP3    H177659   4.608   4.865   5.572  0.6430 -0.1464  0.3716
18748TIP3    H277660   4.588   4.966   5.683 -2.5684  0.5723 -0.7423
18749TIP3   OH277661   2.587   2.904   2.115 -0.5806  1.1187 -0.2362
18749TIP3    H177662   2.495   2.925   2.099 -0.7397  0.4923 -0.1524
18749TIP3    H277663   2.585   2.824   2.168 -0.0402  2.5501  2.0813
18750TIP3   OH277664   6.235   1.061   0.021  0.3798  0.1626 -0.3701
18750TIP3    H177665   6.226   1.105  -0.064  0.5123  1.0338  0.0622
18750TIP3    H277666   6.242   0.968  -0.001  1.7919  0.4761 -1.4207
18751TIP3   OH277667   0.762   3.928   5.178  0.1446 -0.7872 -0.5872
18751TIP3    H177668   0.777   3.950   5.270  0.2122 -2.5538 -0.1503
18751TIP3    H277669   0.681   3.975   5.156  1.4650  1.7075 -0.4161
18752TIP3   OH277670   0.190   6.033   5.361 -0.5492 -0.1678 -0.0947
18752TIP3    H177671   0.134   5.998   5.430 -0.4690 -0.0843  0.0122
18752TIP3    H277672   0.225   5.955   5.316  0.2264 -0.2419  0.6173
18753TIP3   OH277673   5.313   6.268   3.705  0.0619  0.2382 -0.4034
18753TIP3    H177674   5.314   6.185   3.753 -1.0871  2.2207  3.4567
18753TIP3    H277675   5.221   6.282   3.685  0.1644  0.9223 -0.3969
18754TIP3   OH277676   0.546   0.657   1.130  0.0054  0.4483 -0.6309
18754TIP3    H177677   0.570   0.566   1.112  2.4736  0.4605  1.9048
18754TIP3    H277678   0.607   0.709   1.078  0.2945  0.5979 -0.1485
18755TIP3   OH277679   4.090   2.654  11.143 -0.0153  0.1275 -0.3866
18755TIP3    H177680   4.108   2.698  11.059 -1.7635 -1.4395 -1.6639
18755TIP3    H277681   4.135   2.570  11.136  0.0391  0.0819  0.3961
18756TIP3   OH277682   4.071   6.746   1.712  0.3872  0.4472 -0.3987
18756TIP3    H177683   4.035   6.704   1.634  0.1215  0.6353 -0.3793
18756TIP3    H277684   3.996   6.759   1.769  0.3738  1.4134 -0.6191
18757TIP3   OH277685   5.792   4.315  17.219 -0.0839  0.2508  0.3396
18757TIP3    H177686   5.866   4.374  17.230 -0.5773  0.8866  0.2757
18757TIP3    H277687   5.776   4.280  17.307  1.4521 -1.3251  0.0383
18758TIP3   OH277688   5.077   6.735  12.171 -0.2992 -0.3264 -0.1174
18758TIP3    H177689   4.998   6.689  12.199  0.3336 -0.2075  1.9868
18758TIP3    H277690   5.068   6.823  12.206  0.7029 -0.2704  0.0130
18759TIP3   OH277691   2.239   3.926   0.569  0.2446  0.1732 -0.1055
18759TIP3    H177692   2.232   4.010   0.614  0.5357  0.7334 -1.0592
18759TIP3    H277693   2.159   3.920   0.516 -0.5305 -0.8940  1.1262
18760TIP3   OH277694   6.468   0.812   3.053  0.4346 -0.4091 -0.0628
18760TIP3    H177695   6.536   0.779   3.111 -0.8816 -0.3390  1.5858
18760TIP3    H277696   6.429   0.734   3.015 -0.3730 -0.6100  1.1380
18761TIP3   OH277697   5.602   0.881  15.338 -0.1881  0.3162  0.0362
18761TIP3    H177698   5.672   0.856  15.398  0.0076  0.7624 -0.0058
18761TIP3    H277699   5.564   0.960  15.377  0.5830  1.1829 -0.9296
18762TIP3   OH277700   1.133   6.280  14.683 -0.0039 -0.1558 -0.2695
18762TIP3    H177701   1.155   6.368  14.712  0.6690  0.4392 -2.3812
18762TIP3    H277702   1.101   6.235  14.761  0.3727  1.7174  1.0034
18763TIP3   OH277703   0.741   5.326  11.085 -0.3107  0.3106 -0.0242
18763TIP3    H177704   0.663   5.380  11.074 -1.4807 -1.0141  1.3510
18763TIP3    H277705   0.764   5.334  11.177  0.7899  0.1504 -0.2680
18764TIP3   OH277706   6.344   2.664  12.854 -0.2341 -0.3252  0.0205
18764TIP3    H177707   6.326   2.588  12.911 -2.2512  0.5771  0.7024
18764TIP3    H277708   6.258   2.704  12.841  0.5605  0.9616 -1.6318
18765TIP3   OH277709   3.129   2.872  15.326  0.6977  0.1767  0.3042
18765TIP3    H177710   3.100   2.911  15.409  2.4223 -0.6181  1.3369
18765TIP3    H277711   3.149   2.947  15.270 -0.3718  0.7243  0.6283
18766TIP3   OH277712   2.469   0.703  12.206 -0.6042  0.2181  0.2846
18766TIP3    H177713   2.486   0.728  12.116 -1.4165  0.5208  0.2104
18766TIP3    H277714   2.530   0.755  12.258  1.3500 -1.4589 -0.1942
18767TIP3   OH277715   3.711   4.289  12.910 -0.1015  0.2607 -0.0059
18767TIP3    H177716   3.618   4.302  12.892  0.0118 -1.0281 -1.9309
18767TIP3    H277717   3.716   4.200  12.945  0.3076  0.7134  1.0987
18768TIP3   OH277718   4.754   6.615   3.648 -0.2103  0.1321  0.9052
18768TIP3    H177719   4.739   6.522   3.663 -0.4199  0.1363  0.7333
18768TIP3    H277720   4.837   6.619   3.602 -0.7128 -0.0532 -0.0498
18769TIP3   OH277721   3.275   2.196  12.979 -0.1386  0.1213  0.0589
18769TIP3    H177722   3.188   2.237  12.974 -0.6216 -0.7756  0.7932
18769TIP3    H277723   3.258   2.109  13.015  1.0252 -0.2300 -0.2136
18770TIP3   OH277724   4.596   2.313   0.089  0.2541 -0.5156  0.0731
18770TIP3    H177725   4.604   2.287   0.180  2.4272 -0.2102  0.0345
18770TIP3    H277726   4.520   2.266   0.056 -1.4607  0.4755  2.3800
18771TIP3   OH277727   4.274   6.352   5.419 -0.5833 -0.5422 -0.9014
18771TIP3    H177728   4.361   6.390   5.431 -1.2650  1.1201 -0.9155
18771TIP3    H277729   4.285   6.259   5.439  0.9908 -0.1957  0.0121
18772TIP3   OH277730   3.718   6.442  16.795  0.2280 -0.6435  0.0457
18772TIP3    H177731   3.768   6.483  16.724 -0.8204 -0.6532 -0.7198
18772TIP3    H277732   3.661   6.379  16.751 -0.7689 -0.3259  0.8378
18773TIP3   OH277733   0.610   1.110   5.663  0.3805  1.1167 -0.2708
18773TIP3    H177734   0.585   1.034   5.716  3.3844  0.1039 -0.1343
18773TIP3    H277735   0.531   1.132   5.614 -0.3981 -2.7882 -1.0873
18774TIP3   OH277736   2.336   2.678  12.298  0.1176 -0.0999  0.0582
18774TIP3    H177737   2.264   2.669  12.361 -1.0022  0.6616 -1.0581
18774TIP3    H277738   2.296   2.657  12.213  0.9245  1.3759 -0.7294
18775TIP3   OH277739   0.333   2.808   3.451  0.1131 -0.2614 -0.0068
18775TIP3    H177740   0.384   2.794   3.531 -0.0081  0.8075  0.2716
18775TIP3    H277741   0.340   2.902   3.435 -0.2740 -0.3932 -0.9835
18776TIP3   OH277742   5.988   4.851   0.449  0.3860  0.7248  0.3151
18776TIP3    H177743   6.057   4.788   0.468 -1.0470 -1.0850 -0.2192
18776TIP3    H277744   5.926   4.841   0.521 -0.0065  1.2932  0.0623
18777TIP3   OH277745   4.255   1.319   2.647 -0.4354 -0.1022  0.3977
18777TIP3    H177746   4.340   1.347   2.611 -1.7672  2.1767 -1.2515
18777TIP3    H277747   4.218   1.263   2.579 -1.9144  2.2434 -0.8720
18778TIP3   OH277748   3.015   3.977  16.074  0.5079  0.6183 -0.0930
18778TIP3    H177749   3.005   3.891  16.035 -2.6076  0.3439  0.9889
18778TIP3    H277750   3.005   3.962  16.169 -0.7526  2.1464  0.0759
18779TIP3   OH277751   6.129   0.459   0.795 -0.3397  1.1096 -0.0162
18779TIP3    H177752   6.169   0.478   0.880  0.6536 -0.0127 -0.2056
18779TIP3    H277753   6.037   0.480   0.807  0.0603  2.5175  0.8372
18780TIP3   OH277754   6.325   3.421   4.859 -0.4779  0.1888  0.1546
18780TIP3    H177755   6.324   3.356   4.929  0.1515  0.5699  0.5384
18780TIP3    H277756   6.370   3.378   4.787 -2.5422 -0.7793 -0.6360
18781TIP3   OH277757   5.500   3.072  12.126 -0.0445  0.7046 -0.6186
18781TIP3    H177758   5.538   3.076  12.214  1.3175  1.2228 -1.2057
18781TIP3    H277759   5.405   3.073  12.141  0.1322 -0.4366  0.8866
18782TIP3   OH277760   4.459   5.750   4.071  0.1854  0.1988  0.3237
18782TIP3    H177761   4.542   5.766   4.026 -0.4491  0.7641 -0.6729
18782TIP3    H277762   4.433   5.836   4.104 -0.4230  0.1833 -0.1090
18783TIP3   OH277763   3.778   4.821   4.758 -0.3250 -0.2144  0.7768
18783TIP3    H177764   3.734   4.758   4.816 -0.0033 -0.9408  0.2556
18783TIP3    H277765   3.863   4.780   4.739  0.0060  0.5210  0.6582
18784TIP3   OH277766   3.935   1.999   1.954 -0.1245  0.4976  0.7472
18784TIP3    H177767   3.991   2.042   2.019  0.4763 -0.0180  0.5776
18784TIP3    H277768   3.981   1.918   1.932 -1.2509 -0.2521  1.0733
18785TIP3   OH277769   5.565   6.490   6.161 -0.1213 -0.3696  0.4772
18785TIP3    H177770   5.627   6.418   6.166 -0.2229 -0.4752  0.2325
18785TIP3    H277771   5.578   6.538   6.242  0.8129  0.0543  0.0889
18786TIP3   OH277772   5.974   4.284  10.888 -0.1841  0.1471 -0.1884
18786TIP3    H177773   5.979   4.377  10.864  0.3797  0.0131 -0.6208
18786TIP3    H277774   5.908   4.247  10.828  1.1598 -0.1688 -1.5342
18787TIP3   OH277775   0.128   6.228   0.152 -0.5764  0.2543 -0.6534
18787TIP3    H177776   0.073   6.216   0.230 -0.4016 -0.3968 -0.6283
18787TIP3    H277777   0.098   6.161   0.091  1.7318 -1.7294  0.2324
18788TIP3   OH277778   4.434   5.103  12.312  0.2048  0.0193 -0.0038
18788TIP3    H177779   4.352   5.119  12.265 -0.9726  0.1497  1.9799
18788TIP3    H277780   4.451   5.185  12.359  0.9580 -0.3516  0.3836
18789TIP3   OH277781   6.547   6.017  13.178  0.4124 -0.2841  0.3018
18789TIP3    H177782   6.631   5.997  13.220 -0.3500 -0.8824  1.6025
18789TIP3    H277783   6.524   5.937  13.131  0.0643 -0.5038  0.8383
18790TIP3   OH277784   1.604   6.000   3.681  0.7186 -0.4414  0.5380
18790TIP3    H177785   1.589   5.909   3.654  0.5185 -0.3085  0.2049
18790TIP3    H277786   1.518   6.030   3.712  0.7115 -0.2592  0.3398
18791TIP3   OH277787   5.678   1.220  13.760 -0.4461 -0.3588 -0.2538
18791TIP3    H177788   5.681   1.177  13.674 -0.3433 -1.3754  0.2452
18791TIP3    H277789   5.714   1.156  13.820 -1.6251 -0.1148  0.7496
18792TIP3   OH277790   3.257   3.906  11.112 -0.0241 -0.0958 -0.2923
18792TIP3    H177791   3.305   3.923  11.032  1.9167 -1.1841  0.5868
18792TIP3    H277792   3.246   3.992  11.152  0.4659  0.2627 -0.9158
18793TIP3   OH277793   2.216   3.698  10.651  0.2008 -0.0298  0.4189
18793TIP3    H177794   2.161   3.621  10.667  0.3040 -0.4330 -0.9838
18793TIP3    H277795   2.160   3.772  10.673 -0.0216 -0.4847  1.4482
18794TIP3   OH277796   2.569   0.360   3.766  0.1325  0.2105 -0.1000
18794TIP3    H177797   2.660   0.386   3.774 -0.0569  0.4706  1.4787
18794TIP3    H277798   2.521   0.442   3.754  0.0680  0.0996 -0.6314
18795TIP3   OH277799   5.932   2.444  15.127  0.0377 -0.3534 -0.0617
18795TIP3    H177800   5.888   2.415  15.048  0.5266  1.3483 -1.0039
18795TIP3    H277801   5.866   2.436  15.196 -0.8740 -0.3814 -0.9300
18796TIP3   OH277802   1.901   5.290   6.057 -0.0532  0.4259 -0.0194
18796TIP3    H177803   1.949   5.347   6.118  0.5705  0.6485 -0.6980
18796TIP3    H277804   1.837   5.348   6.016 -0.7851  0.1740  0.7376
18797TIP3   OH277805   2.662   5.878  16.753  0.2378  0.1635 -0.5415
18797TIP3    H177806   2.746   5.882  16.799 -1.3209  0.1374  2.5488
18797TIP3    H277807   2.641   5.969  16.735  1.5209  0.1009 -2.6690
18798TIP3   OH277808   4.758   3.413  14.425  0.4796  0.6741 -0.1658
18798TIP3    H177809   4.710   3.486  14.465 -2.2404 -1.8094  1.5423
18798TIP3    H277810   4.691   3.346  14.408  2.5092 -0.8222 -3.3680
18799TIP3   OH277811   6.287   1.676   3.729  0.5571 -0.3355  0.0170
18799TIP3    H177812   6.264   1.741   3.663  0.4309 -1.1247 -0.7442
18799TIP3    H277813   6.352   1.621   3.686  1.6388  0.0649  1.1038
18800TIP3   OH277814   2.118   3.922  16.579 -0.1148  0.8688  0.2394
18800TIP3    H177815   2.045   3.946  16.636 -0.2637  1.4925 -0.2022
18800TIP3    H277816   2.082   3.924  16.491  0.5132  1.5326 -0.0198
18801TIP3   OH277817   5.921   3.318   5.413  0.3997  0.2880  0.4716
18801TIP3    H177818   5.962   3.253   5.356  1.4515  0.7575  0.6681
18801TIP3    H277819   5.864   3.267   5.470  1.0005 -0.4389  0.4453
18802TIP3   OH277820   6.070   6.710   1.223 -0.0223  0.2338  0.1369
18802TIP3    H177821   6.146   6.712   1.282 -0.3088  1.1174  0.4860
18802TIP3    H277822   6.107   6.691   1.137  0.6711  1.2356  0.2008
18803TIP3   OH277823   1.151   6.162   3.576 -0.1353 -0.6158  0.1329
18803TIP3    H177824   1.187   6.164   3.488  0.4966 -0.1503  0.3945
18803TIP3    H277825   1.064   6.123   3.566 -0.3652  0.1190 -0.7933
18804TIP3   OH277826   3.116   0.245   1.639 -0.1599 -0.1291 -0.0715
18804TIP3    H177827   3.196   0.219   1.593  1.0107  2.3370  0.3585
18804TIP3    H277828   3.135   0.229   1.731 -0.9733 -1.3960 -0.1061
18805TIP3   OH277829   6.004   0.928   5.909 -0.2495 -0.3426  0.2317
18805TIP3    H177830   6.077   0.945   5.969 -0.1064  2.4272 -0.5665
18805TIP3    H277831   6.042   0.934   5.822 -1.2769  0.5126 -0.1910
18806TIP3   OH277832   2.833   0.812  17.310  0.7579  0.0203  0.3468
18806TIP3    H177833   2.900   0.880  17.301  0.4406  0.4590  1.1864
18806TIP3    H277834   2.800   0.799  17.221  2.8785 -1.1678 -0.3447
18807TIP3   OH277835   5.966   4.254  15.941 -0.2224  0.3146 -0.0457
18807TIP3    H177836   5.895   4.221  15.887 -1.9061  0.4433  1.9634
18807TIP3    H277837   5.981   4.343  15.911 -2.3314  0.9963  0.7779
18808TIP3   OH277838   4.776   4.005   4.778 -0.4394  0.6923  0.2661
18808TIP3    H177839   4.784   3.963   4.692 -1.4440  0.4800  0.2657
18808TIP3    H277840   4.853   3.975   4.826 -0.2205  0.2609 -0.3344
18809TIP3   OH277841   5.175   2.877  15.685  0.0567  0.1519 -0.2435
18809TIP3    H177842   5.233   2.924  15.744  0.1724  0.3970 -0.5485
18809TIP3    H277843   5.182   2.924  15.602  0.9254 -0.9825 -0.8330
18810TIP3   OH277844   6.724   0.670  16.291  0.7238  0.4370 -0.8215
18810TIP3    H177845   6.789   0.659  16.221 -0.1860  1.4952 -1.8770
18810TIP3    H277846   6.646   0.627  16.257 -0.1608  2.1926 -1.1228
18811TIP3   OH277847   5.939   2.674  11.935  0.2744 -0.2268 -0.1427
18811TIP3    H177848   5.939   2.664  12.030 -0.8137 -1.5622 -0.2506
18811TIP3    H277849   5.983   2.596  11.902 -1.1419 -0.8091 -0.7725
18812TIP3   OH277850   6.084   3.603   5.997  0.3422  0.2988 -0.1006
18812TIP3    H177851   6.021   3.603   6.069 -0.4565  1.5825 -0.7688
18812TIP3    H277852   6.168   3.621   6.038  0.2114 -0.8738  0.7304
18813TIP3   OH277853   4.945   5.770   5.783 -0.0237  0.0246  0.0195
18813TIP3    H177854   4.983   5.845   5.737  1.2001 -0.9375 -0.5968
18813TIP3    H277855   4.979   5.777   5.872  0.9510 -0.3500 -0.3061
18814TIP3   OH277856   0.374   2.585  14.276  0.0240 -0.9281  0.9754
18814TIP3    H177857   0.400   2.584  14.183  1.7067 -1.9069  1.4082
18814TIP3    H277858   0.456   2.572  14.324 -0.7846 -0.2096  2.6318
18815TIP3   OH277859   5.027   2.937   3.811  0.1312 -0.2220 -0.2166
18815TIP3    H177860   5.064   2.848   3.809  0.7951  0.0482 -0.3962
18815TIP3    H277861   4.958   2.933   3.877  1.5321 -0.3536  1.3013
18816TIP3   OH277862   2.933   5.545  11.604  0.3368 -0.1527 -0.1925
18816TIP3    H177863   2.851   5.578  11.641 -0.1803 -0.6835 -0.8228
18816TIP3    H277864   2.973   5.620  11.560  0.4047  0.2117  0.4952
18817TIP3   OH277865   3.568   3.068  15.303 -0.0673  0.1812 -0.1930
18817TIP3    H177866   3.652   3.090  15.262  0.5276  0.0635  0.9138
18817TIP3    H277867   3.535   2.993  15.254 -0.7144  1.6904 -2.1736
18818TIP3   OH277868   2.340   3.968  15.535  0.3497 -0.7870  0.1776
18818TIP3    H177869   2.307   3.978  15.446 -1.0387  1.0987  0.8356
18818TIP3    H277870   2.435   3.973  15.525  0.1722  2.0865 -1.0029
18819TIP3   OH277871   6.059   3.989   5.521  0.5381 -0.0649  0.4972
18819TIP3    H177872   6.022   3.914   5.568  1.6734 -0.1137  1.3514
18819TIP3    H277873   6.110   4.036   5.587  0.4870  1.0222 -0.2204
18820TIP3   OH277874   4.522   5.897  12.417 -0.5928 -0.2022 -0.1188
18820TIP3    H177875   4.548   5.956  12.487 -0.6334  0.0367 -0.3012
18820TIP3    H277876   4.604   5.864  12.381 -0.5689 -0.2279 -0.0401
18821TIP3   OH277877   3.811   4.568  16.389 -0.5388 -0.2101  0.3979
18821TIP3    H177878   3.772   4.517  16.317 -1.9414 -0.7941  1.5216
18821TIP3    H277879   3.802   4.659  16.361 -0.2698 -0.4637 -0.5497
18822TIP3   OH277880   0.095   6.129  13.115  0.8639  0.2437  0.0568
18822TIP3    H177881   0.185   6.151  13.137  0.9835 -0.6732  0.5370
18822TIP3    H277882   0.095   6.033  13.105 -0.0601  0.2223  0.1310
18823TIP3   OH277883   2.915   3.620  14.311  0.4053 -0.2440  0.2133
18823TIP3    H177884   2.920   3.665  14.395 -0.8120  0.3641 -0.0216
18823TIP3    H277885   2.824   3.591  14.305 -0.1083  1.5822 -1.8222
18824TIP3   OH277886   6.415   2.950  16.276 -0.0610  0.3920  0.4315
18824TIP3    H177887   6.431   2.906  16.192  2.9083 -1.0132  1.6018
18824TIP3    H277888   6.376   2.882  16.331 -0.6814  0.8964  0.6203
18825TIP3   OH277889   3.427   5.144  11.729  0.2679 -0.0332  0.0378
18825TIP3    H177890   3.466   5.157  11.642  3.3181  0.4549  1.3438
18825TIP3    H277891   3.394   5.231  11.753 -0.3526 -0.1110 -0.5081
18826TIP3   OH277892   2.529   3.393  14.108 -0.0097 -0.0351 -0.3301
18826TIP3    H177893   2.535   3.456  14.036  1.4479 -0.8964 -1.0069
18826TIP3    H277894   2.438   3.364  14.107  0.0261 -0.2255 -2.0422
18827TIP3   OH277895   4.545   4.922  12.118 -0.5474 -0.1163  0.5074
18827TIP3    H177896   4.534   4.988  12.186 -0.2230 -1.2584  1.7192
18827TIP3    H277897   4.559   4.972  12.038 -0.8249  1.2698  1.2875
18828TIP3   OH277898   1.398   3.498  15.943  0.0860  0.0503 -0.2463
18828TIP3    H177899   1.469   3.535  15.890  1.5130  1.5612  2.4839
18828TIP3    H277900   1.320   3.509  15.889  1.3554  1.7575 -1.9139
18829TIP3   OH277901   6.312   3.926   1.230  0.4213  0.1197 -0.0322
18829TIP3    H177902   6.351   3.937   1.143  1.1579 -0.0748  0.2645
18829TIP3    H277903   6.380   3.883   1.282 -0.1932 -0.2195  0.5059
18830TIP3   OH277904   5.788   3.032  16.357 -0.1204  0.5537  0.1802
18830TIP3    H177905   5.783   3.113  16.407  1.2341  0.8401 -0.0915
18830TIP3    H277906   5.849   3.052  16.286  0.7472 -0.8716  0.4700
18831TIP3   OH277907   5.181   3.884  15.419 -0.4428 -0.0488  0.4651
18831TIP3    H177908   5.193   3.941  15.495  1.1462  1.4915 -0.8347
18831TIP3    H277909   5.269   3.850  15.401 -1.0843 -1.6553  0.2468
18832TIP3   OH277910   3.919   3.674   3.504 -0.1102 -0.0583 -0.2407
18832TIP3    H177911   3.889   3.666   3.594  0.2926  0.5395 -0.0475
18832TIP3    H277912   3.850   3.725   3.461  0.4396  1.0312  0.1245
18833TIP3   OH277913   6.738   3.529  13.770  0.2791 -0.3835 -0.4613
18833TIP3    H177914   6.811   3.586  13.745  1.4357 -0.9810  1.3614
18833TIP3    H277915   6.733   3.464  13.699  2.5176 -1.1981  0.0459
18834TIP3   OH277916   6.142   1.821   2.333  0.1761  0.3105  0.3615
18834TIP3    H177917   6.117   1.773   2.412 -0.5910 -1.3140 -0.7994
18834TIP3    H277918   6.064   1.873   2.312  0.2174  0.4012  0.4341
18835TIP3   OH277919   1.263   4.483  13.770  0.4362  0.3751  0.1290
18835TIP3    H177920   1.207   4.524  13.704 -1.9699 -1.5039  0.8651
18835TIP3    H277921   1.245   4.532  13.851 -0.3262 -0.3277  0.4008
18836TIP3   OH277922   4.761   0.767  12.063  0.0812 -0.0940  0.2789
18836TIP3    H177923   4.787   0.675  12.066  1.8191  0.1977 -2.6467
18836TIP3    H277924   4.830   0.814  12.111  1.3430  0.0014 -1.5517
18837TIP3   OH277925   6.233   5.279  11.846 -0.4380 -0.0525 -0.6778
18837TIP3    H177926   6.218   5.368  11.813  1.2133  1.1748  1.5482
18837TIP3    H277927   6.319   5.255  11.811  0.4893  0.5249  1.0462
18838TIP3   OH277928   2.437   5.588   3.348  0.5144 -0.1628 -0.3591
18838TIP3    H177929   2.461   5.593   3.256  0.6687  0.3840 -0.2923
18838TIP3    H277930   2.503   5.641   3.393 -0.2802  0.6021 -0.0666
18839TIP3   OH277931   0.013   0.939  12.654 -0.1864  0.1810 -0.1172
18839TIP3    H177932  -0.078   0.947  12.628  0.2241  0.1322 -1.6473
18839TIP3    H277933   0.012   0.955  12.749 -1.8949 -0.7319  0.0683
18840TIP3   OH277934   6.532   3.699   0.965 -0.1555  0.0051 -0.0902
18840TIP3    H177935   6.611   3.690   1.018 -0.0386  1.6255  0.0646
18840TIP3    H277936   6.556   3.662   0.880  0.5375 -0.1583  0.1677
18841TIP3   OH277937   3.946   5.076   0.752 -0.7219  0.6164 -0.3105
18841TIP3    H177938   3.961   5.007   0.817 -0.6140  0.2422 -0.7282
18841TIP3    H277939   3.920   5.029   0.673 -0.1783  1.0166 -0.7376
18842TIP3   OH277940   0.557   6.371  11.712 -0.2863 -0.0919 -0.3905
18842TIP3    H177941   0.483   6.388  11.654 -1.1950  0.9749  1.0116
18842TIP3    H277942   0.519   6.322  11.785  0.8588 -1.5066 -0.6880
18843TIP3   OH277943   5.117   3.013   3.038 -0.8551  0.2736 -0.4180
18843TIP3    H177944   5.081   2.948   3.098 -2.0447  2.2595  1.1925
18843TIP3    H277945   5.210   3.018   3.060 -1.4487  1.7946  2.2957
18844TIP3   OH277946   0.850   1.519   4.729 -0.5004  0.5452 -0.0327
18844TIP3    H177947   0.831   1.450   4.793 -0.1144 -0.0430 -0.5308
18844TIP3    H277948   0.767   1.564   4.716 -1.3124 -1.1991 -1.2816
18845TIP3   OH277949   5.990   2.674   3.657  0.1440 -0.0109 -0.3124
18845TIP3    H177950   5.943   2.597   3.624  0.1722 -0.5276  0.8235
18845TIP3    H277951   5.945   2.748   3.616 -1.3646 -0.5154  0.3489
18846TIP3   OH277952   5.380   1.558   2.649 -0.0421 -0.3624 -0.5980
18846TIP3    H177953   5.446   1.489   2.655  0.0727 -0.1850  0.6443
18846TIP3    H277954   5.427   1.637   2.677 -0.7332 -0.2156  0.1755
18847TIP3   OH277955   2.231   4.310  16.144  0.3509 -0.2206  0.2544
18847TIP3    H177956   2.168   4.253  16.101 -1.4744  1.9444 -0.1199
18847TIP3    H277957   2.237   4.277  16.234  0.7594 -2.0378 -0.3920
18848TIP3   OH277958   2.969   2.071  10.620  0.7401 -0.5817  0.5431
18848TIP3    H177959   2.963   2.114  10.706  2.1613  3.1203 -0.9749
18848TIP3    H277960   2.879   2.045  10.600  0.0523  0.2306  2.3667
18849TIP3   OH277961   1.804   6.449  14.126 -0.0900  0.0204 -0.1489
18849TIP3    H177962   1.773   6.539  14.134  0.6521  0.1833  1.2700
18849TIP3    H277963   1.893   6.457  14.093 -0.3198 -0.2541 -0.8510
18850TIP3   OH277964   3.236   0.304  12.348  0.3478 -0.1269 -0.0034
18850TIP3    H177965   3.271   0.290  12.436  3.1755  0.6725 -0.8761
18850TIP3    H277966   3.193   0.221  12.326 -3.4018  0.7114  3.2261
18851TIP3   OH277967   0.659   1.205  11.496  0.6082 -0.0572 -0.0092
18851TIP3    H177968   0.633   1.135  11.556  0.1459 -0.2192 -0.3960
18851TIP3    H277969   0.661   1.164  11.410 -1.0455  0.7228 -0.4585
18852TIP3   OH277970   0.070   5.875   3.760  0.4795 -0.2051  0.7553
18852TIP3    H177971   0.017   5.910   3.688 -1.6175 -1.4512  1.6100
18852TIP3    H277972   0.023   5.796   3.788  1.4566  0.0268  3.2381
18853TIP3   OH277973   0.373   2.244   0.420  0.2517 -0.2008  0.0145
18853TIP3    H177974   0.314   2.171   0.400 -1.7926  1.7102 -1.4572
18853TIP3    H277975   0.447   2.232   0.361 -0.6777 -0.4227 -1.1446
18854TIP3   OH277976   3.001   2.300  13.733 -0.0843  0.1412 -0.3437
18854TIP3    H177977   2.977   2.374  13.789  0.5312 -0.0944  0.2440
18854TIP3    H277978   3.009   2.338  13.645 -0.4555  0.6349 -0.1659
18855TIP3   OH277979   5.641   6.505   0.434 -0.1760  0.3937  0.5861
18855TIP3    H177980   5.658   6.472   0.346 -0.5090 -0.5482  0.8587
18855TIP3    H277981   5.591   6.585   0.420 -0.5900  0.0335 -0.0810
18856TIP3   OH277982   3.047   4.498   4.907 -0.4865 -0.6474 -0.2058
18856TIP3    H177983   3.033   4.465   4.818  0.9089  0.2290 -0.7904
18856TIP3    H277984   3.010   4.431   4.964 -0.8111 -1.5457 -1.4290
18857TIP3   OH277985   5.749   0.319  11.763  0.2836 -0.0137  0.2431
18857TIP3    H177986   5.689   0.365  11.821 -0.3822 -0.7233  0.1320
18857TIP3    H277987   5.705   0.318  11.678 -0.3170 -1.9482  0.5283
18858TIP3   OH277988   0.757   5.736   2.451 -0.1350 -0.4152 -0.0525
18858TIP3    H177989   0.811   5.664   2.419  0.2605 -0.4977  0.7619
18858TIP3    H277990   0.794   5.756   2.537 -0.3946  0.6014 -0.1696
18859TIP3   OH277991   5.368   4.958  13.233  0.0888  0.2572 -0.0062
18859TIP3    H177992   5.351   5.030  13.173  0.2013  0.3706  0.0987
18859TIP3    H277993   5.317   4.979  13.312  0.6023  0.5307  0.2569
18860TIP3   OH277994   5.827   4.057  11.745  0.3953 -0.4052 -0.8564
18860TIP3    H177995   5.890   4.041  11.815  0.2313  0.3825 -0.5200
18860TIP3    H277996   5.742   4.059  11.789 -0.0448 -2.6779 -1.4622
18861TIP3   OH277997   3.445   4.578   1.877 -0.1599 -0.1571  0.5110
18861TIP3    H177998   3.364   4.545   1.837 -0.2784 -0.2090  0.7943
18861TIP3    H277999   3.415   4.633   1.949  0.0614 -0.3585  0.7580
18862TIP3   OH278000   5.031   3.493  14.984 -0.5766 -0.3317  0.4537
18862TIP3    H178001   5.097   3.447  15.036 -1.1584 -0.7813  0.8211
18862TIP3    H278002   5.062   3.487  14.894  0.8674  1.1766  0.8045
18863TIP3   OH278003   3.840   4.201   1.197  0.0047 -0.1312 -0.5596
18863TIP3    H178004   3.832   4.275   1.137  1.2352 -0.2489 -0.8979
18863TIP3    H278005   3.931   4.174   1.190 -0.0392 -0.6937  0.7372
18864TIP3   OH278006   3.035   1.070  11.203 -0.3658 -0.1875  0.3071
18864TIP3    H178007   3.086   1.108  11.132  1.3898 -1.5540  0.7508
18864TIP3    H278008   3.071   0.982  11.214 -2.0511 -0.7978  1.4706
18865TIP3   OH278009   5.154   3.424   5.252 -0.2452  0.0815 -0.1217
18865TIP3    H178010   5.142   3.490   5.184  0.1088  0.0144 -0.2490
18865TIP3    H278011   5.247   3.427   5.273 -0.1797 -0.5354 -0.2920
18866TIP3   OH278012   5.752   1.696  15.466 -0.6977  0.8777  0.0369
18866TIP3    H178013   5.827   1.748  15.495 -0.8095  0.0504  2.0047
18866TIP3    H278014   5.790   1.613  15.438 -0.7271  1.1724 -0.9194
18867TIP3   OH278015   4.845   3.536   3.254  0.2197 -0.4722 -0.5437
18867TIP3    H178016   4.769   3.532   3.311 -0.5305 -0.1768 -1.4902
18867TIP3    H278017   4.919   3.546   3.313 -0.5815  0.4356  0.3515
18868TIP3   OH278018   0.787   4.986  16.403  0.3553  0.2588 -0.4567
18868TIP3    H178019   0.858   5.049  16.397  0.3148  0.6011  1.8623
18868TIP3    H278020   0.792   4.952  16.492 -0.6893 -1.7704 -1.1045
18869TIP3   OH278021   3.770   4.785  14.773  0.0171 -0.6550 -0.6685
18869TIP3    H178022   3.676   4.767  14.780 -0.0079 -0.2800  0.1160
18869TIP3    H278023   3.776   4.863  14.718 -0.2604  0.3065  0.6044
18870TIP3   OH278024   1.899   3.984  14.721  0.8998  0.6338 -0.4378
18870TIP3    H178025   1.816   3.947  14.692  0.0219  2.6853 -0.7277
18870TIP3    H278026   1.875   4.058  14.776  2.5529 -1.3424  3.2894
18871TIP3   OH278027   1.100   6.534   1.253 -0.3004 -0.4608 -0.3270
18871TIP3    H178028   1.045   6.464   1.287  0.8703 -1.9168 -1.3246
18871TIP3    H278029   1.126   6.584   1.330 -2.0543 -0.3981  0.2864
18872TIP3   OH278030   1.762   5.602  17.252  0.0941 -0.7064  0.7285
18872TIP3    H178031   1.782   5.524  17.200  1.4950 -0.1389  0.3789
18872TIP3    H278032   1.837   5.660  17.238 -0.3028  0.1605  2.0365
18873TIP3   OH278033   4.030   6.018   2.785  0.1947 -0.0151  0.0346
18873TIP3    H178034   4.090   6.091   2.801  0.6102 -0.6961  1.7927
18873TIP3    H278035   4.047   5.957   2.857 -1.6316 -0.8790 -0.2247
18874TIP3   OH278036   0.763   4.366  15.724  0.1390  0.4548 -0.1963
18874TIP3    H178037   0.677   4.324  15.723 -0.8600  2.3010 -2.9718
18874TIP3    H278038   0.775   4.394  15.815 -1.1528 -1.7210  0.7221
18875TIP3   OH278039   6.644   4.490   6.100 -0.4240  0.6650  0.3154
18875TIP3    H178040   6.589   4.412   6.093 -1.4667  1.3321  0.8019
18875TIP3    H278041   6.590   4.553   6.148  0.9315  1.2009  1.1986
18876TIP3   OH278042   0.110   5.208   6.144 -0.6414 -0.1236 -0.0618
18876TIP3    H178043   0.053   5.236   6.215 -0.3843  0.5965 -0.1300
18876TIP3    H278044   0.064   5.234   6.064  0.9544  2.9618 -0.1024
18877TIP3   OH278045   2.729   4.077   3.731 -0.1829  0.3747 -0.7128
18877TIP3    H178046   2.793   4.008   3.712 -0.5531  0.2467 -1.5623
18877TIP3    H278047   2.644   4.032   3.726 -0.3465  0.5321  0.4490
18878TIP3   OH278048   3.162   1.710  13.737 -0.2660  0.1151 -0.1168
18878TIP3    H178049   3.157   1.778  13.805 -1.4981 -0.1684  0.0938
18878TIP3    H278050   3.135   1.630  13.782 -0.8660 -0.1196 -0.8798
18879TIP3   OH278051   0.935   2.308  16.436 -0.2525 -0.0943 -1.0211
18879TIP3    H178052   0.901   2.325  16.348 -1.5119 -1.1053 -0.7670
18879TIP3    H278053   0.921   2.390  16.484  1.8619  1.0063 -2.1181
18880TIP3   OH278054   3.597   0.001  16.432  0.0157 -0.0055 -0.1459
18880TIP3    H178055   3.638   0.053  16.502  0.5865 -1.6624  0.8150
18880TIP3    H278056   3.670  -0.043  16.389 -0.4186  0.3091 -1.2560
18881TIP3   OH278057   2.724   3.004   5.510  0.3984 -0.1793  0.3114
18881TIP3    H178058   2.805   3.016   5.459  0.1586 -0.3002 -0.1078
18881TIP3    H278059   2.738   2.922   5.558  0.5266 -0.2025  0.2357
18882TIP3   OH278060   6.209   5.295   5.693  0.1518  0.1680  0.0892
18882TIP3    H178061   6.171   5.207   5.691  0.8349 -0.1189 -1.9181
18882TIP3    H278062   6.168   5.337   5.769 -0.8875 -1.5555  0.5296
18883TIP3   OH278063   5.249   5.964   1.251  0.5507 -0.2722  0.4924
18883TIP3    H178064   5.195   5.941   1.176  0.5200 -0.0749  0.4526
18883TIP3    H278065   5.237   5.892   1.313 -0.0851 -0.0391  0.6534
18884TIP3   OH278066   0.477   6.356   0.144  0.4830 -0.4226  0.0224
18884TIP3    H178067   0.459   6.282   0.086  0.1734 -1.8864  1.9083
18884TIP3    H278068   0.548   6.326   0.200  0.3489  0.7237  0.8290
18885TIP3   OH278069   0.072   1.246  14.512  0.0557 -0.2681  0.2846
18885TIP3    H178070  -0.006   1.201  14.481 -0.6168  0.1289  1.3632
18885TIP3    H278071   0.042   1.299  14.586  1.6665 -1.4277  1.8462
18886TIP3   OH278072   2.905   3.852   3.850 -1.0745 -0.1622 -0.1396
18886TIP3    H178073   2.977   3.904   3.885 -1.6778  0.9421 -0.4831
18886TIP3    H278074   2.829   3.877   3.903 -1.5653  0.0038 -0.9030
18887TIP3   OH278075   3.905   3.002  14.605 -0.2185 -0.1749  0.0891
18887TIP3    H178076   3.969   3.062  14.566  0.5181 -2.3031 -2.1999
18887TIP3    H278077   3.946   2.971  14.685 -0.0159  1.2765  0.5677
18888TIP3   OH278078   3.272   6.646  11.792  0.3101  0.3023  0.0397
18888TIP3    H178079   3.217   6.635  11.869  1.6023 -0.2276  0.9346
18888TIP3    H278080   3.283   6.740  11.783 -0.9730  0.4361 -0.3566
18889TIP3   OH278081   2.783   5.072  11.391  0.7610  0.1360 -0.5342
18889TIP3    H178082   2.807   5.164  11.409  1.7634 -0.6445  2.9779
18889TIP3    H278083   2.862   5.023  11.413 -0.5063 -1.7367  0.0497
18890TIP3   OH278084   6.472   3.625  15.596 -0.6682 -1.1256 -0.2342
18890TIP3    H178085   6.504   3.535  15.588  2.6550 -0.0436 -0.9179
18890TIP3    H278086   6.479   3.644  15.690 -0.1112 -1.2193 -0.2498
18891TIP3   OH278087   6.535   5.266   4.913 -0.1469 -0.1969  0.3845
18891TIP3    H178088   6.589   5.197   4.874  0.1621 -0.2385  0.8851
18891TIP3    H278089   6.465   5.280   4.849  0.5578 -0.0061 -0.3617
18892TIP3   OH278090   5.867   2.462   2.476 -0.6321  0.0499  0.0217
18892TIP3    H178091   5.779   2.426   2.469 -0.0626 -1.2413 -1.1500
18892TIP3    H278092   5.924   2.390   2.450  1.0607 -0.2748  3.9445
18893TIP3   OH278093   5.173   3.083   4.597 -0.3742 -0.0102  0.3186
18893TIP3    H178094   5.105   3.062   4.533  0.0023  0.1499 -0.1407
18893TIP3    H278095   5.159   3.020   4.667 -0.6382 -0.3557 -0.0345
18894TIP3   OH278096   3.774   2.871   3.972 -0.7287  0.2192  0.6608
18894TIP3    H178097   3.760   2.777   3.981  2.6166 -0.5694 -0.9181
18894TIP3    H278098   3.806   2.899   4.058 -0.1805 -0.4516  0.6842
18895TIP3   OH278099   5.335   3.697   5.365 -0.1225 -0.3044  0.3171
18895TIP3    H178100   5.375   3.624   5.316 -1.9460 -0.8982 -0.3749
18895TIP3    H278101   5.410   3.745   5.401  1.1592 -2.2148  0.3668
18896TIP3   OH278102   0.065   6.055  12.490 -0.0522 -0.0445  0.0796
18896TIP3    H178103  -0.030   6.047  12.481 -0.0343 -0.6096  0.3811
18896TIP3    H278104   0.078   6.131  12.546 -0.3593 -0.5476  0.8460
18897TIP3   OH278105   2.414   4.869   6.142  1.1279  0.0175 -0.1704
18897TIP3    H178106   2.374   4.794   6.187 -0.4830  0.7222 -0.3735
18897TIP3    H278107   2.465   4.913   6.211 -1.4697  1.2042  1.1711
18898TIP3   OH278108   5.113   6.341  16.327  0.4543 -0.6389 -0.8551
18898TIP3    H178109   5.118   6.419  16.382 -0.3843 -1.8126  0.9781
18898TIP3    H278110   5.055   6.366  16.254  1.0450  0.7420 -0.8633
18899TIP3   OH278111   1.999   1.479  16.086  0.1878  0.2008 -0.1789
18899TIP3    H178112   2.082   1.521  16.065 -0.2006  1.5722  0.9277
18899TIP3    H278113   1.936   1.518  16.025 -0.1041  1.0117  0.6169
18900TIP3   OH278114   2.387   3.157   3.375  0.4177  0.2975  0.1953
18900TIP3    H178115   2.436   3.178   3.295  0.3481 -1.4856 -0.3469
18900TIP3    H278116   2.376   3.062   3.372 -3.0364  0.5745  0.3012
18901TIP3   OH278117   5.811   4.018   1.745  0.1382  0.1681  0.6873
18901TIP3    H178118   5.756   4.083   1.700 -0.0424 -0.5668 -0.1751
18901TIP3    H278119   5.882   4.000   1.684 -0.7962 -1.7858  0.1178
18902TIP3   OH278120   3.016   5.727  10.925  0.3324 -0.1511 -0.3672
18902TIP3    H178121   3.093   5.753  10.875  1.9935  1.2462  2.6028
18902TIP3    H278122   2.963   5.806  10.932  0.1726 -0.2895  0.0979
18903TIP3   OH278123   2.799   4.446  14.646 -0.0403  0.2797  0.3711
18903TIP3    H178124   2.714   4.424  14.607  0.6192  0.5977 -1.2980
18903TIP3    H278125   2.812   4.538  14.626  0.4877  0.3679  1.0704
18904TIP3   OH278126   2.464   1.862   2.912  0.0384  0.5678 -0.3495
18904TIP3    H178127   2.369   1.854   2.905  0.0294  0.4772 -0.1184
18904TIP3    H278128   2.498   1.779   2.879  0.0159  0.3677  0.1264
18905TIP3   OH278129   4.594   6.541   0.765 -0.1535 -0.4286 -0.3166
18905TIP3    H178130   4.560   6.466   0.717 -0.3217 -1.7548  1.7561
18905TIP3    H278131   4.524   6.607   0.760 -0.9200 -1.2307 -0.3207
18906TIP3   OH278132   4.821   6.002  16.321 -0.2174 -0.3709  0.2915
18906TIP3    H178133   4.742   5.949  16.328 -1.3942  1.2746  0.0899
18906TIP3    H278134   4.789   6.092  16.315  1.7278  0.7326  3.6581
18907TIP3   OH278135   5.025   5.662   4.990 -0.2127 -0.5081  0.4875
18907TIP3    H178136   4.973   5.645   4.912  1.1853 -2.1747 -0.1447
18907TIP3    H278137   5.042   5.756   4.989 -1.8755 -0.1954 -0.1162
18908TIP3   OH278138   5.200   0.017  13.912 -0.1020  0.2915 -0.1704
18908TIP3    H178139   5.192   0.097  13.963  1.4877 -0.8694  2.0195
18908TIP3    H278140   5.246   0.044  13.832 -2.3489  2.0749 -0.9547
18909TIP3   OH278141   3.627   5.816   6.593  0.1557 -0.0656 -0.0193
18909TIP3    H178142   3.670   5.770   6.665 -0.2884  0.1405  0.3866
18909TIP3    H278143   3.553   5.860   6.634  0.0242  0.2353 -0.5681
18910TIP3   OH278144   0.965   0.046  13.743 -0.7826  0.7379  0.1613
18910TIP3    H178145   1.060   0.033  13.742 -0.8158  0.3671 -1.1844
18910TIP3    H278146   0.933  -0.012  13.812 -0.0259  0.8646  0.6231
18911TIP3   OH278147   2.750   6.069  15.645 -0.6038 -0.3699 -0.1333
18911TIP3    H178148   2.756   6.100  15.555 -1.8773  0.5136  0.0520
18911TIP3    H278149   2.673   6.114  15.680  1.3120  1.3275  2.1856
18912TIP3   OH278150   3.870   3.638   3.925 -0.2827  0.2474 -0.4510
18912TIP3    H178151   3.925   3.563   3.904 -1.9264 -0.8869 -0.9557
18912TIP3    H278152   3.845   3.674   3.840 -0.8994  0.2719 -0.2687
18913TIP3   OH278153   4.466   3.255   0.726 -0.6855 -0.4256 -0.1703
18913TIP3    H178154   4.485   3.192   0.796  0.3069  1.2393  1.1376
18913TIP3    H278155   4.495   3.211   0.646 -1.1536 -2.0919  0.5183
18914TIP3   OH278156   4.749   5.430  13.281  0.3179  0.1583  0.2016
18914TIP3    H178157   4.731   5.442  13.188  0.9209 -0.9293 -0.0837
18914TIP3    H278158   4.664   5.407  13.319  0.0517  0.6965 -0.0563
18915TIP3   OH278159   0.861   1.635  15.439 -0.5663 -0.5033  0.0095
18915TIP3    H178160   0.903   1.604  15.359  0.1312  0.1194  0.1187
18915TIP3    H278161   0.906   1.717  15.459 -0.5269 -0.7984  1.2033
18916TIP3   OH278162   6.193   1.162   2.833  0.0345 -0.1607 -0.0143
18916TIP3    H178163   6.195   1.248   2.792 -1.1413 -0.0940  0.0312
18916TIP3    H278164   6.269   1.161   2.891 -0.1946  1.0323  0.3383
18917TIP3   OH278165   6.057   2.912   2.567 -0.5632  0.1235 -0.0210
18917TIP3    H178166   6.029   2.914   2.475  0.6267  0.1385 -0.3933
18917TIP3    H278167   5.985   2.867   2.613 -0.0301 -2.3205 -1.3826
18918TIP3   OH278168   2.199   0.435   1.401 -0.1937  0.3439 -0.0619
18918TIP3    H178169   2.294   0.427   1.412 -0.3389 -1.1074  0.2428
18918TIP3    H278170   2.187   0.446   1.307  0.2680  0.4819 -0.1090
18919TIP3   OH278171   4.362   2.405  11.749  0.7029  0.0811  0.0417
18919TIP3    H178172   4.286   2.464  11.742  1.1634  0.7455  0.4975
18919TIP3    H278173   4.422   2.452  11.807  0.8956 -1.0368  0.7706
18920TIP3   OH278174   3.552   2.873  10.939  0.2325  0.1548 -0.4133
18920TIP3    H178175   3.497   2.797  10.919  0.2589 -0.1979  0.7864
18920TIP3    H278176   3.616   2.876  10.868 -0.2005 -0.5268 -0.8402
18921TIP3   OH278177   0.702   4.963   5.429  0.6810  0.2633  0.2779
18921TIP3    H178178   0.640   4.895   5.457  0.5561  0.3392  0.1866
18921TIP3    H278179   0.681   4.976   5.336  2.0722 -1.0684 -0.2745
18922TIP3   OH278180   4.769   6.474   6.741  0.3443  0.0621  0.7109
18922TIP3    H178181   4.745   6.566   6.756 -0.9924 -0.2288  0.4599
18922TIP3    H278182   4.854   6.464   6.786  0.1260  1.2056  1.4254
18923TIP3   OH278183   1.221   6.196  15.627 -0.0547 -0.4990  0.2274
18923TIP3    H178184   1.218   6.257  15.701  0.5343  0.2861 -0.3730
18923TIP3    H278185   1.298   6.223  15.577 -1.2022 -0.1110 -1.4271
18924TIP3   OH278186   1.116   4.313  16.993  0.5942 -0.2352 -0.6921
18924TIP3    H178187   1.049   4.256  17.033  1.5439  0.5030  2.1642
18924TIP3    H278188   1.066   4.388  16.959 -0.2253 -0.7252 -0.6133
18925TIP3   OH278189   5.131   4.599   3.902 -0.1054 -0.0611  0.9106
18925TIP3    H178190   5.067   4.546   3.854  2.2338 -1.7122 -0.6657
18925TIP3    H278191   5.082   4.637   3.975 -2.9230 -0.8346 -0.4373
18926TIP3   OH278192   4.583   5.586  12.161  0.0925  0.3476  0.2237
18926TIP3    H178193   4.607   5.612  12.250 -0.6361  0.7002  0.3273
18926TIP3    H278194   4.492   5.558  12.168  0.5364 -1.2807 -0.0941
18927TIP3   OH278195   6.705   4.331  14.102  0.0453  0.3624  0.4999
18927TIP3    H178196   6.625   4.383  14.092  0.0989  0.1954 -1.1608
18927TIP3    H278197   6.676   4.250  14.144 -0.3103  1.0616  1.6395
18928TIP3   OH278198   1.761   1.413   2.378  0.1368  0.0033  0.3479
18928TIP3    H178199   1.818   1.428   2.303 -0.8818 -0.7185 -0.6002
18928TIP3    H278200   1.689   1.474   2.366 -0.5847 -0.8693  0.1405
18929TIP3   OH278201   2.270   1.346   6.410 -0.1622 -0.1166  0.1050
18929TIP3    H178202   2.312   1.289   6.345 -1.2137 -1.3895  0.4905
18929TIP3    H278203   2.309   1.432   6.396  1.6237 -0.9630 -0.3857
18930TIP3   OH278204   2.782   4.175  15.820 -0.3453  0.0764  0.2600
18930TIP3    H178205   2.730   4.242  15.865 -1.3263 -1.0573  0.8751
18930TIP3    H278206   2.731   4.095  15.830 -0.8284 -0.1886 -3.2738
18931TIP3   OH278207   0.423   3.330   0.724  0.0046  0.2607 -0.0914
18931TIP3    H178208   0.376   3.281   0.657  1.2897  0.6213 -1.3047
18931TIP3    H278209   0.355   3.371   0.777 -1.0403 -0.5148 -0.8143
18932TIP3   OH278210   5.398   1.679   0.577  0.1814 -0.3861  0.5342
18932TIP3    H178211   5.378   1.595   0.537 -0.3065 -0.1075  0.1784
18932TIP3    H278212   5.493   1.683   0.578  0.2666  0.3391 -2.2464
18933TIP3   OH278213   0.514   3.231   2.626  0.4750  0.2706  0.4349
18933TIP3    H178214   0.522   3.136   2.633 -1.0461 -0.1537 -2.1631
18933TIP3    H278215   0.421   3.247   2.612  1.0408  1.7512 -2.4458
18934TIP3   OH278216   4.385   1.816   5.567 -0.1831  0.2064  0.3242
18934TIP3    H178217   4.358   1.727   5.545 -0.9384  0.7426 -1.0532
18934TIP3    H278218   4.346   1.870   5.499  1.0831  1.4923  0.5716
18935TIP3   OH278219   2.505   6.678  15.588  0.1912  0.4030  0.3779
18935TIP3    H178220   2.526   6.635  15.505  0.9035 -1.3255  1.4092
18935TIP3    H278221   2.590   6.704  15.624 -0.0620  0.5810  0.8560
18936TIP3   OH278222   4.343   3.447   2.521  0.2388 -0.3253 -0.2890
18936TIP3    H178223   4.431   3.410   2.536  0.4777  0.4516  0.2682
18936TIP3    H278224   4.339   3.524   2.577 -0.7515 -0.2575 -0.4309
18937TIP3   OH278225   5.204   6.102   2.417 -0.1825 -1.1123  0.1242
18937TIP3    H178226   5.250   6.165   2.362 -0.0765 -1.1009  0.2246
18937TIP3    H278227   5.188   6.148   2.500  1.7930 -1.8713  0.9953
18938TIP3   OH278228   4.338   1.561   0.891  0.1107  0.3954  0.4702
18938TIP3    H178229   4.402   1.554   0.821  0.2632  2.2055  0.3860
18938TIP3    H278230   4.383   1.608   0.961 -0.1473 -1.0903  1.6739
18939TIP3   OH278231   3.082   0.474  14.185 -0.1135 -0.1795  0.1586
18939TIP3    H178232   3.112   0.390  14.151  0.8877  0.0763  0.3718
18939TIP3    H278233   3.145   0.496  14.254 -0.1249  0.9312 -0.1646
18940TIP3   OH278234   0.562   0.816  15.631  0.6266  0.5397 -0.1954
18940TIP3    H178235   0.578   0.795  15.539  0.1814  0.0591 -0.1656
18940TIP3    H278236   0.526   0.905  15.630  0.8588  0.6324 -0.4632
18941TIP3   OH278237   1.323   6.657   3.592 -0.0952 -0.5208 -0.0765
18941TIP3    H178238   1.313   6.750   3.609 -1.2718 -0.7643  0.6630
18941TIP3    H278239   1.235   6.621   3.598  0.4788 -1.8633  0.8449
18942TIP3   OH278240   6.630   0.220   5.504 -0.0888 -0.2626  0.2452
18942TIP3    H178241   6.610   0.313   5.516 -0.8489 -0.3478 -0.3702
18942TIP3    H278242   6.554   0.174   5.540  0.0875 -0.6438  0.1342
18943TIP3   OH278243   0.331   6.685   1.926  0.8019 -0.3716 -0.1571
18943TIP3    H178244   0.273   6.698   2.001  0.4220  1.2930 -0.7009
18943TIP3    H278245   0.278   6.636   1.863 -0.2387  1.5003 -0.8211
18944TIP3   OH278246   2.059   1.366  13.010 -0.2206  0.4102 -0.5185
18944TIP3    H178247   1.999   1.365  12.935 -1.2970 -0.9606  0.2918
18944TIP3    H278248   2.134   1.315  12.981 -0.6992 -0.2456 -0.6397
18945TIP3   OH278249   1.109   1.173  15.096 -0.1516 -0.4411  0.0877
18945TIP3    H178250   1.188   1.201  15.050 -0.2981 -1.4078 -0.7707
18945TIP3    H278251   1.098   1.238  15.166  0.3919  0.7290 -0.8776
18946TIP3   OH278252   1.047   3.423   3.229 -0.1661  0.6128 -0.2607
18946TIP3    H178253   1.008   3.477   3.160  1.5587 -2.4113 -3.9608
18946TIP3    H278254   1.139   3.452   3.233 -0.0645  0.2393  0.2161
18947TIP3   OH278255   1.268   3.263   3.065 -0.2847  0.3429 -0.2594
18947TIP3    H178256   1.182   3.223   3.077  0.0400 -0.8309 -1.6071
18947TIP3    H278257   1.317   3.238   3.144 -0.8625  0.1657  0.0490
18948TIP3   OH278258   0.523   6.221   6.762  0.0404  0.0864 -0.5649
18948TIP3    H178259   0.577   6.261   6.829  0.0269  0.7573 -0.9435
18948TIP3    H278260   0.569   6.140   6.739 -1.0836 -1.3149  1.8048
18949TIP3   OH278261   3.206   6.661  10.767  0.1336 -0.0547 -0.1291
18949TIP3    H178262   3.273   6.728  10.752 -0.2852 -0.0731 -2.5431
18949TIP3    H278263   3.156   6.693  10.842  0.6217  1.7772 -0.5357
18950TIP3   OH278264   2.955   5.586   0.913 -0.1935 -0.0960 -0.5766
18950TIP3    H178265   2.913   5.657   0.864 -0.3414  0.6254  0.5640
18950TIP3    H278266   2.905   5.508   0.890 -1.4196  0.5515 -0.1796
18951TIP3   OH278267   4.080   0.202   3.487 -0.1679 -0.2866 -0.4434
18951TIP3    H178268   3.999   0.207   3.539 -0.7890 -1.6114 -1.2142
18951TIP3    H278269   4.124   0.123   3.520  0.6590  0.2480 -0.2515
18952TIP3   OH278270   5.911   1.306   5.481  0.5190  0.4768  0.4920
18952TIP3    H178271   5.984   1.368   5.473  0.0520  0.8411 -1.7260
18952TIP3    H278272   5.949   1.229   5.523  1.6924  1.3789  1.1316
18953TIP3   OH278273   1.317   2.400  12.356  0.3536  0.0291 -0.2625
18953TIP3    H178274   1.311   2.317  12.402  1.4881  0.3917  0.5889
18953TIP3    H278275   1.279   2.383  12.269 -0.9342 -0.9124  0.4547
18954TIP3   OH278276   3.488   0.108   0.174 -0.2259 -0.0233  0.5899
18954TIP3    H178277   3.412   0.075   0.223 -0.7699  1.1898  0.6173
18954TIP3    H278278   3.523   0.178   0.230  1.0468 -0.7000  0.6690
18955TIP3   OH278279   1.028   6.608  12.835 -0.2543  0.2243  0.1183
18955TIP3    H178280   0.964   6.679  12.845  1.7571  2.0135  1.3450
18955TIP3    H278281   1.057   6.589  12.924  1.5645  0.1768 -0.4283
18956TIP3   OH278282   1.346   5.151   4.546 -0.2709  0.0071 -0.3914
18956TIP3    H178283   1.390   5.219   4.597 -1.0489 -0.2283  0.6167
18956TIP3    H278284   1.340   5.076   4.605  0.4026 -0.8986 -1.4227
18957TIP3   OH278285   1.588   0.369   1.777  0.5379  0.0488  0.6151
18957TIP3    H178286   1.661   0.410   1.731  1.9205 -1.9835  0.8954
18957TIP3    H278287   1.628   0.306   1.836 -1.3219  0.8056  2.8388
18958TIP3   OH278288   5.627   2.386   2.045  0.1128  0.2359 -0.2097
18958TIP3    H178289   5.613   2.321   1.976  1.7690  0.1052 -0.4621
18958TIP3    H278290   5.632   2.335   2.125  0.8071  0.1138 -0.3299
18959TIP3   OH278291   0.423   5.080   5.512  0.0835  0.6864 -0.2149
18959TIP3    H178292   0.506   5.127   5.515  0.6387 -0.2945  2.5462
18959TIP3    H278293   0.448   4.988   5.510 -0.9435  0.3969 -0.2284
18960TIP3   OH278294   0.569   4.635  16.419 -0.5538  0.1296 -0.3964
18960TIP3    H178295   0.510   4.646  16.493 -0.5122 -0.6093 -0.2477
18960TIP3    H278296   0.565   4.719  16.373 -0.4636  0.6478  0.5159
18961TIP3   OH278297   3.851   3.549  12.134  0.7399 -0.1496  0.1693
18961TIP3    H178298   3.894   3.596  12.205  0.3509  1.2099 -0.4639
18961TIP3    H278299   3.802   3.616  12.087 -0.8537 -1.3947 -0.0421
18962TIP3   OH278300   0.296   2.369  10.579 -0.2957 -0.4703  0.2187
18962TIP3    H178301   0.252   2.306  10.522 -1.4544  0.7949 -0.3411
18962TIP3    H278302   0.240   2.446  10.577 -0.0629 -0.1789  2.6485
18963TIP3   OH278303   3.010   1.952   3.244  1.2796 -0.2044  0.0383
18963TIP3    H178304   2.935   1.962   3.303  0.8809  0.2253 -0.5238
18963TIP3    H278305   3.062   2.032   3.258  2.5568 -1.2490  1.6600
18964TIP3   OH278306   0.483   3.726  11.972  0.0027 -0.4058 -0.3197
18964TIP3    H178307   0.388   3.732  11.976 -0.0455  0.3267 -1.8970
18964TIP3    H278308   0.510   3.711  12.063 -1.5836 -0.3799  0.1877
18965TIP3   OH278309   0.439   2.787   4.814 -0.0857  0.0963  0.9553
18965TIP3    H178310   0.353   2.812   4.845  0.3584  1.7251  0.9660
18965TIP3    H278311   0.483   2.752   4.892 -0.5943 -0.3761  1.0359
18966TIP3   OH278312   0.153   6.245   6.520  0.4840 -0.2794 -0.3044
18966TIP3    H178313   0.087   6.256   6.588 -0.3349 -0.9808 -0.9474
18966TIP3    H278314   0.108   6.194   6.452  1.9124 -1.4368 -0.4384
18967TIP3   OH278315   6.705   2.107   1.421 -0.2972  0.4133  0.0645
18967TIP3    H178316   6.761   2.090   1.497 -0.1819  1.3628  0.2089
18967TIP3    H278317   6.765   2.114   1.347 -0.3207  0.4219  0.0461
18968TIP3   OH278318   0.839   4.346   1.926 -0.7027  0.0384 -0.5772
18968TIP3    H178319   0.798   4.380   2.005 -0.9460  1.8675 -1.4387
18968TIP3    H278320   0.864   4.257   1.949 -2.5792 -0.1795  0.8972
18969TIP3   OH278321   0.841   6.583  14.335  0.3279  0.2974 -0.1047
18969TIP3    H178322   0.865   6.492  14.353  0.8408  0.8316  2.2631
18969TIP3    H278323   0.747   6.588  14.355 -0.0140  0.0345 -1.5201
18970TIP3   OH278324   3.851   0.036   5.818 -0.4685 -0.3761  0.1652
18970TIP3    H178325   3.814   0.027   5.906 -1.5050 -0.4281 -0.2635
18970TIP3    H278326   3.845   0.130   5.799 -1.7024 -0.5696 -0.4566
18971TIP3   OH278327   5.423   1.054   3.045 -0.8043  0.2665 -0.3090
18971TIP3    H178328   5.514   1.029   3.028 -0.7639 -1.3848  1.8275
18971TIP3    H278329   5.414   1.142   3.008  1.2189 -0.1096 -1.8448
18972TIP3   OH278330   6.732   6.672   0.366  0.7708  0.0094  0.6474
18972TIP3    H178331   6.768   6.587   0.339 -2.9642 -1.5622 -0.0724
18972TIP3    H278332   6.695   6.655   0.453 -0.0819  0.8402  0.4652
18973TIP3   OH278333   3.919   5.131   3.322 -0.0654 -0.0346  0.2210
18973TIP3    H178334   3.838   5.142   3.273  1.6421  1.4456 -2.4941
18973TIP3    H278335   3.902   5.172   3.407 -1.8351  1.2010 -0.6818
18974TIP3   OH278336   2.088   0.947   6.209  0.8612  0.2599  0.0817
18974TIP3    H178337   2.107   0.976   6.119 -1.8630  0.3986 -0.5520
18974TIP3    H278338   2.059   1.027   6.254  1.2488  0.0016  0.7980
18975TIP3   OH278339   4.632   0.983  12.677  0.5593 -0.3348 -0.5119
18975TIP3    H178340   4.623   0.897  12.718 -0.2469  0.3464  0.8147
18975TIP3    H278341   4.555   0.990  12.619 -0.6395  0.3563  1.0913
18976TIP3   OH278342   6.492   3.581  12.944  0.2088 -0.1522  0.0512
18976TIP3    H178343   6.558   3.592  13.012 -0.7384 -0.2747  1.0162
18976TIP3    H278344   6.477   3.669  12.910  1.4739 -0.2329 -0.7927
18977TIP3   OH278345   5.113   0.839  16.327  0.2059 -0.4931 -0.0974
18977TIP3    H178346   5.158   0.826  16.410  0.8488 -0.7435 -0.4749
18977TIP3    H278347   5.113   0.752  16.286  0.9297 -0.1389 -0.8671
18978TIP3   OH278348   1.312   6.021  16.239 -0.7956  0.0393  0.0594
18978TIP3    H178349   1.345   6.091  16.182 -0.4593 -0.8129 -0.8196
18978TIP3    H278350   1.222   6.047  16.259  0.2511  2.3649  2.4374
18979TIP3   OH278351   2.608   3.858  15.562  0.1544 -0.1620 -0.0632
18979TIP3    H178352   2.638   3.915  15.632  1.8655  0.1725 -1.0206
18979TIP3    H278353   2.661   3.882  15.486 -1.4474 -0.6945 -1.4253
18980TIP3   OH278354   3.820   2.589   3.722 -0.1562  0.4547  0.0015
18980TIP3    H178355   3.808   2.494   3.711 -1.4912  0.4631  1.0870
18980TIP3    H278356   3.914   2.600   3.736 -0.0159 -0.7464  0.1635
18981TIP3   OH278357   6.139   2.371   5.588 -0.7736 -0.2241 -0.0120
18981TIP3    H178358   6.177   2.297   5.635 -0.9069  0.5468  1.3728
18981TIP3    H278359   6.049   2.375   5.617 -0.6425  0.7624  0.3031
18982TIP3   OH278360   4.661   5.858   6.652  0.2295 -0.2428 -0.5247
18982TIP3    H178361   4.609   5.933   6.622  0.7275 -0.2880 -1.5445
18982TIP3    H278362   4.633   5.786   6.595  1.9934 -0.0637 -1.6885
18983TIP3   OH278363   5.244   5.585   5.119 -0.4607 -0.3129  0.2814
18983TIP3    H178364   5.158   5.585   5.077 -0.7791 -0.6772  0.9095
18983TIP3    H278365   5.225   5.566   5.211  0.1660  0.9017  0.6857
18984TIP3   OH278366   5.259   6.585   0.802  0.2044  0.1456  0.6963
18984TIP3    H178367   5.341   6.552   0.840  0.4019 -0.8888 -0.5891
18984TIP3    H278368   5.260   6.553   0.712 -0.8384  1.5169  0.1708
18985TIP3   OH278369   5.799   1.061   6.821 -0.5140 -0.1295  0.4277
18985TIP3    H178370   5.726   1.085   6.763 -0.7398 -0.2418  0.6594
18985TIP3    H278371   5.867   1.029   6.762 -1.4540 -2.0829  0.3293
18986TIP3   OH278372   5.861   6.006   3.546  0.1757  0.4582  0.2383
18986TIP3    H178373   5.909   5.923   3.545 -2.4033 -1.2268  2.4405
18986TIP3    H278374   5.913   6.063   3.604  1.1967 -0.1155 -0.0847
18987TIP3   OH278375   3.599   3.618   4.603 -0.1139 -0.1426 -0.6755
18987TIP3    H178376   3.545   3.674   4.659 -0.6571 -3.0558  2.0010
18987TIP3    H278377   3.686   3.619   4.645 -0.7385 -3.0130  0.9387
18988TIP3   OH278378   2.512   4.363   2.614 -0.3029 -0.7001  0.4844
18988TIP3    H178379   2.590   4.329   2.568  0.4962  0.5679  0.8487
18988TIP3    H278380   2.455   4.287   2.622  0.8118 -1.6334  0.0320
18989TIP3   OH278381   4.532   2.175   1.376  0.8853  0.2110 -0.5417
18989TIP3    H178382   4.476   2.098   1.385 -0.4688  1.2341  0.3714
18989TIP3    H278383   4.592   2.170   1.450  1.4576 -0.4440 -1.0345
18990TIP3   OH278384   6.180   2.381   5.913  0.0064 -0.8674  0.0465
18990TIP3    H178385   6.162   2.430   5.994  0.3888  1.7945 -1.3561
18990TIP3    H278386   6.094   2.361   5.877 -0.2391  1.4819 -0.8158
18991TIP3   OH278387   6.480   4.068  13.707  0.0482 -0.4024 -0.2958
18991TIP3    H178388   6.461   3.975  13.713  0.6836 -0.4605  1.3420
18991TIP3    H278389   6.396   4.111  13.723  0.1577 -0.6975  1.1810
18992TIP3   OH278390   1.614   0.982  15.934 -0.0023  0.0750 -0.0818
18992TIP3    H178391   1.642   1.005  16.022  0.5404  1.2720 -0.5442
18992TIP3    H278392   1.619   0.887  15.932  0.3018  0.0470  1.0726
18993TIP3   OH278393   2.317   4.728  15.400 -0.0222  0.1019  0.2199
18993TIP3    H178394   2.358   4.747  15.484  0.2009  1.7032 -0.2239
18993TIP3    H278395   2.343   4.800  15.343 -1.0621 -0.3769 -0.9160
18994TIP3   OH278396   5.324   4.617   5.371 -0.1472  0.2898 -0.6997
18994TIP3    H178397   5.417   4.599   5.360 -0.0919 -1.5916  1.9065
18994TIP3    H278398   5.321   4.697   5.423  0.1326 -0.4789  0.5555
18995TIP3   OH278399   0.124   1.328   5.888 -0.4400  0.4343  0.3265
18995TIP3    H178400   0.171   1.326   5.805 -1.0486  0.5447 -0.0248
18995TIP3    H278401   0.076   1.411   5.888  0.4397  0.9694  1.2927
18996TIP3   OH278402   4.149   3.566  16.720  0.1835 -0.5423 -0.3428
18996TIP3    H178403   4.079   3.540  16.661  0.6935  1.1908 -1.7852
18996TIP3    H278404   4.203   3.487  16.730  0.5919 -0.6658 -2.9712
18997TIP3   OH278405   2.722   0.392   0.094 -0.3032  0.1413  0.3585
18997TIP3    H178406   2.786   0.450   0.135 -0.2597 -0.9457  1.9232
18997TIP3    H278407   2.646   0.448   0.076  0.2334  0.9537  0.5713
18998TIP3   OH278408   4.598   1.729   4.542 -0.2917  0.5666  0.3517
18998TIP3    H178409   4.686   1.693   4.538 -0.0564  1.1857 -0.2256
18998TIP3    H278410   4.541   1.654   4.525  0.1586  0.3153 -0.0881
18999TIP3   OH278411   0.070   0.819  14.291  0.6293 -0.2784 -0.2542
18999TIP3    H178412   0.162   0.832  14.267  1.5373 -1.4358  2.2382
18999TIP3    H278413   0.067   0.730  14.327 -1.4782 -0.2528 -0.2690
19000TIP3   OH278414   2.394   4.862   4.041 -0.3714  0.0332 -0.3747
19000TIP3    H178415   2.321   4.894   4.094 -2.2599  0.9720 -3.2690
19000TIP3    H278416   2.356   4.788   3.992  0.6549  0.4210 -1.8124
19001TIP3   OH278417   2.217   5.144  13.484  0.7909  0.3543  0.0679
19001TIP3    H178418   2.312   5.132  13.484  0.9612  1.3960 -1.4829
19001TIP3    H278419   2.182   5.062  13.448  0.9221 -0.8005  2.4160
19002TIP3   OH278420   2.902   2.587  14.245 -0.6545  0.0137  0.2650
19002TIP3    H178421   2.967   2.553  14.183 -2.5911 -0.7543 -1.4609
19002TIP3    H278422   2.895   2.680  14.224 -0.4431  0.0088  0.1667
19003TIP3   OH278423   6.668   5.245   6.299  0.4326  0.4497  0.5624
19003TIP3    H178424   6.596   5.308   6.300  1.8034  2.1248 -0.9003
19003TIP3    H278425   6.647   5.184   6.371 -2.9686  0.1797 -0.4761
19004TIP3   OH278426   2.644   2.577  13.891  0.6889  0.3220 -0.4695
19004TIP3    H178427   2.562   2.550  13.849 -0.2867  3.6576 -0.9901
19004TIP3    H278428   2.658   2.512  13.961 -0.8988 -1.8739 -2.0482
19005TIP3   OH278429   0.737   2.392   4.152  0.7276 -0.4525 -0.1869
19005TIP3    H178430   0.725   2.473   4.203 -0.0382  0.2001 -1.3458
19005TIP3    H278431   0.749   2.423   4.062 -0.2996 -1.6530 -0.7647
19006TIP3   OH278432   6.034   3.010  12.112  0.5419  0.1138  0.0287
19006TIP3    H178433   6.105   2.964  12.157  0.9401  0.3615 -0.3398
19006TIP3    H278434   6.078   3.057  12.041 -0.0861 -0.3034 -0.6373
19007TIP3   OH278435   1.397   6.623   3.048 -0.8765 -0.5548  0.4101
19007TIP3    H178436   1.472   6.655   3.098 -0.2631 -0.9731 -0.2257
19007TIP3    H278437   1.398   6.675   2.968 -1.7089 -0.0578  0.7068
19008TIP3   OH278438   3.055   6.312  14.975  0.1887 -0.6359 -0.4082
19008TIP3    H178439   3.094   6.383  14.925  0.7261  1.1230  2.2633
19008TIP3    H278440   3.109   6.305  15.054 -2.2038 -1.2398  1.3137
19009TIP3   OH278441   3.846   3.902  17.177  0.7171 -0.2076  0.2963
19009TIP3    H178442   3.929   3.863  17.205  1.3537  0.4997 -0.5744
19009TIP3    H278443   3.837   3.879  17.085  0.3341  0.3788  0.1778
19010TIP3   OH278444   2.961   5.431   4.876 -0.6167  0.1663  0.6018
19010TIP3    H178445   2.974   5.400   4.966 -0.0373 -1.5224 -0.0191
19010TIP3    H278446   3.041   5.479   4.856  0.3169 -1.4432  0.2526
19011TIP3   OH278447   4.273   3.779  10.558 -0.2401 -0.2401  0.6635
19011TIP3    H178448   4.208   3.786  10.628  0.0113  0.7378  0.8086
19011TIP3    H278449   4.280   3.685  10.541 -0.5299 -0.4647  1.7370
19012TIP3   OH278450   0.170   0.329   2.958  0.0513 -0.1583 -0.3638
19012TIP3    H178451   0.228   0.382   3.012 -0.7710 -0.0716  0.4814
19012TIP3    H278452   0.200   0.239   2.972 -0.1915 -0.1425  0.3202
19013TIP3   OH278453   3.236   5.585   1.833  0.4656 -0.4661  0.2844
19013TIP3    H178454   3.325   5.554   1.818  0.7132 -0.7924  2.2592
19013TIP3    H278455   3.234   5.672   1.793  0.9302 -1.3687 -1.8414
19014TIP3   OH278456   2.193   3.640   3.059 -0.0253 -0.1140 -0.0412
19014TIP3    H178457   2.144   3.669   3.136 -2.1398 -0.0064 -1.3469
19014TIP3    H278458   2.134   3.579   3.014  1.7093 -1.2749 -0.8706
19015TIP3   OH278459   3.260   0.287   5.634 -0.2352 -0.1079  0.1302
19015TIP3    H178460   3.247   0.257   5.723 -2.0601 -1.8906 -0.6564
19015TIP3    H278461   3.234   0.213   5.579  0.9083  0.8949 -1.8940
19016TIP3   OH278462   3.589   6.401   1.850 -0.0330 -0.1299  0.2190
19016TIP3    H178463   3.539   6.480   1.832 -0.8919 -0.4447  1.0987
19016TIP3    H278464   3.666   6.407   1.794  0.6878  2.0442  1.3314
19017TIP3   OH278465   0.374   5.951   4.168  0.4413  0.1370 -0.1007
19017TIP3    H178466   0.361   6.018   4.236  0.4422 -1.8579  1.9942
19017TIP3    H278467   0.431   5.886   4.210  1.2615 -0.7095 -2.3978
19018TIP3   OH278468   6.614   6.270  10.652 -0.0157  0.5325  0.2540
19018TIP3    H178469   6.696   6.277  10.604  0.1043  0.2558  0.4202
19018TIP3    H278470   6.620   6.187  10.699 -0.6137  0.2487 -0.1574
19019TIP3   OH278471   2.206   6.448   5.426 -0.0743  0.2280 -0.2579
19019TIP3    H178472   2.249   6.446   5.512  0.0785  0.4134 -0.3315
19019TIP3    H278473   2.155   6.529   5.426  1.9658  1.5842 -1.3355
19020TIP3   OH278474   6.198   3.685  17.178  0.0704  0.1799  0.2185
19020TIP3    H178475   6.199   3.589  17.174  2.5693  0.1079  1.3902
19020TIP3    H278476   6.131   3.710  17.113 -0.3489 -2.3125 -0.4205
19021TIP3   OH278477   3.175   6.270  15.930  0.1199  0.0297  0.1825
19021TIP3    H178478   3.251   6.235  15.976  0.0770 -0.5790 -0.2034
19021TIP3    H278479   3.102   6.214  15.958  0.1671 -0.6031 -0.9320
19022TIP3   OH278480   1.322   4.333   5.050 -0.0994 -0.1199 -0.2132
19022TIP3    H178481   1.379   4.381   5.110 -0.5195 -0.6168  0.5951
19022TIP3    H278482   1.382   4.279   4.998  0.3097  0.6803 -0.5976
19023TIP3   OH278483   4.007   0.372   0.261  0.1899  0.0277  0.6774
19023TIP3    H178484   4.033   0.400   0.349  1.0798  0.2611  0.3487
19023TIP3    H278485   4.002   0.453   0.210  0.5217 -0.1825  0.3016
19024TIP3   OH278486   2.324   4.655  12.497 -0.3657  0.1471 -0.6279
19024TIP3    H178487   2.291   4.706  12.423 -1.4247 -0.3483 -0.5212
19024TIP3    H278488   2.324   4.565  12.466 -0.2063  0.0089 -0.2355
19025TIP3   OH278489   1.302   2.602  10.933 -0.7402 -0.3678 -0.2141
19025TIP3    H178490   1.377   2.578  10.879  1.2885 -0.1261  2.3328
19025TIP3    H278491   1.231   2.616  10.870  1.5417  0.2814 -2.8232
19026TIP3   OH278492   5.881   1.417   2.975 -0.0706 -0.4663 -0.0725
19026TIP3    H178493   5.926   1.360   3.038 -0.8001  0.3679  1.2499
19026TIP3    H278494   5.803   1.446   3.021  0.1698  1.4445 -0.7703
19027TIP3   OH278495   2.423   1.190   0.073  0.1037  0.0001 -0.9706
19027TIP3    H178496   2.404   1.279   0.043 -1.5086  0.1281  0.3559
19027TIP3    H278497   2.339   1.146   0.074  0.8379 -1.4838 -1.3058
19028TIP3   OH278498   2.644   0.327   3.291 -0.0966 -0.1019  0.3491
19028TIP3    H178499   2.713   0.322   3.225 -0.9882  0.0383 -0.6281
19028TIP3    H278500   2.645   0.419   3.319 -0.9293  0.2972 -0.8493
19029TIP3   OH278501   2.872   3.094   3.508 -0.8764 -0.7328  0.1702
19029TIP3    H178502   2.807   3.073   3.440 -0.7479 -0.2888 -0.0983
19029TIP3    H278503   2.943   3.138   3.460 -1.3400  0.7118  0.7566
19030TIP3   OH278504   6.140   2.629   4.001 -0.1619  0.6638  0.6048
19030TIP3    H178505   6.218   2.681   3.978 -0.0123 -0.1600 -0.8889
19030TIP3    H278506   6.174   2.558   4.055  0.2237  0.0524 -0.4107
19031TIP3   OH278507   6.178   4.248  11.066 -0.4661  0.3151 -0.0508
19031TIP3    H178508   6.222   4.164  11.055  0.7370  0.8312  0.5188
19031TIP3    H278509   6.096   4.240  11.018  0.5316 -0.4935 -1.7222
19032TIP3   OH278510   3.396   0.949   1.502  0.3727 -0.2382 -0.5933
19032TIP3    H178511   3.418   1.033   1.542  0.9618 -1.1684  1.1684
19032TIP3    H278512   3.479   0.901   1.500 -0.4681 -1.9532  1.4838
19033TIP3   OH278513   5.615   6.346   2.490  0.7923  0.5402 -0.1913
19033TIP3    H178514   5.563   6.350   2.570  2.0117 -1.5692  0.7945
19033TIP3    H278515   5.659   6.431   2.486 -1.1639  1.6422 -0.0381
19034TIP3   OH278516   2.471   1.867   4.224 -0.2760  0.1556  0.1572
19034TIP3    H178517   2.385   1.863   4.182  0.3987 -1.3047 -1.1777
19034TIP3    H278518   2.513   1.783   4.203  1.8645  1.2021 -0.0988
19035TIP3   OH278519   5.737   6.637  12.891 -0.0733 -0.1199 -0.0807
19035TIP3    H178520   5.679   6.686  12.833  1.4437  2.5964  0.5377
19035TIP3    H278521   5.710   6.663  12.979  1.1612  0.0946  0.2470
19036TIP3   OH278522   0.906   4.150  12.280  0.5888  0.6812 -0.1756
19036TIP3    H178523   0.935   4.239  12.259 -0.4329  1.4125  1.3473
19036TIP3    H278524   0.856   4.123  12.203 -0.1246  1.9170 -0.1759
19037TIP3   OH278525   2.897   6.366   0.452 -0.0029  0.2594 -0.6362
19037TIP3    H178526   2.905   6.403   0.364 -2.5217  0.6629 -0.7561
19037TIP3    H278527   2.876   6.274   0.437 -2.2798  0.7225 -0.5530
19038TIP3   OH278528   4.504   2.312  16.339  0.2707  0.1640 -0.3064
19038TIP3    H178529   4.435   2.265  16.385  1.8778 -2.0866  0.0180
19038TIP3    H278530   4.495   2.285  16.247 -0.9675  2.1329 -0.8232
19039TIP3   OH278531   5.727   5.285   3.338 -0.1296  0.7904 -1.1086
19039TIP3    H178532   5.740   5.200   3.296  3.8253  0.8884 -0.4921
19039TIP3    H278533   5.748   5.349   3.270  1.9080  1.0611 -0.2878
19040TIP3   OH278534   6.024   5.560   0.336  0.5656 -0.5522 -0.2015
19040TIP3    H178535   6.006   5.467   0.332  1.5771 -0.7463 -0.6883
19040TIP3    H278536   6.049   5.576   0.428  1.5241 -1.0056 -0.3629
19041TIP3   OH278537   1.521   0.349  14.644  0.1175 -0.2331  0.1729
19041TIP3    H178538   1.475   0.273  14.681 -0.3098  0.2031  0.5419
19041TIP3    H278539   1.518   0.415  14.713 -1.4543  0.9190 -0.9282
19042TIP3   OH278540   2.764   0.411  16.960  1.1800  0.1522  0.0793
19042TIP3    H178541   2.840   0.398  17.018  1.3680  1.9650  0.3127
19042TIP3    H278542   2.773   0.502  16.930 -0.4208  0.1071 -0.6054
19043TIP3   OH278543   2.795   5.565  12.959  0.6944  0.5771 -0.5548
19043TIP3    H178544   2.845   5.647  12.961  0.8833  0.4497  0.3519
19043TIP3    H278545   2.814   5.523  13.043 -1.5431  0.8796  0.1759
19044TIP3   OH278546   5.991   3.479  12.131  0.4474 -0.0824  0.3264
19044TIP3    H178547   6.044   3.509  12.057  1.9864 -1.5049  0.7974
19044TIP3    H278548   5.911   3.445  12.091  1.3180 -0.9577 -0.7287
19045TIP3   OH278549   0.031   2.919   5.644 -0.3103 -0.3239  0.4954
19045TIP3    H178550   0.064   2.854   5.705  0.0328 -0.2536  0.3880
19045TIP3    H278551   0.047   3.003   5.687 -0.9683 -0.3201  0.7363
19046TIP3   OH278552   2.824   1.077   0.957  0.2521  0.2330  0.5719
19046TIP3    H178553   2.847   1.125   0.877  0.1325 -1.1872 -0.3601
19046TIP3    H278554   2.786   1.143   1.014  0.4048  1.3104 -0.5236
19047TIP3   OH278555   4.207   5.838  11.673  0.0765  0.1675 -0.1077
19047TIP3    H178556   4.279   5.790  11.632 -0.5635  0.4542 -1.6103
19047TIP3    H278557   4.167   5.775  11.733  0.8124 -0.3747 -0.1778
19048TIP3   OH278558   0.051   2.278  13.393  0.1569  0.1296  0.1874
19048TIP3    H178559   0.131   2.308  13.436 -0.5908  0.8393  1.1155
19048TIP3    H278560  -0.015   2.344  13.414 -0.5005 -0.0513 -1.1913
19049TIP3   OH278561   4.223   0.712   2.095  0.4294  0.1515  0.6807
19049TIP3    H178562   4.184   0.777   2.154 -0.0807 -1.0991  1.7889
19049TIP3    H278563   4.276   0.656   2.153  0.8166 -0.4514 -0.2282
19050TIP3   OH278564   0.705   1.175   3.694 -0.3719  0.4186  0.0097
19050TIP3    H178565   0.796   1.197   3.714 -0.1901 -0.3090 -0.0117
19050TIP3    H278566   0.662   1.171   3.779 -0.0085 -0.8751  0.1430
19051TIP3   OH278567   4.259   4.024  14.452 -0.1303  1.1460 -0.1239
19051TIP3    H178568   4.269   3.981  14.537  2.7143  0.8895 -0.4987
19051TIP3    H278569   4.231   3.955  14.393 -0.1741  0.8788  0.2091
19052TIP3   OH278570   6.762   2.419   3.142  0.2625 -0.2218 -0.5481
19052TIP3    H178571   6.788   2.341   3.094 -1.2351  0.4352 -2.5628
19052TIP3    H278572   6.765   2.490   3.077 -0.9385  0.8874  0.5417
19053TIP3   OH278573   0.956   6.288  16.440 -0.4855 -0.0009 -0.1855
19053TIP3    H178574   0.924   6.372  16.407  2.0663  1.6008  1.0632
19053TIP3    H278575   0.887   6.257  16.499 -0.9024  1.9323  0.3986
19054TIP3   OH278576   5.766   2.028  15.743  0.1596  0.4189 -0.2624
19054TIP3    H178577   5.776   2.116  15.778 -1.5156  0.1788  0.9285
19054TIP3    H278578   5.786   1.970  15.816  1.0808 -0.2008 -0.9869
19055TIP3   OH278579   2.267   2.350  13.082  0.3787 -0.2786 -0.3898
19055TIP3    H178580   2.214   2.392  13.151 -0.1522 -0.6554 -0.5585
19055TIP3    H278581   2.357   2.356  13.113  0.1792 -0.1122  0.1641
19056TIP3   OH278582   5.962   3.873   3.582 -0.5268  0.4198 -0.1697
19056TIP3    H178583   6.020   3.855   3.508  1.4695  2.2569  0.8304
19056TIP3    H278584   5.939   3.965   3.572  2.5463  1.8287  3.0762
19057TIP3   OH278585   2.273   0.222  13.365  0.5730  0.1717  0.9148
19057TIP3    H178586   2.247   0.155  13.301  1.0789  0.3247  0.5428
19057TIP3    H278587   2.357   0.191  13.398  1.1461  0.9604  0.2363
19058TIP3   OH278588   2.040   4.966  11.580  0.0600 -0.3462 -0.4084
19058TIP3    H178589   1.989   4.973  11.661 -0.3365  2.9359 -0.8210
19058TIP3    H278590   1.974   4.967  11.511  0.4980 -1.0025 -0.8487
19059TIP3   OH278591   6.373   6.140  15.921 -0.1935 -0.5292  0.6759
19059TIP3    H178592   6.379   6.138  16.017  0.3414  0.6694  0.6959
19059TIP3    H278593   6.321   6.218  15.902  1.0485  0.1706 -0.0192
19060TIP3   OH278594   6.395   6.603  15.295  0.1409 -1.1627  0.3974
19060TIP3    H178595   6.412   6.606  15.389 -0.4084  0.1468  0.4724
19060TIP3    H278596   6.300   6.615  15.288  0.3264  0.0332 -0.3667
19061TIP3   OH278597   5.880   0.986   1.079  0.1757 -0.3144 -0.5174
19061TIP3    H178598   5.820   0.917   1.108  0.7153 -0.2410  0.8367
19061TIP3    H278599   5.866   0.991   0.984  0.6028 -2.7414 -0.7852
19062TIP3   OH278600   1.599   1.660   2.483 -0.3869  0.3025  0.1047
19062TIP3    H178601   1.513   1.650   2.442  0.0098 -1.7509 -0.3393
19062TIP3    H278602   1.635   1.740   2.444 -0.3670 -1.0935 -3.0284
19063TIP3   OH278603   1.296   2.322  11.749  0.2078  0.3774 -0.2698
19063TIP3    H178604   1.336   2.392  11.799 -0.1554  0.1772  0.3206
19063TIP3    H278605   1.326   2.241  11.791 -1.3024  0.2311  0.6200
19064TIP3   OH278606   2.240   2.192   4.974  0.5884 -0.1070 -0.7905
19064TIP3    H178607   2.311   2.167   5.034 -0.2995 -0.4677  0.1245
19064TIP3    H278608   2.160   2.161   5.016 -0.2400  1.2665 -1.2714
19065TIP3   OH278609   2.405   5.899   1.776 -0.1340  0.0248  0.5041
19065TIP3    H178610   2.444   5.983   1.799  2.2624 -1.1609  1.1613
19065TIP3    H278611   2.448   5.836   1.834 -1.5967 -1.7219 -0.1905
19066TIP3   OH278612   4.159   0.935  13.277 -0.7783  0.3128  0.3834
19066TIP3    H178613   4.227   0.930  13.344 -0.8588  1.2139  0.5398
19066TIP3    H278614   4.084   0.889  13.316 -0.8847  0.9945  1.0006
19067TIP3   OH278615   2.418   6.043   0.815  0.2525 -0.2300 -0.1970
19067TIP3    H178616   2.346   6.021   0.875  0.1329  1.3411  0.2762
19067TIP3    H278617   2.402   5.988   0.739 -1.5961  0.2104 -0.1944
19068TIP3   OH278618   2.344   2.714   6.712 -0.2116  0.0320 -0.0421
19068TIP3    H178619   2.267   2.657   6.708 -0.5513  0.3504  1.4435
19068TIP3    H278620   2.334   2.772   6.636 -1.8175  0.5122  0.4896
19069TIP3   OH278621   1.945   0.733   1.604 -0.3065  0.1673 -0.4614
19069TIP3    H178622   1.918   0.824   1.620  1.1508  0.3528  1.2707
19069TIP3    H278623   2.041   0.737   1.598 -0.2843 -1.1308 -1.3629
19070TIP3   OH278624   0.428   5.482   5.132 -0.4309  0.0677  0.0376
19070TIP3    H178625   0.502   5.425   5.152 -1.4249 -1.0559  0.6635
19070TIP3    H278626   0.369   5.471   5.207 -0.9410  1.4487 -0.1379
19071TIP3   OH278627   4.105   5.596  16.626  0.3943 -0.0573  0.5157
19071TIP3    H178628   4.128   5.511  16.588 -1.6805  0.5863 -2.4287
19071TIP3    H278629   4.009   5.598  16.624  0.3936  2.2259  0.8345
19072TIP3   OH278630   5.699   5.810   2.996 -0.2007  0.4925  0.0297
19072TIP3    H178631   5.756   5.746   3.038  0.9754 -0.4473 -2.8003
19072TIP3    H278632   5.757   5.881   2.969 -0.6995  0.5462 -0.9604
19073TIP3   OH278633   4.993   3.734  14.745  0.8230 -0.4703  0.2327
19073TIP3    H178634   5.065   3.670  14.742 -0.0868 -1.5708  0.8776
19073TIP3    H278635   5.011   3.793  14.672  1.1722 -2.0747 -1.0494
19074TIP3   OH278636   3.677   5.182   3.206  0.5352  0.5897  0.0198
19074TIP3    H178637   3.633   5.196   3.289 -0.5195 -0.3229 -0.3677
19074TIP3    H278638   3.626   5.233   3.143  0.1930 -0.2583 -0.3916
19075TIP3   OH278639   5.199   3.177  12.938 -0.1301  0.7972 -0.5864
19075TIP3    H178640   5.292   3.198  12.939  0.0226  0.1757  0.6824
19075TIP3    H278641   5.163   3.226  13.011 -0.5625  0.0785 -0.3071
19076TIP3   OH278642   4.704   0.667  13.470  0.5242  0.1369 -0.3151
19076TIP3    H178643   4.658   0.600  13.419  0.9790  0.4205 -1.1147
19076TIP3    H278644   4.688   0.749  13.423  0.4833  0.4993  0.3173
19077TIP3   OH278645   5.706   0.333   4.005  0.1916 -0.9168 -0.0735
19077TIP3    H178646   5.746   0.358   4.088  0.7858 -0.7578 -0.3976
19077TIP3    H278647   5.643   0.265   4.027  1.1653 -1.6909  0.3643
19078TIP3   OH278648   1.664   6.343   2.500  0.1920  0.1710  0.0977
19078TIP3    H178649   1.726   6.353   2.427  1.9496 -2.1615  1.1372
19078TIP3    H278650   1.719   6.319   2.575 -1.7773  0.3254  1.6676
19079TIP3   OH278651   6.460   4.849  14.459  0.1569  0.4414 -0.2104
19079TIP3    H178652   6.423   4.896  14.534  1.5953  0.2968  0.6156
19079TIP3    H278653   6.478   4.917  14.395 -0.2931  0.6734 -0.0943
19080TIP3   OH278654   1.360   2.510  13.181 -0.0358 -0.2684 -0.1645
19080TIP3    H178655   1.342   2.419  13.205  0.8882 -0.2544  0.6390
19080TIP3    H278656   1.343   2.559  13.261  1.2580  0.0221 -0.0476
19081TIP3   OH278657   3.705   6.371  11.876 -0.7404  0.1561 -0.7484
19081TIP3    H178658   3.681   6.449  11.925 -0.9987  0.8220 -1.8877
19081TIP3    H278659   3.714   6.401  11.786  0.5746 -0.8576 -0.9833
19082TIP3   OH278660   5.533   5.403  17.035  0.3492  0.8244 -0.2179
19082TIP3    H178661   5.503   5.387  16.945  1.8769  2.3078 -1.0588
19082TIP3    H278662   5.624   5.371  17.035  0.6385  1.6133  0.5334
19083TIP3   OH278663   3.140   4.564  14.119 -0.1731  0.0855 -0.1963
19083TIP3    H178664   3.176   4.571  14.030 -0.5613  2.4571 -0.2176
19083TIP3    H278665   3.187   4.489  14.157  1.9759  0.6660 -1.4897
19084TIP3   OH278666   4.563   3.770   1.251  0.1958  0.0527 -0.0388
19084TIP3    H178667   4.524   3.758   1.164 -0.4268  0.4827  0.1719
19084TIP3    H278668   4.528   3.854   1.281  1.1997  0.3901  0.2098
19085TIP3   OH278669   3.608   5.633   2.291  0.2165 -0.2145  0.3063
19085TIP3    H178670   3.578   5.557   2.341  0.2936 -1.9393 -2.0874
19085TIP3    H278671   3.700   5.644   2.317  0.4225 -1.4298  0.1256
19086TIP3   OH278672   3.371   3.013  14.764  0.5002  0.3389 -0.1773
19086TIP3    H178673   3.280   3.042  14.767  0.1241 -0.8902  1.0221
19086TIP3    H278674   3.380   2.971  14.678  0.4187  1.8594 -0.9679
19087TIP3   OH278675   1.068   3.165   5.758  0.1087 -0.0668 -0.2525
19087TIP3    H178676   0.977   3.169   5.727  0.8794 -0.2726 -2.7703
19087TIP3    H278677   1.080   3.074   5.784 -0.2851 -0.1537 -0.3655
19088TIP3   OH278678   1.019   3.878   3.096  0.4347 -0.3056  0.6371
19088TIP3    H178679   1.077   3.853   3.168  1.4662  0.1350 -0.0196
19088TIP3    H278680   1.077   3.890   3.022 -0.5261  0.0163 -0.0813
19089TIP3   OH278681   5.204   0.478  13.038  0.0157  0.1191 -0.7522
19089TIP3    H178682   5.144   0.483  12.963  1.0187 -1.3450 -1.7031
19089TIP3    H278683   5.273   0.419  13.009  1.1651  0.6171  0.8524
19090TIP3   OH278684   3.310   5.257   1.278  0.1131  0.4946  0.0059
19090TIP3    H178685   3.251   5.308   1.223  0.2037  0.1376 -0.4245
19090TIP3    H278686   3.254   5.191   1.319  0.3416 -0.3669 -1.0373
19091TIP3   OH278687   5.607   2.437  11.230 -0.0117 -0.6895  0.3796
19091TIP3    H178688   5.540   2.466  11.292 -1.2816  2.3030 -2.1067
19091TIP3    H278689   5.560   2.426  11.147  2.2038 -0.5604 -0.9763
19092TIP3   OH278690   1.312   4.475   5.702 -0.2217  0.7331 -0.2968
19092TIP3    H178691   1.323   4.413   5.774  0.9591  0.4372 -0.7091
19092TIP3    H278692   1.364   4.439   5.630 -0.1465  1.7882 -0.8011
19093TIP3   OH278693   0.011   5.854   3.351  0.0386 -0.1036 -0.3335
19093TIP3    H178694  -0.005   5.877   3.443 -0.1299  0.6362 -0.5424
19093TIP3    H278695  -0.076   5.847   3.313  0.0481 -1.8843 -0.1033
19094TIP3   OH278696   4.487   1.462  12.677  0.3938 -0.0951  0.3593
19094TIP3    H178697   4.541   1.390  12.709  0.7578 -0.6974 -1.4901
19094TIP3    H278698   4.549   1.530  12.653  0.3498 -0.6018 -1.3191
19095TIP3   OH278699   0.911   3.634   3.582 -0.9694 -0.3300  0.4981
19095TIP3    H178700   0.909   3.584   3.501 -1.3194  1.6136 -0.7743
19095TIP3    H278701   0.988   3.603   3.629  0.5439  0.0186 -1.6312
19096TIP3   OH278702   5.546   6.700   2.412 -0.3531 -0.0783  0.0453
19096TIP3    H178703   5.511   6.616   2.441 -1.0449  0.0374 -0.4298
19096TIP3    H278704   5.599   6.731   2.486 -1.2535 -0.2535  0.7781
19097TIP3   OH278705   1.065   5.308   1.687  1.1830 -0.5313 -0.4733
19097TIP3    H178706   1.036   5.216   1.689  1.7848 -0.7551 -1.4516
19097TIP3    H278707   1.073   5.329   1.594  0.9155  0.5714 -0.2622
19098TIP3   OH278708   4.335   1.582   2.379  0.7794  0.3577 -0.0649
19098TIP3    H178709   4.416   1.592   2.430  1.3830  0.8377 -1.0823
19098TIP3    H278710   4.301   1.496   2.404  2.2602 -0.3956 -0.4966
19099TIP3   OH278711   6.204   5.162   3.496 -0.6955 -0.1740 -0.0384
19099TIP3    H178712   6.225   5.145   3.404 -0.2677  0.7219 -0.1111
19099TIP3    H278713   6.277   5.123   3.544 -0.5656 -0.0237 -0.1138
19100TIP3   OH278714   0.989   5.119  11.328 -0.4026 -0.4178  0.2128
19100TIP3    H178715   1.051   5.079  11.266  2.1216  0.5314  1.9554
19100TIP3    H278716   0.963   5.046  11.384 -0.2774 -0.6873 -0.0701
19101TIP3   OH278717   3.877   1.285  14.928  0.5305  0.4417 -0.0728
19101TIP3    H178718   3.797   1.331  14.954  1.2251  2.5255 -1.4067
19101TIP3    H278719   3.884   1.299  14.834  1.8401 -0.7654 -0.1965
19102TIP3   OH278720   4.861   0.467  14.543  0.3937 -0.4621 -0.4339
19102TIP3    H178721   4.874   0.421  14.460 -1.4683 -1.7802 -0.0762
19102TIP3    H278722   4.933   0.437  14.598  0.7164 -0.8629 -1.0548
19103TIP3   OH278723   5.615   5.726  16.692 -0.2083 -0.3672 -0.3285
19103TIP3    H178724   5.685   5.781  16.726 -0.2180 -1.6028  1.8402
19103TIP3    H278725   5.541   5.740  16.752 -1.4431  0.0044 -1.8729
19104TIP3   OH278726   1.006   4.556  14.272  0.0559 -0.0462 -0.0513
19104TIP3    H178727   1.098   4.530  14.272  0.2067  0.4294  1.5003
19104TIP3    H278728   0.958   4.476  14.294  0.3657  0.3769  2.4502
19105TIP3   OH278729   0.011   2.568  15.416 -0.2747 -0.3676  0.3164
19105TIP3    H178730  -0.030   2.485  15.391 -0.7406  0.2901 -1.2478
19105TIP3    H278731  -0.035   2.634  15.364  0.6884  0.7729  0.8613
19106TIP3   OH278732   2.637   6.291  13.843 -0.5733 -0.4273  0.0248
19106TIP3    H178733   2.720   6.256  13.873  0.4811 -1.0686 -3.2027
19106TIP3    H278734   2.633   6.380  13.879  0.5921 -1.0286  1.7273
19107TIP3   OH278735   5.648   3.319   3.893 -0.3861 -0.6521 -0.0127
19107TIP3    H178736   5.742   3.306   3.901 -0.2359 -0.7259 -1.5933
19107TIP3    H278737   5.632   3.321   3.799 -1.8381  0.2729  0.2189
19108TIP3   OH278738   3.472   4.427  13.157 -0.0996  0.3531 -0.0727
19108TIP3    H178739   3.449   4.411  13.065  1.0856  2.7254 -0.8581
19108TIP3    H278740   3.476   4.522  13.165  1.1403  0.1960  2.1069
19109TIP3   OH278741   3.374   5.914  13.788 -0.2219 -0.2813  0.1041
19109TIP3    H178742   3.399   5.974  13.857  3.0046 -1.4895  0.1594
19109TIP3    H278743   3.316   5.851  13.831 -1.8268  1.3956  0.5522
19110TIP3   OH278744   1.659   3.650  14.599  0.4482  0.4601  0.5378
19110TIP3    H178745   1.681   3.736  14.633  0.9976 -0.3878  2.4464
19110TIP3    H278746   1.743   3.608  14.582  0.2904 -0.6821  2.3088
19111TIP3   OH278747   6.532   5.347  11.934  0.6617 -0.2523 -0.0909
19111TIP3    H178748   6.510   5.296  11.856 -0.0822  0.8662 -0.6401
19111TIP3    H278749   6.500   5.435  11.914  0.1368 -0.0324  1.6247
19112TIP3   OH278750   0.145   4.820  11.229 -0.1420  0.2132  0.5131
19112TIP3    H178751   0.234   4.792  11.212  0.0188 -0.6666  2.4609
19112TIP3    H278752   0.091   4.770  11.169  0.5769 -0.3144  0.3002
19113TIP3   OH278753   5.986   3.757   1.166 -0.0515 -0.2513  0.2003
19113TIP3    H178754   6.003   3.713   1.083  1.2987 -1.0309  0.8479
19113TIP3    H278755   6.072   3.791   1.193 -0.7024  1.0905  0.6757
19114TIP3   OH278756   6.719   4.029  16.220 -0.2305  0.0961 -0.0782
19114TIP3    H178757   6.669   3.974  16.159  0.1233  0.2125 -0.4781
19114TIP3    H278758   6.690   4.000  16.307 -1.3916  0.5356 -0.3043
19115TIP3   OH278759   0.393   1.448   3.967  0.2630  0.0301 -0.1079
19115TIP3    H178760   0.468   1.490   3.925 -0.4644  0.0273 -1.4797
19115TIP3    H278761   0.416   1.355   3.970  0.6528  0.1367  0.2373
19116TIP3   OH278762   2.039   5.886  16.872  0.4427 -0.1931 -0.0487
19116TIP3    H178763   1.976   5.921  16.935  1.3913 -0.6738  1.2174
19116TIP3    H278764   2.066   5.962  16.820 -1.2658 -0.0098 -0.7265
19117TIP3   OH278765   2.703   0.376  16.426  0.2705 -0.0655 -0.1066
19117TIP3    H178766   2.703   0.415  16.338  0.4282  0.0236 -0.0679
19117TIP3    H278767   2.795   0.359  16.444  0.4666  1.6931  0.8197
19118TIP3   OH278768   3.638   3.199  14.939 -0.3630 -0.3721 -0.0456
19118TIP3    H178769   3.562   3.164  14.985 -0.2764 -0.3865  0.0881
19118TIP3    H278770   3.673   3.125  14.890 -0.8314 -0.2019 -0.6471
19119TIP3   OH278771   0.052   3.266  14.328 -0.3262 -0.3463  0.4495
19119TIP3    H178772   0.110   3.325  14.375  1.1276 -1.8779  0.6632
19119TIP3    H278773   0.014   3.319  14.258  2.3206  0.4361 -0.4810
19120TIP3   OH278774   0.457   2.164   2.668 -0.0139  0.8096 -0.0850
19120TIP3    H178775   0.381   2.152   2.611 -1.3462 -0.1601  1.7798
19120TIP3    H278776   0.490   2.075   2.681  0.4900  1.0606  0.3682
19121TIP3   OH278777   1.106   5.774  13.739  0.6877 -0.4167  0.7486
19121TIP3    H178778   1.117   5.761  13.645  0.3041 -3.4839  1.0037
19121TIP3    H278779   1.180   5.829  13.765  0.4440  1.0289 -1.3966
19122TIP3   OH278780   5.391   1.070  15.068  0.2652  0.4674  0.6836
19122TIP3    H178781   5.350   1.156  15.075 -0.8406  0.0177 -0.0555
19122TIP3    H278782   5.333   1.011  15.116 -0.1426 -0.2301 -0.6231
19123TIP3   OH278783   6.619   4.964   1.781  0.2182 -0.4020  0.4676
19123TIP3    H178784   6.699   4.917   1.804  0.8049 -0.1244 -0.9356
19123TIP3    H278785   6.648   5.052   1.759 -0.6395  0.0583  1.0951
19124TIP3   OH278786   6.686   0.633  12.744  0.3054  0.0526  0.2551
19124TIP3    H178787   6.703   0.726  12.727 -1.1990  0.1507 -0.9991
19124TIP3    H278788   6.728   0.615  12.828 -0.1404  2.1009  0.9727
19125TIP3   OH278789   1.520   2.825  11.292 -0.0965 -0.3678  0.4045
19125TIP3    H178790   1.461   2.749  11.293  0.2146 -0.6086  1.1337
19125TIP3    H278791   1.481   2.885  11.228 -0.4394 -1.0661 -0.0505
19126TIP3   OH278792   0.824   0.043  17.089 -0.0281 -0.2674  0.0514
19126TIP3    H178793   0.832   0.106  17.019  0.6387 -0.9738 -0.5236
19126TIP3    H278794   0.912   0.007  17.100 -0.5500 -1.7241 -0.2536
19127TIP3   OH278795   3.758   3.407  14.018  0.4701  0.1792  0.4832
19127TIP3    H178796   3.800   3.478  14.066  0.8242 -0.9868  1.9949
19127TIP3    H278797   3.687   3.448  13.970  0.9530  1.6055  0.9585
19128TIP3   OH278798   0.102   3.634   2.806  0.5949 -0.0927 -1.0119
19128TIP3    H178799   0.020   3.614   2.760 -0.0882 -1.4709  0.7244
19128TIP3    H278800   0.158   3.558   2.791 -0.2913 -1.4138  1.7743
19129TIP3   OH278801   3.338   2.646  13.784  0.0121  0.2367  0.1588
19129TIP3    H178802   3.430   2.632  13.760  0.4457  2.5310  0.3204
19129TIP3    H278803   3.328   2.600  13.868  1.3076  0.8318  0.6634
19130TIP3   OH278804   5.093   5.808   2.163  0.3088  0.3127  0.0264
19130TIP3    H178805   5.042   5.778   2.238 -0.0122 -2.0832 -1.0504
19130TIP3    H278806   5.178   5.765   2.173  0.8379  1.2893 -0.1479
19131TIP3   OH278807   4.585   4.632   2.190 -0.7167 -0.2698  0.6744
19131TIP3    H178808   4.630   4.698   2.138  2.2662 -1.4858  1.5122
19131TIP3    H278809   4.494   4.634   2.158 -0.3680  2.9661 -0.4901
19132TIP3   OH278810   5.157   5.959   5.516  0.3259 -0.5400  0.1824
19132TIP3    H178811   5.122   6.005   5.593  1.0584 -1.6913  1.2600
19132TIP3    H278812   5.085   5.956   5.454 -0.8586 -1.1016  1.5363
19133TIP3   OH278813   2.530   1.226   3.367  0.6206  0.6323  0.1228
19133TIP3    H178814   2.541   1.193   3.278  0.4045 -0.2397  0.4124
19133TIP3    H278815   2.615   1.213   3.409  0.1310 -0.9773  0.6858
19134TIP3   OH278816   3.697   3.801  10.808  0.2744  0.1503  0.5474
19134TIP3    H178817   3.625   3.820  10.748  0.5117 -0.2143  0.1460
19134TIP3    H278818   3.655   3.782  10.892 -0.1287 -0.7544  0.1384
19135TIP3   OH278819   0.196   6.532  12.706 -0.5299 -0.4552 -0.0296
19135TIP3    H178820   0.269   6.478  12.676 -1.2804 -1.0266 -0.8739
19135TIP3    H278821   0.184   6.597  12.636 -0.5649 -0.0952  0.3059
19136TIP3   OH278822   1.746   3.163  13.164  0.2328 -0.0665  0.5744
19136TIP3    H178823   1.820   3.135  13.109 -0.8715  0.9049 -1.5468
19136TIP3    H278824   1.709   3.082  13.197  2.1861 -0.5768  1.6521
19137TIP3   OH278825   0.684   0.847   1.295 -0.2767  0.1921 -0.1005
19137TIP3    H178826   0.619   0.782   1.267 -2.0374  1.9275 -0.2615
19137TIP3    H278827   0.748   0.849   1.224  0.1953 -1.7757  0.1972
19138TIP3   OH278828   5.022   0.336   4.049  0.0381  0.0462 -0.2178
19138TIP3    H178829   4.993   0.245   4.050  1.3278 -0.3882 -0.1295
19138TIP3    H278830   4.985   0.372   3.968 -0.1578 -0.6716 -0.4586
19139TIP3   OH278831   4.859   5.377   1.057  0.4687  0.0188  0.8630
19139TIP3    H178832   4.795   5.309   1.079  2.4628 -2.6217 -0.8119
19139TIP3    H278833   4.897   5.403   1.141 -0.6546 -0.5987  1.5785
19140TIP3   OH278834   6.378   4.604  16.567 -0.6248 -0.1107  0.4137
19140TIP3    H178835   6.345   4.691  16.546  0.6525  0.7749  1.9456
19140TIP3    H278836   6.469   4.605  16.538 -1.2081 -1.8164 -1.8184
19141TIP3   OH278837   2.707   2.775   1.885  0.0350  0.0821 -0.3367
19141TIP3    H178838   2.746   2.861   1.894 -2.2713  1.3455 -1.5009
19141TIP3    H278839   2.650   2.766   1.961 -0.0529 -0.2336 -0.4378
19142TIP3   OH278840   2.166   5.062  16.838 -0.9987 -0.6592 -0.6759
19142TIP3    H178841   2.099   5.059  16.771  1.6130 -0.7397 -3.4994
19142TIP3    H278842   2.197   4.972  16.846  0.4518 -0.2508 -1.3263
19143TIP3   OH278843   4.039   2.452  13.386 -0.2163  0.3319 -0.4344
19143TIP3    H178844   3.977   2.519  13.416 -0.5146  0.2385 -0.8384
19143TIP3    H278845   4.084   2.492  13.311  1.1965  0.9223  0.6775
19144TIP3   OH278846   2.067   5.474   6.210  0.3490  0.4807  0.2744
19144TIP3    H178847   2.156   5.468   6.243  0.7566 -0.8114 -0.9992
19144TIP3    H278848   2.059   5.564   6.177  1.6936  0.1490 -1.0195
19145TIP3   OH278849   0.133   0.726   4.194  0.0780  0.0519 -0.0772
19145TIP3    H178850   0.134   0.821   4.207 -0.6491  0.2544 -1.2814
19145TIP3    H278851   0.190   0.711   4.119  0.5356 -0.5285  0.3707
19146TIP3   OH278852   0.216   1.265  14.871 -0.9587 -0.4636  0.4124
19146TIP3    H178853   0.158   1.317  14.815 -2.4996 -1.3068  1.1793
19146TIP3    H278854   0.165   1.250  14.951 -0.2333 -2.4494  0.5417
19147TIP3   OH278855   1.675   3.226  14.044 -0.3322 -0.2254  0.1863
19147TIP3    H178856   1.745   3.191  14.099 -0.5326  0.3325  0.8254
19147TIP3    H278857   1.668   3.318  14.071 -2.4064 -0.6554  1.3262
19148TIP3   OH278858   0.078   2.972  15.619  0.0184  0.0060 -0.0510
19148TIP3    H178859  -0.017   2.985  15.622  0.1123  0.5596  1.3021
19148TIP3    H278860   0.113   3.058  15.592  0.1675 -0.0394 -0.0046
19149TIP3   OH278861   1.785   5.679   1.930  0.0235  0.1883 -0.2211
19149TIP3    H178862   1.858   5.700   1.988  0.1190  0.1309 -0.3199
19149TIP3    H278863   1.805   5.591   1.898 -0.2583  0.0380  0.0117
19150TIP3   OH278864   2.688   0.882  12.308  0.0863 -0.1733 -0.5584
19150TIP3    H178865   2.745   0.819  12.264  0.2388 -1.0729  0.8674
19150TIP3    H278866   2.662   0.942  12.239  0.9384 -1.0712 -1.7116
19151TIP3   OH278867   4.605   3.967   4.991  0.1850  0.5239  0.0768
19151TIP3    H178868   4.540   4.037   4.987  2.3124  2.5671 -1.3742
19151TIP3    H278869   4.640   3.962   4.902  0.4682 -2.1275  0.2437
19152TIP3   OH278870   3.201   5.175  12.492  0.0758  0.7427 -0.1353
19152TIP3    H178871   3.211   5.200  12.400 -2.7167  0.5934 -0.5614
19152TIP3    H278872   3.162   5.252  12.534 -0.6662  0.0626  0.4388
19153TIP3   OH278873   5.637   5.164   5.831  0.3124 -0.7424  0.0323
19153TIP3    H178874   5.553   5.120   5.824  0.0158  0.0361 -1.7740
19153TIP3    H278875   5.617   5.249   5.871  0.1889 -0.4196 -0.7165
19154TIP3   OH278876   2.086   1.417  10.387 -0.8586  0.4257  0.4700
19154TIP3    H178877   2.064   1.484  10.452 -0.4120  1.8556 -0.7851
19154TIP3    H278878   2.161   1.453  10.340 -0.6182 -0.9674 -0.2655
19155TIP3   OH278879   2.254   2.638   0.420  0.2779  0.1746 -0.0495
19155TIP3    H178880   2.214   2.724   0.408 -1.0598 -0.4354 -0.1886
19155TIP3    H278881   2.326   2.636   0.357  2.1528  2.2055  1.8405
19156TIP3   OH278882   5.913   5.229   1.199  0.4673  0.3314 -0.3250
19156TIP3    H178883   5.833   5.179   1.215  0.2164  0.2881 -1.5796
19156TIP3    H278884   5.983   5.173   1.233  0.1950 -0.9540 -1.7563
19157TIP3   OH278885   4.718   3.310   0.322  0.1532  0.2624  0.6617
19157TIP3    H178886   4.762   3.391   0.347  3.2365 -0.9957 -0.2444
19157TIP3    H278887   4.658   3.336   0.252 -1.3523  2.1894  2.5158
19158TIP3   OH278888   1.746   1.578   5.755  0.5577 -0.3475  0.0976
19158TIP3    H178889   1.781   1.514   5.817  0.0155 -0.2253  0.5412
19158TIP3    H278890   1.794   1.562   5.674  2.9399  0.9734  1.1357
19159TIP3   OH278891   1.049   2.749   1.934  0.4441 -0.2280  0.3114
19159TIP3    H178892   1.107   2.825   1.943  0.0574  0.0234  0.7400
19159TIP3    H278893   1.061   2.700   2.016 -0.0737 -0.0812  0.4796
19160TIP3   OH278894   3.358   4.426  16.831 -0.5723  0.0546  0.3037
19160TIP3    H178895   3.430   4.473  16.873  1.1051 -2.9942  1.1829
19160TIP3    H278896   3.365   4.337  16.865 -2.2429 -1.4105 -2.7646
19161TIP3   OH278897   6.043   1.247   1.133 -0.2498  0.2938 -0.9423
19161TIP3    H178898   5.962   1.231   1.085 -0.6370  1.2725 -0.6370
19161TIP3    H278899   6.112   1.244   1.067 -0.6404  0.3971 -1.3584
19162TIP3   OH278900   2.250   1.870   5.818  0.1484  0.0888 -0.0898
19162TIP3    H178901   2.300   1.928   5.761  0.8184 -2.5210 -2.3969
19162TIP3    H278902   2.301   1.789   5.820 -0.8063 -0.5601  2.8232
19163TIP3   OH278903   0.458   2.529  16.546  0.1530 -0.1860 -0.0647
19163TIP3    H178904   0.471   2.596  16.613 -1.7576  0.4111 -0.2342
19163TIP3    H278905   0.492   2.568  16.465 -1.4651  0.8749 -0.2824
19164TIP3   OH278906   0.358   0.238   3.715 -0.0655  0.4357 -0.7376
19164TIP3    H178907   0.420   0.296   3.672  1.6242 -1.5522 -1.1361
19164TIP3    H278908   0.324   0.182   3.645 -0.0169 -0.4651 -0.0669
19165TIP3   OH278909   1.916   0.870   1.014  0.5130 -0.0771 -0.0446
19165TIP3    H178910   1.938   0.963   1.020  1.2575 -0.3402  2.9506
19165TIP3    H278911   1.837   0.861   1.068  1.5771 -1.4485  1.3600
19166TIP3   OH278912   0.397   4.675   4.892  0.2230 -0.0529  0.4141
19166TIP3    H178913   0.371   4.583   4.886 -3.4381  0.9148 -2.7048
19166TIP3    H278914   0.453   4.688   4.815  0.0384  0.4829  0.3706
19167TIP3   OH278915   1.859   2.497  14.669 -0.2786  0.3817  0.3888
19167TIP3    H178916   1.815   2.455  14.595 -0.3196  0.3692  0.4195
19167TIP3    H278917   1.789   2.509  14.734 -0.3155  0.7158  0.2875
19168TIP3   OH278918   1.393   1.598   5.711 -0.3039 -0.3494 -0.0702
19168TIP3    H178919   1.346   1.673   5.748 -0.6724  0.3707 -1.9024
19168TIP3    H278920   1.473   1.636   5.673 -0.2335 -0.9665 -0.5471
19169TIP3   OH278921   5.216   1.951  12.743 -0.4563  0.4913  0.0873
19169TIP3    H178922   5.303   1.953  12.782 -0.5020  0.8910  0.1737
19169TIP3    H278923   5.170   2.025  12.783 -0.5681  0.7827 -0.5685
19170TIP3   OH278924   5.102   6.501   6.638 -0.5017 -0.3008 -0.2425
19170TIP3    H178925   5.130   6.503   6.547  1.9089 -0.1562  0.4413
19170TIP3    H278926   5.112   6.591   6.669  1.3554 -0.8173  0.8390
19171TIP3   OH278927   4.584   3.149   0.512 -0.1027  0.3720  0.2934
19171TIP3    H178928   4.573   3.057   0.487 -1.4273  0.5523  0.1300
19171TIP3    H278929   4.602   3.193   0.429  0.8094  0.2232  0.4106
19172TIP3   OH278930   2.038   2.312   4.437  0.2871  0.6808 -1.2206
19172TIP3    H178931   2.114   2.347   4.485 -0.3175 -0.2464  0.5148
19172TIP3    H278932   2.075   2.242   4.383  0.5734 -0.5393  0.4674
19173TIP3   OH278933   3.404   1.565  16.139  0.2436  0.3855  0.8147
19173TIP3    H178934   3.415   1.476  16.173  0.3276  0.2430  0.4213
19173TIP3    H278935   3.493   1.593  16.117  0.0876  0.1056 -0.2031
19174TIP3   OH278936   6.340   2.280  14.616 -0.4897 -0.1004 -0.6924
19174TIP3    H178937   6.420   2.239  14.648 -1.0744  0.2147  1.2946
19174TIP3    H278938   6.303   2.216  14.555  0.8990 -0.5352 -1.1184
19175TIP3   OH278939   5.770   0.249  16.448  0.5736  0.5423  0.2365
19175TIP3    H178940   5.696   0.308  16.456  0.8697  1.2338 -1.6612
19175TIP3    H278941   5.758   0.186  16.519 -1.6102  0.8636  0.2139
19176TIP3   OH278942   0.639   0.659   0.865  0.0019 -0.1446  0.5720
19176TIP3    H178943   0.557   0.618   0.894  0.2908 -0.3356  1.1422
19176TIP3    H278944   0.625   0.753   0.880 -0.9220  0.0664 -1.3980
19177TIP3   OH278945   1.369   3.834  17.090 -0.3640 -0.6430  0.8698
19177TIP3    H178946   1.277   3.810  17.074 -0.1977 -0.1716 -1.0795
19177TIP3    H278947   1.400   3.769  17.153 -1.8671 -1.1543  1.1325
19178TIP3   OH278948   0.275   3.090   3.436 -0.0342  0.6262  0.3016
19178TIP3    H178949   0.276   3.162   3.373 -0.6728  0.2620 -0.1424
19178TIP3    H278950   0.200   3.108   3.492  0.5404  0.9544  0.9751
19179TIP3   OH278951   4.456   4.582   0.995  0.5069  0.8859 -0.3565
19179TIP3    H178952   4.443   4.551   1.085 -2.1173  1.2946 -0.5157
19179TIP3    H278953   4.506   4.512   0.953 -0.9211 -0.8140  0.6218
19180TIP3   OH278954   2.672   0.582   5.075  0.7120  0.2841 -0.5917
19180TIP3    H178955   2.593   0.593   5.128  0.7223 -1.9930  0.0231
19180TIP3    H278956   2.681   0.487   5.065  3.7172  0.4131 -0.0812
19181TIP3   OH278957   5.142   0.655  13.909  0.1211 -0.2081 -0.6359
19181TIP3    H178958   5.096   0.594  13.966  0.3782  1.0847  1.0272
19181TIP3    H278959   5.072   0.707  13.868 -0.0088 -0.3325 -0.5741
19182TIP3   OH278960   4.264   3.357   1.156  0.1926 -0.5575 -0.2069
19182TIP3    H178961   4.243   3.447   1.131 -1.1634 -0.8896 -0.3706
19182TIP3    H278962   4.180   3.320   1.185  0.5598 -2.0037 -0.8738
19183TIP3   OH278963   3.118   0.393  15.910  0.7102 -0.4579 -0.0141
19183TIP3    H178964   3.182   0.381  15.980 -0.1868 -1.7737  0.6304
19183TIP3    H278965   3.033   0.392  15.955  0.1595 -0.3916 -1.0160
19184TIP3   OH278966   4.789   1.604   5.031  0.4695  0.2601 -0.1274
19184TIP3    H178967   4.701   1.617   5.065  0.8687  1.1188  0.6181
19184TIP3    H278968   4.846   1.620   5.106  1.4721  3.4749 -1.4320
19185TIP3   OH278969   4.152   5.363   4.136 -0.3476 -0.2479 -0.2200
19185TIP3    H178970   4.185   5.283   4.176 -1.1355 -0.8615 -0.7546
19185TIP3    H278971   4.100   5.404   4.204  2.0381  1.1146  0.8790
19186TIP3   OH278972   1.966   4.772  14.516 -0.1042  0.2607  0.5205
19186TIP3    H178973   2.002   4.860  14.514 -0.9804  0.6273 -0.0637
19186TIP3    H278974   1.902   4.771  14.444  0.6386 -1.1743 -0.1552
19187TIP3   OH278975   4.180   4.897  12.695 -0.3253  0.1882  0.3902
19187TIP3    H178976   4.160   4.818  12.645  0.6669  2.2939 -3.7388
19187TIP3    H278977   4.095   4.927  12.727 -0.8793 -1.7783  0.9021
19188TIP3   OH278978   0.364   1.464  15.690  0.2461  0.6175 -0.1898
19188TIP3    H178979   0.340   1.424  15.607  0.3579  2.6042 -1.2445
19188TIP3    H278980   0.294   1.439  15.751  0.6200 -1.5892 -0.5967
19189TIP3   OH278981   5.434   5.347  16.781  0.2092  0.2844  0.4734
19189TIP3    H178982   5.441   5.401  16.702 -1.8831  1.5496  1.0634
19189TIP3    H278983   5.435   5.257  16.749  0.4008  0.7410 -0.8851
19190TIP3   OH278984   3.796   4.090   4.706 -0.1430 -0.4164 -0.3078
19190TIP3    H178985   3.842   4.136   4.777 -1.0290  0.8103 -0.5071
19190TIP3    H278986   3.849   4.011   4.691  1.1941  0.3208  0.3271
19191TIP3   OH278987   1.304   3.953  11.430  0.4829  0.0025 -0.3404
19191TIP3    H178988   1.246   4.014  11.384  3.4989  2.0666 -1.7396
19191TIP3    H278989   1.332   3.891  11.362 -1.7471 -2.5190  0.8451
19192TIP3   OH278990   2.032   5.438  13.835  0.1887 -0.4987 -0.6429
19192TIP3    H178991   2.116   5.411  13.873  0.5708 -0.2629 -1.2969
19192TIP3    H278992   1.968   5.381  13.877  0.4582  0.3398  1.0361
19193TIP3   OH278993   4.531   3.268  15.631 -0.1823 -0.0048  0.0736
19193TIP3    H178994   4.448   3.316  15.627 -0.2749 -0.0993  0.8075
19193TIP3    H278995   4.539   3.228  15.545 -0.5098  0.6518 -0.2759
19194TIP3   OH278996   0.628   2.495  16.966  0.2329 -0.5800 -0.1311
19194TIP3    H178997   0.667   2.553  16.901 -0.8854  0.5295  0.1500
19194TIP3    H278998   0.642   2.407  16.931  0.6722 -0.0666 -1.2919
19195TIP3   OH278999   3.291   5.567   5.777 -0.4368  0.1001 -0.1980
19195TIP3    H179000   3.339   5.485   5.785  1.3619  1.1558  0.2851
19195TIP3    H279001   3.329   5.624   5.844 -0.2040  1.9925 -1.8361
19196TIP3   OH279002   4.361   2.263  14.900  0.2485  0.1405 -0.4515
19196TIP3    H179003   4.399   2.292  14.817  1.0762 -1.3755 -0.6601
19196TIP3    H279004   4.295   2.198  14.874  1.0890 -0.9550  0.0584
19197TIP3   OH279005   1.149   2.702   5.612 -0.3261 -0.4379  0.1337
19197TIP3    H179006   1.220   2.761   5.636 -1.6008  1.4135 -0.4464
19197TIP3    H279007   1.175   2.665   5.528  2.7274 -4.5965  2.5284
19198TIP3   OH279008   2.469   4.095  16.627  0.0982  0.8434 -0.1287
19198TIP3    H179009   2.478   4.114  16.533  1.3781  0.4647 -0.0934
19198TIP3    H279010   2.450   4.002  16.631 -1.4188  1.1188 -0.0545
19199TIP3   OH279011   5.938   6.701  16.494 -0.0499 -0.2226 -0.0108
19199TIP3    H179012   5.886   6.769  16.536 -0.6634 -1.7304  1.8073
19199TIP3    H279013   6.004   6.677  16.559  2.3778  0.9159 -1.8739
19200TIP3   OH279014   3.510   2.182   4.689  0.5782  0.3350 -0.0297
19200TIP3    H179015   3.553   2.113   4.639 -0.0740 -0.8755  1.0175
19200TIP3    H279016   3.445   2.136   4.742 -0.3595  1.8390  0.1858
19201TIP3   OH279017   0.756   5.896  11.143 -0.4625 -0.2381 -0.1367
19201TIP3    H179018   0.704   5.962  11.097 -0.2314 -0.8812 -1.3613
19201TIP3    H279019   0.812   5.946  11.202 -2.1335  0.5058  0.9053
19202TIP3   OH279020   2.628   0.763  13.539 -0.1326  0.4717  0.3189
19202TIP3    H179021   2.599   0.730  13.624 -0.1386  0.7012  0.4075
19202TIP3    H279022   2.643   0.857  13.554  1.0436  0.2978  0.3855
19203TIP3   OH279023   5.061   2.415  10.892  0.1117 -0.1812  0.4587
19203TIP3    H179024   4.997   2.394  10.824 -1.2657  1.7212  1.0826
19203TIP3    H279025   5.040   2.505  10.917  1.7050 -0.2421  2.1902
19204TIP3   OH279026   2.275   2.842   4.408 -0.3284 -0.2743  0.1312
19204TIP3    H179027   2.246   2.910   4.469 -2.7373 -1.0219 -0.0687
19204TIP3    H279028   2.360   2.873   4.376  0.0419  1.1322  2.2827
19205TIP3   OH279029   3.765   3.990   2.948 -0.4473 -0.4528  0.2416
19205TIP3    H179030   3.683   4.027   2.915  0.4769  1.8031  0.2420
19205TIP3    H279031   3.832   4.028   2.891  0.8608  0.5223  2.3019
19206TIP3   OH279032   5.199   5.808  14.489  0.6124  0.0387 -0.5680
19206TIP3    H179033   5.292   5.807  14.511  0.0617 -0.0995  1.9977
19206TIP3    H279034   5.170   5.898  14.508  0.2641  0.1886 -1.6971
19207TIP3   OH279035   6.296   2.413  14.007 -0.2852  0.7918 -0.3186
19207TIP3    H179036   6.245   2.485  13.968 -1.7350 -0.5435 -1.0062
19207TIP3    H279037   6.238   2.378  14.075  0.3762  0.2424 -0.0357
19208TIP3   OH279038   3.607   6.701   1.645 -0.1424 -0.4653  0.6499
19208TIP3    H179039   3.613   6.697   1.740  1.3102  0.9678  0.6579
19208TIP3    H279040   3.658   6.778   1.621 -3.2949  1.3201 -1.0412
19209TIP3   OH279041   6.321   6.232   2.278 -0.6774  0.1591  0.2317
19209TIP3    H179042   6.293   6.148   2.314  0.2388 -0.3405 -0.1776
19209TIP3    H279043   6.376   6.209   2.203  0.4786  1.0836  0.7551
19210TIP3   OH279044   5.371   5.222   6.421  0.3565  0.0511 -0.1718
19210TIP3    H179045   5.439   5.155   6.424  0.5151  0.1117 -1.7749
19210TIP3    H279046   5.398   5.286   6.487  1.6931 -0.0836 -0.5635
19211TIP3   OH279047   5.479   1.892   4.526  0.2842  0.1907  0.2062
19211TIP3    H179048   5.551   1.887   4.462 -0.3218  0.4770 -0.5136
19211TIP3    H279049   5.418   1.955   4.489  0.8064  1.8355  2.0150
19212TIP3   OH279050   5.932   2.428   2.839  0.2920  0.2419  0.1193
19212TIP3    H179051   5.857   2.413   2.782  1.1645 -0.5822 -0.8501
19212TIP3    H279052   5.894   2.465   2.919 -1.1003  0.1378 -0.4597
19213TIP3   OH279053   1.454   4.613   2.045 -0.3067  0.4931  0.2133
19213TIP3    H179054   1.377   4.660   2.077 -0.7779  0.1888 -0.4606
19213TIP3    H279055   1.419   4.547   1.985  0.3362 -0.6679  1.0485
19214TIP3   OH279056   2.108   3.627   0.353  0.4704  0.6694 -0.1366
19214TIP3    H179057   2.119   3.582   0.438  0.1099 -0.6544 -0.7659
19214TIP3    H279058   2.063   3.708   0.375  1.3164  0.8584  1.0705
19215TIP3   OH279059   4.740   6.105  14.944  0.3965 -0.7852  0.1473
19215TIP3    H179060   4.666   6.163  14.955 -0.3489 -1.7376  0.2803
19215TIP3    H279061   4.743   6.053  15.025  1.2507 -0.7179  0.1772
19216TIP3   OH279062   0.367   1.492  15.260 -0.0921  0.4093  0.2587
19216TIP3    H179063   0.447   1.504  15.209  0.3112 -0.7983  0.5646
19216TIP3    H279064   0.313   1.567  15.238 -0.0387 -0.1846 -2.1334
19217TIP3   OH279065   1.756   6.054   5.173  0.6376  0.1066 -0.9150
19217TIP3    H179066   1.811   5.980   5.149  2.4230  0.8683  0.5604
19217TIP3    H279067   1.735   6.039   5.265 -0.0873  0.7736 -0.9636
19218TIP3   OH279068   5.059   5.346   0.683 -0.3853  0.5241  0.2132
19218TIP3    H179069   4.985   5.304   0.726 -2.3390  1.6743 -1.8063
19218TIP3    H279070   5.131   5.284   0.693 -1.9099 -1.1834  1.2283
19219TIP3   OH279071   3.277   3.695  13.533  0.3137  0.1990 -0.0220
19219TIP3    H179072   3.320   3.728  13.613  0.5085  0.0363 -0.0570
19219TIP3    H279073   3.233   3.771  13.496  0.3380  0.3071  0.1675
19220TIP3   OH279074   6.041   0.485  17.085 -0.3117 -0.1332 -0.0243
19220TIP3    H179075   6.083   0.405  17.117 -1.5720 -0.4874  0.8353
19220TIP3    H279076   6.113   0.538  17.051  0.5656 -1.5706 -0.5084
19221TIP3   OH279077   1.672   6.410  11.062  0.0858  0.3020  0.0349
19221TIP3    H179078   1.596   6.352  11.066  0.2752  0.0632  4.1473
19221TIP3    H279079   1.655   6.475  11.130  2.8574  1.1634  0.0001
19222TIP3   OH279080   5.762   4.638   5.362  0.3414  0.4468 -0.9549
19222TIP3    H179081   5.748   4.721   5.316 -0.1187  0.2715 -1.1323
19222TIP3    H279082   5.846   4.650   5.407 -0.3468  1.5081  0.1290
19223TIP3   OH279083   4.366   6.032  14.696 -0.1841 -0.2046  0.2415
19223TIP3    H179084   4.377   6.103  14.759 -1.7493  0.1686  0.1467
19223TIP3    H279085   4.373   5.952  14.748  1.6564 -0.0311  0.3422
19224TIP3   OH279086   5.657   6.358   1.790  0.3587 -0.0055 -0.1160
19224TIP3    H179087   5.626   6.278   1.747  1.1441 -0.9911  1.0739
19224TIP3    H279088   5.752   6.358   1.775  0.4632  0.3207  0.5091
19225TIP3   OH279089   2.684   4.731  12.308 -1.1404  0.1967  0.1352
19225TIP3    H179090   2.645   4.647  12.287 -1.0471  0.2407 -0.2186
19225TIP3    H279091   2.777   4.721  12.285 -1.3551  0.7810 -1.0622
19226TIP3   OH279092   6.479   3.533  14.437  0.5204 -0.1244 -0.5598
19226TIP3    H179093   6.430   3.480  14.501  1.5598  0.3277  0.6539
19226TIP3    H279094   6.486   3.477  14.360  2.6781 -2.3892  1.1027
19227TIP3   OH279095   1.511   5.875   2.491  0.0169 -0.4356  0.0749
19227TIP3    H179096   1.596   5.898   2.529 -0.6162 -0.3268  1.5032
19227TIP3    H279097   1.515   5.906   2.401  1.5549 -0.6134  0.0611
19228TIP3   OH279098   4.013   5.966   2.518 -0.3373 -0.3230 -0.3065
19228TIP3    H179099   4.107   5.980   2.533 -0.0802 -2.4008  0.3201
19228TIP3    H279100   3.973   5.980   2.603 -0.7427  1.2496 -0.7140
19229TIP3   OH279101   4.494   1.114  15.617 -0.2315 -0.2869  0.9904
19229TIP3    H179102   4.573   1.084  15.573 -0.5767  0.6546 -0.3798
19229TIP3    H279103   4.525   1.156  15.697  0.8740  1.5400 -0.3036
19230TIP3   OH279104   6.002   3.418  16.085  0.7170 -0.1462  0.4428
19230TIP3    H179105   6.016   3.407  16.179  2.1898  0.1494  0.2799
19230TIP3    H279106   6.083   3.390  16.044  0.4908  0.7148 -0.6772
19231TIP3   OH279107   6.339   4.413  11.467  0.3119  0.0037  0.6154
19231TIP3    H179108   6.320   4.391  11.558  0.5936 -0.7544  0.4993
19231TIP3    H279109   6.430   4.441  11.468  0.3257 -0.0390  0.5648
19232TIP3   OH279110   2.501   0.865   0.431  0.0602  0.3006  0.6077
19232TIP3    H179111   2.563   0.830   0.495  0.2166  1.1189  0.9094
19232TIP3    H279112   2.537   0.842   0.346  0.5813  0.4461  0.7899
19233TIP3   OH279113   5.892   0.076  11.745  0.0310  0.1529  0.3989
19233TIP3    H179114   5.934   0.099  11.828 -1.5983  0.2241  1.2403
19233TIP3    H279115   5.831   0.148  11.729 -0.2633 -0.2768 -0.4405
19234TIP3   OH279116   4.206   4.053  16.316  0.0877 -0.4871  0.4142
19234TIP3    H179117   4.150   4.080  16.243  0.9650 -0.6204 -0.3402
19234TIP3    H279118   4.156   4.075  16.395 -0.4583  0.6129 -0.2116
19235TIP3   OH279119   5.060   4.388   2.310 -0.5365 -0.0263 -0.3853
19235TIP3    H179120   4.978   4.408   2.267 -0.4824  0.4795 -0.2635
19235TIP3    H279121   5.052   4.428   2.397  0.1165  0.6551 -0.6308
19236TIP3   OH279122   2.503   4.154  17.295 -0.4017 -0.3585 -0.6213
19236TIP3    H179123   2.443   4.126  17.226 -2.3665 -0.5240  1.0255
19236TIP3    H279124   2.489   4.248  17.302  0.8074 -0.1065 -1.3149
19237TIP3   OH279125   4.262   0.361   0.700  0.0257  0.0418 -0.8947
19237TIP3    H179126   4.242   0.273   0.667  2.5872 -0.8799 -0.2260
19237TIP3    H279127   4.256   0.353   0.795  0.0489  0.6672 -0.8402
19238TIP3   OH279128   6.658   1.666  17.333 -0.0094 -0.2162 -0.2242
19238TIP3    H179129   6.680   1.731  17.265  0.4426 -0.2772 -0.1326
19238TIP3    H279130   6.575   1.629  17.303 -0.4023  0.5823 -0.1533
19239TIP3   OH279131   3.478   1.560   1.737 -0.3752 -0.1735  0.0424
19239TIP3    H179132   3.425   1.607   1.672  0.1840  1.6973  0.8518
19239TIP3    H279133   3.530   1.498   1.686 -0.0325  1.1556 -1.3004
19240TIP3   OH279134   3.184   1.026   2.771 -0.1512  0.2672  0.7012
19240TIP3    H179135   3.108   0.980   2.806  0.5218 -1.4355  0.0033
19240TIP3    H279136   3.159   1.119   2.775 -2.7730 -0.2769 -0.6695
19241TIP3   OH279137   4.026   3.341  13.801 -0.8577 -0.1265 -0.8075
19241TIP3    H179138   4.106   3.374  13.761  0.2670 -1.0059  0.6317
19241TIP3    H279139   4.035   3.245  13.797  0.6919 -0.4213  3.8796
19242TIP3   OH279140   3.564   6.259  16.678  0.3438  0.3147  0.6875
19242TIP3    H179141   3.608   6.191  16.729 -0.2122 -1.9480 -1.6369
19242TIP3    H279142   3.471   6.247  16.698  0.3662  1.9378  1.9495
19243TIP3   OH279143   0.628   1.330  16.720  0.4026  1.0621  0.0826
19243TIP3    H179144   0.572   1.348  16.645 -1.6882 -0.7424  1.0915
19243TIP3    H279145   0.581   1.263  16.770  2.3903  1.1338  2.2497
19244TIP3   OH279146   5.960   2.854   2.311 -0.0239  0.0171 -0.0602
19244TIP3    H179147   6.019   2.784   2.282  0.2453 -0.8431  2.3105
19244TIP3    H279148   5.874   2.813   2.313  0.2355 -0.5457  1.9947
19245TIP3   OH279149   4.708   5.186   1.151  0.3367 -0.3606  0.1848
19245TIP3    H179150   4.614   5.184   1.165 -0.3183  2.0124 -2.9029
19245TIP3    H279151   4.727   5.103   1.106 -0.9852  0.5382 -2.2152
19246TIP3   OH279152   4.438   5.194   4.537 -0.6640 -0.3137 -0.2110
19246TIP3    H179153   4.385   5.117   4.557 -0.7225 -0.2833 -0.2469
19246TIP3    H279154   4.509   5.193   4.600 -0.2322 -0.8261 -0.6997
19247TIP3   OH279155   0.925   0.863   0.147  0.1958 -0.3413  0.0723
19247TIP3    H179156   0.841   0.880   0.190 -0.6306 -0.9092 -1.2410
19247TIP3    H279157   0.925   0.769   0.131  1.2461 -0.4010  0.3506
19248TIP3   OH279158   1.548   3.259   5.802  0.2332  0.6744 -0.6548
19248TIP3    H179159   1.636   3.281   5.833  0.2393 -1.2767  0.8576
19248TIP3    H279160   1.491   3.279   5.875 -0.5586  1.4857 -1.4662
19249TIP3   OH279161   2.092   0.431  14.882 -0.5686 -0.2831  0.4237
19249TIP3    H179162   2.058   0.518  14.862 -0.9947 -0.4956  0.1894
19249TIP3    H279163   2.110   0.432  14.976 -0.7811 -0.0146  0.4610
19250TIP3   OH279164   4.520   1.971  16.322 -0.0003  0.0218  0.0072
19250TIP3    H179165   4.464   1.904  16.360  0.2834 -0.8170 -1.0131
19250TIP3    H279166   4.460   2.029  16.275 -0.5273  1.8299  2.6604
19251TIP3   OH279167   1.171   2.809   1.520 -0.2578  0.5837 -0.1602
19251TIP3    H179168   1.130   2.723   1.515 -3.3336  1.9051  0.1277
19251TIP3    H279169   1.188   2.823   1.613 -0.1434  0.4723 -0.1639
19252TIP3   OH279170   1.962   0.325   2.023 -0.2003  0.0074 -0.5432
19252TIP3    H179171   1.897   0.264   1.989  0.5584 -0.6890 -0.7966
19252TIP3    H279172   1.912   0.388   2.075 -1.2509  0.4542 -2.0503
19253TIP3   OH279173   5.474   1.210   0.723 -0.3904  0.0182 -0.9276
19253TIP3    H179174   5.550   1.236   0.671  0.4251 -1.2037 -0.3828
19253TIP3    H279175   5.507   1.146   0.785 -1.4845  0.9180  0.6736
19254TIP3   OH279176   3.840   2.565   6.221  0.0770  0.1582 -0.0868
19254TIP3    H179177   3.815   2.548   6.312 -1.1156 -1.9683 -0.7374
19254TIP3    H279178   3.935   2.582   6.225 -0.0015  0.3979  1.5533
19255TIP3   OH279179   6.623   1.418   2.348  0.4641 -0.4166  0.0505
19255TIP3    H179180   6.629   1.513   2.340 -1.0642 -0.2501  0.5822
19255TIP3    H279181   6.637   1.385   2.259 -0.6732  0.4169 -0.4509
19256TIP3   OH279182   1.000   3.496  13.858  0.3617 -0.5041  0.0382
19256TIP3    H179183   1.022   3.540  13.776  0.6819 -0.3583  0.2009
19256TIP3    H279184   1.045   3.547  13.926 -0.1327 -0.4514  0.3366
19257TIP3   OH279185   0.152   0.122   0.383 -0.0709  0.4803  0.2216
19257TIP3    H179186   0.066   0.133   0.341  0.3669 -0.8507 -1.1273
19257TIP3    H279187   0.163   0.027   0.389 -0.0276  0.5951  3.3199
19258TIP3   OH279188   1.335   6.761   2.308  0.1026  0.2518 -0.2013
19258TIP3    H179189   1.365   6.670   2.308  0.6962  0.4353 -0.9169
19258TIP3    H279190   1.322   6.782   2.216 -0.4285  0.7672 -0.0138
19259TIP3   OH279191   6.316   6.351  11.242 -0.2548 -0.2662 -0.0340
19259TIP3    H179192   6.264   6.429  11.258  1.2241  0.5794  0.9663
19259TIP3    H279193   6.252   6.283  11.222 -1.6930  0.8342  0.6160
19260TIP3   OH279194   3.859   6.251  11.613 -0.3658  0.4203  0.1254
19260TIP3    H179195   3.877   6.194  11.688  3.4202  0.2309 -0.7270
19260TIP3    H279196   3.888   6.338  11.641  0.5671  0.4540 -0.8776
19261TIP3   OH279197   3.293   1.786  15.146  0.4490  0.2765  0.4584
19261TIP3    H179198   3.229   1.715  15.153 -0.9446  1.6334  2.7342
19261TIP3    H279199   3.243   1.859  15.109  1.7800  0.2379 -1.5567
19262TIP3   OH279200   4.793   2.693  11.347  0.3125 -0.4038  0.4592
19262TIP3    H179201   4.869   2.695  11.290  0.1267 -0.3077  0.2126
19262TIP3    H279202   4.721   2.724  11.292 -0.0431 -1.1767  0.4726
19263TIP3   OH279203   5.573   5.463  15.661 -0.5212 -0.6056 -0.3335
19263TIP3    H179204   5.583   5.520  15.738  0.1048 -1.4828  0.2470
19263TIP3    H279205   5.572   5.374  15.697  1.0144 -1.1033 -1.4349
19264TIP3   OH279206   5.706   4.716   1.282 -0.0125  0.0418 -0.1250
19264TIP3    H179207   5.615   4.689   1.281 -0.1981  0.6480 -0.0065
19264TIP3    H279208   5.755   4.634   1.290 -0.5464 -0.2800 -0.0874
19265TIP3   OH279209   1.271   5.379  13.975 -0.3810  0.0065  0.7811
19265TIP3    H179210   1.222   5.461  13.970 -0.3475 -0.0453 -0.9753
19265TIP3    H279211   1.203   5.311  13.969 -0.2080 -0.0675 -0.5482
19266TIP3   OH279212   1.660   3.173   2.229 -0.0356 -0.0032  0.2501
19266TIP3    H179213   1.653   3.256   2.182 -0.2888  0.5514  1.2203
19266TIP3    H279214   1.752   3.149   2.223 -0.0616  0.0729 -0.4869
19267TIP3   OH279215   6.627   3.763  15.833 -0.0354 -0.6775  0.1358
19267TIP3    H179216   6.693   3.730  15.772 -0.9177  0.4798 -1.5382
19267TIP3    H279217   6.665   3.844  15.868  0.5082 -1.3875  1.2447
19268TIP3   OH279218   0.091   0.130  16.174 -0.1187  0.4664 -0.4767
19268TIP3    H179219   0.091   0.194  16.245 -0.7990  0.4715 -0.4711
19268TIP3    H279220   0.175   0.142  16.130  0.9144 -0.4612  1.1505
19269TIP3   OH279221   4.985   6.158   3.428  0.2399  0.1869  0.5191
19269TIP3    H179222   5.074   6.156   3.392 -0.3204  0.5648 -0.9536
19269TIP3    H279223   4.957   6.249   3.415 -0.8495 -0.2498 -0.2998
19270TIP3   OH279224   3.745   4.292  13.832  0.2667  0.4830  0.0424
19270TIP3    H179225   3.688   4.308  13.907 -1.7479 -2.7834 -0.6140
19270TIP3    H279226   3.691   4.311  13.755 -0.3202 -3.0458 -0.6051
19271TIP3   OH279227   4.319   5.318  15.291 -0.0617 -0.2824  0.0920
19271TIP3    H179228   4.252   5.321  15.360 -1.6461 -0.3959 -1.3908
19271TIP3    H279229   4.376   5.245  15.317 -0.7591 -0.4816  1.1590
19272TIP3   OH279230   5.131   2.743  10.843 -0.2592  0.1531  0.1409
19272TIP3    H179231   5.131   2.836  10.866 -1.1955  0.4264 -0.8957
19272TIP3    H279232   5.171   2.700  10.919 -0.8533  1.2818  1.1281
19273TIP3   OH279233   1.997   5.280   4.212 -0.2484  0.4297 -0.6742
19273TIP3    H179234   2.019   5.249   4.124  0.3332  0.9639 -0.7256
19273TIP3    H279235   1.902   5.280   4.215 -0.3800 -3.7588  0.1762
19274TIP3   OH279236   1.991   2.990   2.053 -0.4987 -0.4297 -0.0107
19274TIP3    H179237   1.969   3.045   1.978  4.2020  0.7259 -0.8684
19274TIP3    H279238   1.973   3.045   2.129  0.0848  0.6933 -0.6525
19275TIP3   OH279239   3.333   2.902  11.116 -0.0481  0.0582  0.5125
19275TIP3    H179240   3.349   2.880  11.024 -1.5007 -0.2898  0.3337
19275TIP3    H279241   3.252   2.858  11.138  0.4439 -0.1238  2.0766
19276TIP3   OH279242   0.979   3.083   3.870  0.9800  0.0571  0.1067
19276TIP3    H179243   1.025   3.120   3.795  2.0142 -0.2885  0.5370
19276TIP3    H279244   1.047   3.074   3.937  0.3867 -0.9660  0.6006
19277TIP3   OH279245   5.468   5.625   3.081 -1.0059  0.5675 -0.5679
19277TIP3    H179246   5.395   5.602   3.023 -0.4781  1.6606 -1.7244
19277TIP3    H279247   5.467   5.720   3.084 -1.1204  0.5306  1.4149
19278TIP3   OH279248   2.075   1.857  15.723 -0.6539  0.6072 -0.2801
19278TIP3    H179249   2.090   1.813  15.639 -1.5178 -2.0482  0.8404
19278TIP3    H279250   2.150   1.917  15.732 -0.0004  0.2174 -2.4433
19279TIP3   OH279251   2.676   0.968   5.961 -0.3454  0.5421 -0.7711
19279TIP3    H179252   2.718   1.035   6.015  0.2348  0.2939 -0.9010
19279TIP3    H279253   2.601   0.939   6.012  0.1586  0.3580 -0.1249
19280TIP3   OH279254   3.767   1.488  11.715  0.1955 -0.0643 -0.2752
19280TIP3    H179255   3.682   1.510  11.752  0.0505  1.2348 -1.3121
19280TIP3    H279256   3.751   1.410  11.663 -0.7301  1.0180 -1.6846
19281TIP3   OH279257   5.276   6.588   4.213  0.5899 -0.1949 -0.1926
19281TIP3    H179258   5.287   6.645   4.137 -0.1084 -0.5961 -0.6039
19281TIP3    H279259   5.270   6.500   4.176 -1.7784 -0.2284  0.1344
19282TIP3   OH279260   0.203   1.707  15.165  0.5363 -0.5472  0.8555
19282TIP3    H179261   0.127   1.650  15.151  1.1146 -1.2556  0.5799
19282TIP3    H279262   0.207   1.761  15.087  0.8338 -1.1150  0.4724
19283TIP3   OH279263   3.677   6.316   1.492  0.0838  0.0331  0.2393
19283TIP3    H179264   3.660   6.240   1.548 -0.6217  0.1640  0.2117
19283TIP3    H279265   3.739   6.368   1.542  0.1930 -0.3203  0.4792
19284TIP3   OH279266   1.570   5.522   0.105 -0.1791 -0.2274 -0.8807
19284TIP3    H179267   1.485   5.566   0.100  0.0398  0.2327 -0.6034
19284TIP3    H279268   1.628   5.574   0.050  0.7766  1.4810  1.5677
19285TIP3   OH279269   1.591   6.444  12.818 -0.3480 -0.4174  0.2950
19285TIP3    H179270   1.645   6.513  12.858  1.2280  0.9098 -3.6015
19285TIP3    H279271   1.645   6.365  12.822 -0.8569 -0.7231  1.9752
19286TIP3   OH279272   6.684   6.547  12.779 -0.7649  0.4144 -0.3714
19286TIP3    H179273   6.662   6.596  12.700  0.1500 -0.1294 -0.9797
19286TIP3    H279274   6.780   6.546  12.781 -0.7202 -1.8882 -0.7483
19287TIP3   OH279275   3.718   4.846  16.954  0.0762  0.1236  0.1934
19287TIP3    H179276   3.790   4.905  16.933 -0.2327  0.2084 -0.6650
19287TIP3    H279277   3.742   4.807  17.039  0.0113  1.9040  1.0712
19288TIP3   OH279278   2.218   4.029   4.859 -0.8899  0.5654 -0.1998
19288TIP3    H179279   2.181   4.040   4.771 -0.1838 -2.8490 -1.0399
19288TIP3    H279280   2.141   4.028   4.917 -1.5260  0.8411 -1.0144
19289TIP3   OH279281   6.157   1.416   3.711 -0.1206  0.7606  0.0522
19289TIP3    H179282   6.225   1.473   3.747  0.1936  1.0084 -0.9022
19289TIP3    H279283   6.082   1.475   3.700 -0.5868  0.4340  1.3319
19290TIP3   OH279284   5.353   1.798   4.745  0.0161  0.3736 -0.5162
19290TIP3    H179285   5.395   1.848   4.675  1.0993 -0.9865 -0.8665
19290TIP3    H279286   5.321   1.865   4.806  2.0300  1.4989 -0.6122
19291TIP3   OH279287   5.648   0.074   2.623 -0.1240  0.4954 -0.6865
19291TIP3    H179288   5.663   0.168   2.620  1.0548  0.3641  0.1888
19291TIP3    H279289   5.729   0.038   2.659 -1.7194 -0.5619  2.1563
19292TIP3   OH279290   2.717   2.625   2.633 -0.3984 -0.9776  0.6142
19292TIP3    H179291   2.636   2.644   2.586  0.2151  0.7878  0.1972
19292TIP3    H279292   2.776   2.589   2.567 -0.4954 -1.2737  0.6876
19293TIP3   OH279293   1.772   3.489   4.765  1.0571 -0.6403 -0.0331
19293TIP3    H179294   1.758   3.438   4.685 -0.5925 -1.1190  0.5391
19293TIP3    H279295   1.740   3.433   4.836 -0.1571  0.9039  0.6809
19294TIP3   OH279296   5.053   6.023   2.867 -0.4692  0.3065 -0.1087
19294TIP3    H179297   5.001   6.077   2.808 -0.2588 -0.3722 -0.9396
19294TIP3    H279298   5.143   6.054   2.854 -0.6652  1.7197  1.5872
19295TIP3   OH279299   5.330   3.381   2.812 -0.0116  0.2049 -0.5292
19295TIP3    H179300   5.325   3.295   2.770 -1.0320  0.0529 -0.1343
19295TIP3    H279301   5.393   3.430   2.759 -1.6364  0.2078 -2.6057
19296TIP3   OH279302   0.548   3.771   1.242  0.4128  0.6387  0.2381
19296TIP3    H179303   0.488   3.820   1.185 -1.1082  0.4276  1.5759
19296TIP3    H279304   0.507   3.776   1.329  0.4297 -2.5431  0.5530
19297TIP3   OH279305   2.007   5.279   3.121 -0.0683  0.1001 -0.4150
19297TIP3    H179306   2.060   5.257   3.197  0.7055  0.9977 -0.6730
19297TIP3    H279307   1.919   5.249   3.143  0.4119 -0.8023  0.2988
19298TIP3   OH279308   0.360   4.740  16.182 -0.0579  0.0824  0.2531
19298TIP3    H179309   0.437   4.784  16.219  0.7248  0.1762 -1.4074
19298TIP3    H279310   0.287   4.796  16.208  0.8258  2.0098 -1.1248
19299TIP3   OH279311   3.483   6.630   3.205  0.0548 -0.3367  0.2262
19299TIP3    H179312   3.404   6.684   3.198 -0.7454 -1.4297  0.5766
19299TIP3    H279313   3.530   6.646   3.123  0.6296  2.0470  0.9480
19300TIP3   OH279314   2.572   1.009  14.027 -0.2508 -0.1861 -0.2332
19300TIP3    H179315   2.484   1.030  14.058 -0.5775 -2.0662  0.2689
19300TIP3    H279316   2.628   1.022  14.103 -0.2934 -0.1833 -0.2025
19301TIP3   OH279317   5.220   0.540   0.310  0.2714  0.1758 -0.5240
19301TIP3    H179318   5.277   0.571   0.240  0.0434  0.5199 -0.5621
19301TIP3    H279319   5.279   0.501   0.374  0.5787  0.8148 -0.4136
19302TIP3   OH279320   2.315   3.036  14.469 -0.7245  0.0472 -0.1334
19302TIP3    H179321   2.377   3.103  14.442 -0.3517  0.2874  1.2439
19302TIP3    H279322   2.254   3.081  14.528 -1.6114 -0.4103 -0.6716
19303TIP3   OH279323   4.595   2.413  11.543  0.4785 -0.3075 -0.1071
19303TIP3    H179324   4.515   2.463  11.527  0.7368  1.1060  2.3948
19303TIP3    H279325   4.662   2.479  11.561  1.0655 -1.4551  2.3823
19304TIP3   OH279326   4.592   1.225  15.848  0.3201  0.0043 -0.4834
19304TIP3    H179327   4.649   1.298  15.824 -0.4411  0.6849 -0.2297
19304TIP3    H279328   4.645   1.171  15.906  0.9521  0.2402 -0.8284
19305TIP3   OH279329   1.023   6.490   0.367  0.2776 -0.1632 -0.1322
19305TIP3    H179330   1.080   6.447   0.303  0.1749 -1.1854  0.4391
19305TIP3    H279331   1.073   6.565   0.397  0.3850  0.2597 -1.3070
19306TIP3   OH279332   6.412   6.229  13.059  0.1196 -0.1619  0.2882
19306TIP3    H179333   6.324   6.190  13.065 -0.0353 -0.0334 -0.8038
19306TIP3    H279334   6.467   6.173  13.113 -0.8133  0.3533  1.8386
19307TIP3   OH279335   0.448   6.403  16.445 -0.0838  0.0737 -0.7116
19307TIP3    H179336   0.431   6.489  16.483  0.3479  0.7542 -2.0139
19307TIP3    H279337   0.521   6.417  16.384  0.5771 -1.3888 -0.3073
19308TIP3   OH279338   3.668   1.526  16.917 -0.6036 -0.2163 -0.8869
19308TIP3    H179339   3.749   1.512  16.967 -2.2028  1.4509  2.4811
19308TIP3    H279340   3.695   1.581  16.844  1.0130  2.6726  1.6655
19309TIP3   OH279341   3.702   0.697  16.506 -0.1755  0.3552  0.6810
19309TIP3    H179342   3.671   0.767  16.563  0.9009 -0.5345  2.4590
19309TIP3    H279343   3.796   0.716  16.495 -0.0879 -0.2598  0.3513
19310TIP3   OH279344   4.929   2.188   2.771  0.4815 -0.4233 -0.2743
19310TIP3    H179345   4.846   2.216   2.734 -0.8015 -2.0289  1.2232
19310TIP3    H279346   4.971   2.269   2.800  0.2301  0.5688 -2.4907
19311TIP3   OH279347   1.448   6.082   4.660  0.4242 -0.1814  0.1456
19311TIP3    H179348   1.391   6.159   4.663 -0.2074 -0.6516  0.6455
19311TIP3    H279349   1.442   6.051   4.570  3.0707  2.0606 -0.9323
19312TIP3   OH279350   0.288   4.030   4.637  0.3191 -0.2625 -0.3876
19312TIP3    H179351   0.252   4.119   4.629  0.7325  0.0092  0.6588
19312TIP3    H279352   0.268   4.005   4.727  0.3599 -1.1739 -0.6278
19313TIP3   OH279353   6.219   6.356  13.442 -0.1812 -0.8968 -0.1613
19313TIP3    H179354   6.273   6.378  13.518 -0.2372  0.8587 -0.5660
19313TIP3    H279355   6.282   6.324  13.376  0.0563 -1.0521  0.1401
19314TIP3   OH279356   5.089   2.554   4.590  0.1985 -0.3121  0.0239
19314TIP3    H179357   5.076   2.642   4.553  2.2707  0.7511  1.6423
19314TIP3    H279358   5.184   2.545   4.599 -0.0728 -1.6829  2.2418
19315TIP3   OH279359   1.351   5.589   1.903  0.2379 -0.3230  0.4995
19315TIP3    H179360   1.274   5.533   1.912 -0.2750  0.1767 -0.5207
19315TIP3    H279361   1.395   5.558   1.824 -0.3771  1.0403 -0.4250
19316TIP3   OH279362   3.133   5.786   2.296 -0.7807 -0.2812  0.2349
19316TIP3    H179363   3.206   5.775   2.235  0.0383  2.1370  0.6960
19316TIP3    H279364   3.128   5.702   2.342 -0.3125 -1.5544 -1.9218
19317TIP3   OH279365   3.974   3.846  12.004 -0.0795  0.5280  0.2391
19317TIP3    H179366   4.055   3.798  12.019  0.1188  0.8890  0.3313
19317TIP3    H279367   3.998   3.938  12.015  0.0106  0.8245 -1.9114
19318TIP3   OH279368   4.121   3.174   5.145 -0.7068  0.4458  0.0874
19318TIP3    H179369   4.191   3.218   5.096 -0.3553  1.3567  1.3730
19318TIP3    H279370   4.167   3.117   5.207 -1.1428 -2.0693 -1.7308
19319TIP3   OH279371   5.148   4.898   0.341 -0.4646 -0.2657  0.0673
19319TIP3    H179372   5.151   4.832   0.272 -0.3754  0.8001 -0.9748
19319TIP3    H279373   5.101   4.972   0.302  0.7559  0.8765  0.6674
19320TIP3   OH279374   0.194   2.144   1.223 -0.4154 -0.2565  0.5629
19320TIP3    H179375   0.243   2.102   1.294  0.2110 -0.0972  0.2363
19320TIP3    H279376   0.206   2.238   1.239 -2.4134 -0.1475  1.7132
19321TIP3   OH279377   2.330   5.671  12.307  0.2029 -0.0382  0.2914
19321TIP3    H179378   2.316   5.663  12.401  0.9939  2.4447  0.6715
19321TIP3    H279379   2.408   5.618  12.290  0.0676 -0.4906  1.0200
19322TIP3   OH279380   4.847   6.115   5.106 -0.0872 -0.0395 -0.3361
19322TIP3    H179381   4.898   6.059   5.047 -0.0449 -0.1163 -0.2279
19322TIP3    H279382   4.757   6.086   5.095 -0.0118 -0.4254  0.0431
19323TIP3   OH279383   0.277   3.581   3.271  0.6766 -0.3014  0.2041
19323TIP3    H179384   0.295   3.559   3.179 -2.1992 -0.9424 -0.3068
19323TIP3    H279385   0.198   3.634   3.268  1.0358  0.4424  2.2933
19324TIP3   OH279386   5.053   2.555   0.660  0.0776 -0.3191  0.3055
19324TIP3    H179387   5.113   2.500   0.712  0.4135  0.1049  0.3703
19324TIP3    H279388   5.098   2.639   0.652  0.4574 -0.6497 -1.4531
19325TIP3   OH279389   5.963   0.427  15.258  0.1632 -0.5371 -0.1667
19325TIP3    H179390   5.872   0.456  15.252  0.0224 -1.1090 -1.0138
19325TIP3    H279391   6.007   0.496  15.308 -0.7917 -0.3982  0.5075
19326TIP3   OH279392   2.058   6.654   6.005  0.5717 -0.3689 -0.0193
19326TIP3    H179393   2.049   6.733   5.951  0.4767 -0.8810 -0.7697
19326TIP3    H279394   2.128   6.676   6.067  1.0752  0.0394 -0.7127
19327TIP3   OH279395   0.756   2.221  12.904 -0.4303 -0.1212 -0.6953
19327TIP3    H179396   0.826   2.285  12.914  1.4424 -1.5440 -3.4588
19327TIP3    H279397   0.800   2.136  12.910 -2.1081 -1.0830 -1.3994
19328TIP3   OH279398   4.415   4.852  13.667 -0.1808 -0.2669 -0.2788
19328TIP3    H179399   4.488   4.913  13.677 -1.2003  0.8224  0.8475
19328TIP3    H279400   4.343   4.906  13.635 -0.6481 -1.2358 -0.9233
19329TIP3   OH279401   5.632   5.431  16.189 -0.4493  0.0930  0.2281
19329TIP3    H179402   5.684   5.380  16.251  0.1955  0.8909  0.3633
19329TIP3    H279403   5.696   5.468  16.128 -1.2047 -2.2767 -2.2053
19330TIP3   OH279404   5.980   1.421  11.830  0.3960  0.4821 -0.9829
19330TIP3    H179405   5.997   1.441  11.922  1.8565 -0.6201 -0.9705
19330TIP3    H279406   5.898   1.373  11.830  0.6256  0.0759 -0.1977
19331TIP3   OH279407   6.257   4.706  14.280 -0.5007 -0.1575 -0.2510
19331TIP3    H179408   6.226   4.694  14.370 -1.1467  1.4503 -0.2200
19331TIP3    H279409   6.325   4.774  14.287 -0.9173  0.3526 -1.0237
19332TIP3   OH279410   3.999   5.395   1.600  0.1464  0.3339  0.5436
19332TIP3    H179411   3.946   5.419   1.524  0.7274 -1.2099 -0.3924
19332TIP3    H279412   3.977   5.460   1.666  0.0984  2.1286 -1.1406
19333TIP3   OH279413   4.376   2.755  17.137 -0.3698 -0.1255  0.1665
19333TIP3    H179414   4.410   2.783  17.222 -0.0558 -0.6591  0.2248
19333TIP3    H279415   4.378   2.833  17.083 -2.3902  0.7040  1.1909
19334TIP3   OH279416   2.848   3.164  12.045 -0.3103  0.1103 -0.0998
19334TIP3    H179417   2.848   3.165  11.949 -1.0369 -0.9763 -0.1282
19334TIP3    H279418   2.934   3.128  12.068  0.4993  1.8206 -0.2790
19335TIP3   OH279419   0.531   2.762   2.940 -0.2539  0.2057  0.0663
19335TIP3    H179420   0.454   2.710   2.963 -1.0669  0.1027 -2.6103
19335TIP3    H279421   0.576   2.711   2.873 -0.0885  2.0915 -1.3353
19336TIP3   OH279422   6.186   1.280  14.140 -0.1387  0.3975 -0.1404
19336TIP3    H179423   6.167   1.248  14.229  4.0879 -1.3129  0.3510
19336TIP3    H279424   6.143   1.217  14.083 -1.4591  0.5246  0.6560
19337TIP3   OH279425   2.677   4.634  12.794  0.3152 -0.2305 -0.0867
19337TIP3    H179426   2.750   4.658  12.851  0.7850 -0.5147 -0.5694
19337TIP3    H279427   2.679   4.698  12.723 -0.3334  0.1851  0.2513
19338TIP3   OH279428   2.215   0.673   1.539 -0.7263  0.3333 -0.4711
19338TIP3    H179429   2.293   0.690   1.487 -0.1440 -2.6884 -0.8066
19338TIP3    H279430   2.163   0.614   1.485 -1.2429 -0.9722  1.3260
19339TIP3   OH279431   0.267   3.605  15.470 -0.0328 -0.2559 -0.1520
19339TIP3    H179432   0.362   3.590  15.477 -0.0670 -0.9963 -1.0549
19339TIP3    H279433   0.234   3.527  15.425 -0.9595  0.3835 -0.6067
19340TIP3   OH279434   5.280   0.960  13.265  1.2474  0.9447  0.6888
19340TIP3    H179435   5.235   1.030  13.217 -1.5038 -1.5129 -0.6417
19340TIP3    H279436   5.270   0.984  13.357  1.0096  2.6188  0.2669
19341TIP3   OH279437   3.210   3.149  12.993 -0.1836  0.0985  0.4815
19341TIP3    H179438   3.287   3.144  13.050 -0.3039  1.2303  0.7727
19341TIP3    H279439   3.158   3.072  13.016  0.6128 -0.4011  0.6429
19342TIP3   OH279440   2.687   6.063   0.683  0.3302  0.5954  0.7824
19342TIP3    H179441   2.609   6.039   0.732 -0.1523  0.4993 -0.0120
19342TIP3    H279442   2.672   6.153   0.655 -1.2551 -0.5568 -2.5710
19343TIP3   OH279443   2.612   2.038  15.293  0.4657 -0.0452  0.2491
19343TIP3    H179444   2.543   2.100  15.269 -0.4294 -0.1446  2.3495
19343TIP3    H279445   2.585   1.955  15.253 -0.5068 -0.0215  0.8319
19344TIP3   OH279446   6.038   4.749  15.734 -0.0120  0.5591 -0.2691
19344TIP3    H179447   5.975   4.780  15.799 -0.3849  1.0039 -0.8291
19344TIP3    H279448   6.110   4.811  15.739 -0.6882  1.4696 -1.2787
19345TIP3   OH279449   0.251   6.649  14.908 -0.0988 -0.6245 -0.1124
19345TIP3    H179450   0.201   6.604  14.977 -0.3863 -0.8541 -0.4700
19345TIP3    H279451   0.187   6.704  14.863  0.1870 -0.0945  0.1119
19346TIP3   OH279452   3.121   4.856  16.779  0.4616 -0.1049 -0.1431
19346TIP3    H179453   3.202   4.805  16.770  0.8672 -0.0497  2.4824
19346TIP3    H279454   3.121   4.914  16.703  2.3162 -0.8741 -0.7918
19347TIP3   OH279455   6.074   5.590   2.989 -0.0885  0.4773  0.1909
19347TIP3    H179456   6.112   5.621   3.071  0.8387  0.5265 -0.2408
19347TIP3    H279457   6.061   5.670   2.937 -0.4026  0.4202  0.1825
19348TIP3   OH279458   4.790   4.704   5.352  0.0125  0.2690  0.0406
19348TIP3    H179459   4.775   4.624   5.301 -0.0633  0.1483  0.2470
19348TIP3    H279460   4.737   4.771   5.308 -0.1140  0.1486  0.0058
19349TIP3   OH279461   1.281   5.556   0.870  0.7891 -0.3994 -0.7706
19349TIP3    H179462   1.305   5.631   0.815 -1.2193  0.7848 -0.1542
19349TIP3    H279463   1.226   5.502   0.813 -0.3101  0.2162 -0.3184
19350TIP3   OH279464   0.175   2.953  15.910 -0.0476 -0.0018  0.0732
19350TIP3    H179465   0.223   2.870  15.911  0.3269  0.2171  0.4801
19350TIP3    H279466   0.139   2.959  15.822  1.7943  0.4759 -0.6754
19351TIP3   OH279467   5.420   4.002   1.065  0.0213  0.0312  0.0034
19351TIP3    H179468   5.344   3.980   1.120  1.0182 -0.8506  1.0976
19351TIP3    H279469   5.385   4.060   0.998 -1.2976  1.0213  1.4700
19352TIP3   OH279470   5.178   4.397   5.498 -0.3562  0.2013 -0.3674
19352TIP3    H179471   5.239   4.458   5.456 -0.9420  0.2751 -1.1355
19352TIP3    H279472   5.097   4.446   5.507 -2.2755 -1.5623 -4.9028
19353TIP3   OH279473   5.763   6.581   4.835  0.0261 -0.0403 -0.1341
19353TIP3    H179474   5.749   6.657   4.777  0.4666 -0.9730 -1.5155
19353TIP3    H279475   5.839   6.537   4.797  0.9468 -0.1658  1.7551
19354TIP3   OH279476   1.706   2.427   0.318 -0.1599  0.1212  0.3245
19354TIP3    H179477   1.728   2.516   0.347 -0.7514  0.3441  0.1185
19354TIP3    H279478   1.617   2.435   0.283 -0.2812 -0.5852  0.4536
19355TIP3   OH279479   3.129   4.561  16.356  0.5056 -0.6162 -0.2423
19355TIP3    H179480   3.072   4.484  16.366 -0.7894  0.3495  0.0646
19355TIP3    H279481   3.200   4.546  16.418 -0.4390 -0.9494  0.7870
19356TIP3   OH279482   4.450   5.973   1.253  0.0121 -0.1071 -0.1708
19356TIP3    H179483   4.532   5.954   1.206  2.1348  3.2556  1.7614
19356TIP3    H279484   4.477   5.984   1.344 -2.7228  0.5834  0.6401
19357TIP3   OH279485   3.110   1.405   3.519  0.1422  0.0379 -0.6720
19357TIP3    H179486   3.121   1.312   3.538 -2.5088 -0.2267 -0.0316
19357TIP3    H279487   3.093   1.408   3.424 -1.4317 -0.3691 -0.4315
19358TIP3   OH279488   5.467   2.756  16.947 -0.2284 -0.2725 -1.0211
19358TIP3    H179489   5.373   2.737  16.952 -0.2186 -0.2281 -0.6294
19358TIP3    H279490   5.490   2.739  16.856 -0.8824  0.9223 -1.4380
19359TIP3   OH279491   5.635   5.314  14.188  0.7189  0.0471 -0.0005
19359TIP3    H179492   5.552   5.341  14.149  0.2933 -0.1554  0.7471
19359TIP3    H279493   5.700   5.332  14.121  0.0668  0.1928 -0.6031
19360TIP3   OH279494   6.542   5.766   4.471  0.2825  0.3122  0.6437
19360TIP3    H179495   6.618   5.711   4.450 -0.6120 -0.9371  0.5336
19360TIP3    H279496   6.523   5.747   4.563 -0.6605 -0.3973  0.3252
19361TIP3   OH279497   6.616   5.728  14.725  0.0966  0.2941 -0.4757
19361TIP3    H179498   6.603   5.806  14.671 -0.8233 -0.4476 -1.3743
19361TIP3    H279499   6.711   5.716  14.726  0.1463  0.2863 -2.0298
19362TIP3   OH279500   4.381   5.482  15.937  0.4714  0.2191 -0.0534
19362TIP3    H179501   4.392   5.400  15.984  0.4802  0.0952 -0.2680
19362TIP3    H279502   4.292   5.510  15.957 -0.5785 -1.2964 -2.2344
19363TIP3   OH279503   0.767   5.750  16.736  0.2663  0.1500  0.1376
19363TIP3    H179504   0.690   5.716  16.692  0.3982  0.6497 -0.4943
19363TIP3    H279505   0.836   5.686  16.719 -0.3959 -1.1692  2.1193
19364TIP3   OH279506   0.294   5.171  15.911  0.0538  0.0577  0.3889
19364TIP3    H179507   0.360   5.131  15.854  1.0214  0.6927  1.0075
19364TIP3    H279508   0.345   5.228  15.969 -0.8247 -0.9077  2.1973
19365TIP3   OH279509   0.838   5.239   2.277  0.5186 -0.6023  0.2507
19365TIP3    H179510   0.884   5.197   2.350  0.0178  0.7764  1.4064
19365TIP3    H279511   0.763   5.281   2.318 -0.3911 -0.7189 -1.2442
19366TIP3   OH279512   1.592   1.509  11.769 -0.1424  0.0031  0.4021
19366TIP3    H179513   1.524   1.537  11.708  0.6540  0.0284 -0.5003
19366TIP3    H279514   1.668   1.563  11.747  0.4041 -0.5499  0.8710
19367TIP3   OH279515   1.824   0.559   1.415  0.0141 -0.6816  0.4459
19367TIP3    H179516   1.846   0.574   1.323  0.5200 -1.3470  0.4603
19367TIP3    H279517   1.863   0.634   1.461 -1.1568  0.2368  0.0113
19368TIP3   OH279518   3.975   2.556   0.531 -0.0870 -0.0820 -0.0762
19368TIP3    H179519   3.893   2.506   0.537  0.4016 -1.4073 -2.6910
19368TIP3    H279520   4.042   2.490   0.512  1.0792  1.2529 -0.8070
19369TIP3   OH279521   2.448   3.881  15.898  0.1418 -0.6174  0.0501
19369TIP3    H179522   2.456   3.966  15.940  0.0636  0.0497 -1.2245
19369TIP3    H279523   2.392   3.897  15.822  2.0882 -1.2518 -1.5990
19370TIP3   OH279524   1.911   4.993  13.926  0.1451 -0.2639  0.3546
19370TIP3    H179525   1.864   4.909  13.934  0.1202 -0.3419 -0.4739
19370TIP3    H279526   1.935   4.998  13.833 -1.2609  1.3920  0.0296
19371TIP3   OH279527   1.508   2.952   2.269  0.2997 -0.2994 -0.1194
19371TIP3    H179528   1.551   3.037   2.268  0.4002 -0.3512 -0.3851
19371TIP3    H279529   1.472   2.941   2.181 -0.1865 -0.2966  0.0766
19372TIP3   OH279530   3.237   5.929   2.546  0.0076 -0.0328 -0.0153
19372TIP3    H179531   3.187   5.996   2.593 -0.8537 -0.0665 -0.8619
19372TIP3    H279532   3.185   5.910   2.468  1.2360 -0.2435 -0.8068
19373TIP3   OH279533   4.423   5.162   1.193 -0.2169 -0.5069  0.7765
19373TIP3    H179534   4.376   5.141   1.113 -0.6631  0.7725  0.6801
19373TIP3    H279535   4.392   5.097   1.257 -0.5149 -0.9818  0.1611
19374TIP3   OH279536   0.603   0.865   3.481 -0.1156  0.2554  0.3375
19374TIP3    H179537   0.698   0.852   3.478 -0.2315 -0.4657 -1.1929
19374TIP3    H279538   0.593   0.957   3.503  0.9292  0.2380  0.9715
19375TIP3   OH279539   6.109   0.906   2.337 -0.1757 -0.0725 -0.5336
19375TIP3    H179540   6.179   0.881   2.397 -0.2867  0.5386 -0.1411
19375TIP3    H279541   6.117   0.844   2.264  1.0540  0.2528 -0.7065
19376TIP3   OH279542   1.073   0.554  17.139 -0.6025  0.1886 -0.8102
19376TIP3    H179543   1.042   0.464  17.150 -0.3193 -0.0044 -1.5294
19376TIP3    H279544   1.134   0.568  17.211 -1.4430  0.1714 -0.0740
19377TIP3   OH279545   0.559   5.105  13.963  0.3080  0.6592  0.8768
19377TIP3    H179546   0.473   5.127  14.000  0.3795  0.1677  1.3452
19377TIP3    H279547   0.578   5.177  13.903 -0.0843  1.1668  1.3471
19378TIP3   OH279548   1.380   3.749  11.984  0.4003  0.2104  0.1538
19378TIP3    H179549   1.334   3.831  12.003 -1.7432 -0.4038 -1.9074
19378TIP3    H279550   1.310   3.685  11.970  1.9365 -1.3181 -0.9967
19379TIP3   OH279551   0.965   4.858  14.031  0.3285 -0.1266 -0.2965
19379TIP3    H179552   0.946   4.873  13.939  1.9088 -0.4059 -0.6964
19379TIP3    H279553   0.886   4.889  14.077 -0.4690  0.0423 -1.7146
19380TIP3   OH279554   0.585   6.748   2.033  0.0977  0.0942 -0.1812
19380TIP3    H179555   0.601   6.757   1.939 -0.4762  1.6976 -0.1562
19380TIP3    H279556   0.493   6.720   2.038  0.1830 -0.1704 -0.1047
19381TIP3   OH279557   2.610   4.133   3.132  0.4675 -0.7424 -0.1695
19381TIP3    H179558   2.539   4.143   3.068 -0.0653 -1.1711  0.3409
19381TIP3    H279559   2.576   4.070   3.196  1.1105 -0.5533  0.3698
19382TIP3   OH279560   1.944   6.297   3.572 -0.2377 -0.9175 -0.6987
19382TIP3    H179561   1.960   6.216   3.524  2.7458  1.3365 -4.0936
19382TIP3    H279562   2.030   6.339   3.576 -1.6949  2.2967  0.4664
19383TIP3   OH279563   6.275   1.247   5.194  0.2587 -0.0665 -0.2723
19383TIP3    H179564   6.295   1.339   5.178 -0.1489 -0.1440 -1.3147
19383TIP3    H279565   6.354   1.200   5.169 -0.2986 -0.1677 -1.9936
19384TIP3   OH279566   6.102   4.026  14.336  0.0325  0.2493  0.1878
19384TIP3    H179567   6.037   4.040  14.405  0.0165 -1.6995  0.6205
19384TIP3    H279568   6.053   3.985  14.265  0.7905 -1.5489  0.6468
19385TIP3   OH279569   4.699   1.200   5.277  0.6915  0.2535  0.5195
19385TIP3    H179570   4.753   1.243   5.210  1.4765 -1.1152  0.2363
19385TIP3    H279571   4.620   1.253   5.282 -0.0266 -0.3654 -2.5231
19386TIP3   OH279572   3.266   6.320   4.831  0.5424 -0.3121 -0.3244
19386TIP3    H179573   3.356   6.311   4.861  0.1954  1.8735  1.6494
19386TIP3    H279574   3.216   6.261   4.887  0.3757  0.9826  0.9513
19387TIP3   OH279575   3.374   0.300  15.814 -0.1388  0.5266  0.6649
19387TIP3    H179576   3.396   0.392  15.806  1.1179  0.2924  1.1865
19387TIP3    H279577   3.278   0.298  15.819 -0.3196  1.6229 -1.3755
19388TIP3   OH279578   0.204   3.757  12.009  0.0847  0.3755 -0.0243
19388TIP3    H179579   0.163   3.824  11.955  0.9761  0.7335 -0.2824
19388TIP3    H279580   0.132   3.719  12.059 -0.3794  1.8896  0.5327
19389TIP3   OH279581   1.889   2.383  16.236  0.0575  0.1489  0.0606
19389TIP3    H179582   1.962   2.401  16.296  2.4051 -0.2610 -2.4854
19389TIP3    H279583   1.858   2.296  16.262  1.1571 -0.1020  0.5987
19390TIP3   OH279584   4.659   5.685  12.638 -0.0169 -0.8932 -0.3872
19390TIP3    H179585   4.646   5.591  12.655  0.5443 -1.1454 -1.2770
19390TIP3    H279586   4.749   5.702  12.666  0.1767 -0.8233 -1.0527
19391TIP3   OH279587   5.734   0.637  15.259  0.1368 -0.3745  0.4755
19391TIP3    H179588   5.708   0.555  15.300 -0.0120 -1.3620 -1.5128
19391TIP3    H279589   5.671   0.701  15.294 -1.8063 -1.7369 -0.3733
19392TIP3   OH279590   6.454   6.355   0.561 -0.7788 -0.4536  0.1505
19392TIP3    H179591   6.395   6.292   0.602  0.4198 -2.2989 -0.8283
19392TIP3    H279592   6.402   6.395   0.491 -1.5167 -0.3975  0.7157
19393TIP3   OH279593   1.057   3.282  14.102 -0.5315 -0.4946 -0.1842
19393TIP3    H179594   1.038   3.305  14.011  1.6810 -2.0658 -1.1471
19393TIP3    H279595   1.130   3.339  14.127 -0.4698 -0.7595  0.2596
19394TIP3   OH279596   4.926   5.026   0.494 -0.3179 -0.0499  0.0231
19394TIP3    H179597   4.957   5.070   0.414  0.2612  2.7517  1.6418
19394TIP3    H279598   5.005   4.988   0.532 -0.0764  0.9498  0.5650
19395TIP3   OH279599   3.209   1.007  16.300  0.0756  0.3076 -0.1924
19395TIP3    H179600   3.193   1.100  16.319  2.1704  0.8707 -0.8963
19395TIP3    H279601   3.268   0.979  16.369  0.4166 -0.1743 -0.6798
19396TIP3   OH279602   1.835   2.419   4.656  0.5179 -0.2924  0.2960
19396TIP3    H179603   1.890   2.353   4.613 -1.5289 -2.0262  0.1365
19396TIP3    H279604   1.840   2.398   4.749  0.0560 -0.5311  0.2695
19397TIP3   OH279605   3.465   6.227  13.649  0.2006  0.0747  0.6424
19397TIP3    H179606   3.428   6.248  13.735  2.6763 -0.7904  2.0045
19397TIP3    H279607   3.480   6.312  13.608 -0.3045  0.5298  1.3721
19398TIP3   OH279608   5.511   3.691  16.258  0.2170 -0.3069 -0.0710
19398TIP3    H179609   5.529   3.617  16.201 -1.3960 -0.2817 -0.6732
19398TIP3    H279610   5.416   3.700  16.256  0.2967  1.0843  0.8824
19399TIP3   OH279611   6.040   0.284   4.076 -0.1656 -0.0747 -0.1981
19399TIP3    H179612   5.993   0.267   3.994  0.6359 -0.1882 -0.6521
19399TIP3    H279613   6.133   0.284   4.050  0.0331  2.5236  0.2048
19400TIP3   OH279614   5.031   0.204  12.276  0.3626 -0.1172 -0.2574
19400TIP3    H179615   4.971   0.227  12.346  0.7931 -1.5414  0.6314
19400TIP3    H279616   5.070   0.287  12.249  0.6754  0.4208  1.6660
19401TIP3   OH279617   6.573   2.351  14.049 -0.4647 -0.4124  0.2882
19401TIP3    H179618   6.482   2.380  14.038 -0.1793  0.3582 -0.1793
19401TIP3    H279619   6.569   2.288  14.120 -1.4911 -1.0173 -0.2735
19402TIP3   OH279620   4.487   5.205  15.058  0.1734  0.0388  0.1688
19402TIP3    H179621   4.486   5.197  15.153  1.1104  1.9489  0.3784
19402TIP3    H279622   4.567   5.254  15.039 -1.2263  1.8209 -1.4076
19403TIP3   OH279623   0.483   4.466   4.161  0.6745 -0.0149 -0.4557
19403TIP3    H179624   0.401   4.514   4.145 -0.5607 -0.9242  2.4524
19403TIP3    H279625   0.550   4.518   4.117 -0.8664  3.3340  0.7694
19404TIP3   OH279626   4.551   1.698   2.062 -0.1533 -0.5327  0.2274
19404TIP3    H179627   4.475   1.756   2.058  0.5019  0.3530  0.2975
19404TIP3    H279628   4.514   1.610   2.069 -1.1935 -0.2521 -1.2553
19405TIP3   OH279629   3.660   3.320  16.414 -0.0597 -0.1769  0.2185
19405TIP3    H179630   3.741   3.371  16.410 -0.3880  0.3980  0.7489
19405TIP3    H279631   3.645   3.306  16.507 -1.3253  0.9557  0.2076
19406TIP3   OH279632   5.007   0.396  17.276 -0.4243 -0.6907 -0.0631
19406TIP3    H179633   4.978   0.342  17.349  0.9258 -1.2028  0.1201
19406TIP3    H279634   4.943   0.379  17.207 -0.5848 -1.7525  0.3272
19407TIP3   OH279635   5.171   1.735  17.273 -0.1915 -0.0617  0.7228
19407TIP3    H179636   5.169   1.644  17.243  0.8351  0.7445 -2.1318
19407TIP3    H279637   5.080   1.763  17.269 -0.1728 -0.1603 -1.3000
19408TIP3   OH279638   3.081   6.174  11.779  0.0704  0.1064 -0.1878
19408TIP3    H179639   3.148   6.154  11.844 -0.0215  0.5846  0.0546
19408TIP3    H279640   3.128   6.216  11.707 -0.0202  0.7716  0.1390
19409TIP3   OH279641   4.857   4.226  13.167  0.5373 -0.4869 -0.4037
19409TIP3    H179642   4.783   4.279  13.195  2.2418  0.0117  3.9543
19409TIP3    H279643   4.818   4.145  13.136 -1.8840  0.5025 -0.1627
19410TIP3   OH279644   6.714   4.623  12.595  0.0957  0.1591  0.5526
19410TIP3    H179645   6.800   4.628  12.637  0.3699  1.5402 -0.1088
19410TIP3    H279646   6.653   4.657  12.660  0.3184  0.9105  0.3818
19411TIP3   OH279647   1.285   5.990  11.255 -0.4782  0.1801 -0.5829
19411TIP3    H179648   1.214   6.007  11.317  1.3642  0.7529  1.5515
19411TIP3    H279649   1.249   6.009  11.169 -2.0164  3.6124  0.6561
19412TIP3   OH279650   2.903   3.760   1.604  0.2694  0.6745 -0.0312
19412TIP3    H179651   2.866   3.843   1.635 -0.0463 -0.1055  1.7854
19412TIP3    H279652   2.997   3.776   1.599  0.3528  0.7877  1.5671
19413TIP3   OH279653   1.594   5.396  11.383  0.2470  0.5650 -0.1551
19413TIP3    H179654   1.548   5.396  11.298  0.0654 -0.4544 -0.0652
19413TIP3    H279655   1.685   5.417  11.360  0.0581  1.0536 -0.5063
19414TIP3   OH279656   4.607   5.242   2.418 -0.1065 -0.2789  0.0488
19414TIP3    H179657   4.580   5.206   2.503 -0.0017 -0.6593 -0.0775
19414TIP3    H279658   4.529   5.285   2.384 -0.7423 -1.8759 -0.5847
19415TIP3   OH279659   0.600   0.161  12.226 -0.5438 -0.4798 -0.5176
19415TIP3    H179660   0.682   0.150  12.177 -0.1739 -1.3605  0.2521
19415TIP3    H279661   0.567   0.246  12.199  0.5402 -0.1852 -0.9845
19416TIP3   OH279662   3.863   3.049  13.081 -0.6041 -0.0235  0.3429
19416TIP3    H179663   3.807   3.086  13.013 -1.3745 -0.7357  0.5809
19416TIP3    H279664   3.828   3.085  13.163 -0.3738 -0.0460  0.4524
19417TIP3   OH279665   1.879   6.478  16.631  0.7104  0.6472 -0.2346
19417TIP3    H179666   1.871   6.536  16.556  1.2208  2.3798  0.9915
19417TIP3    H279667   1.959   6.505  16.675  1.6120 -1.7701 -0.2084
19418TIP3   OH279668   6.081   1.055   4.211  0.2489  0.4171 -0.1024
19418TIP3    H179669   5.993   1.070   4.244 -0.1887 -1.1308 -0.4700
19418TIP3    H279670   6.077   0.967   4.172  1.9470  0.3260 -0.1379
19419TIP3   OH279671   5.153   5.600   4.068 -0.0515 -0.3788  0.2041
19419TIP3    H179672   5.169   5.511   4.035  5.6660  0.1579  0.5958
19419TIP3    H279673   5.155   5.591   4.163 -1.7720 -0.0101  0.3067
19420TIP3   OH279674   0.304   6.156  14.678  0.3526  0.3699 -0.3384
19420TIP3    H179675   0.213   6.147  14.708  1.4780  0.0207  3.4658
19420TIP3    H279676   0.338   6.067  14.677  1.0595  0.6312 -0.2485
19421TIP3   OH279677   5.484   2.027   0.116 -0.3247 -0.0245 -0.2622
19421TIP3    H179678   5.550   1.959   0.106 -0.1168  0.2279 -0.6046
19421TIP3    H279679   5.520   2.103   0.071 -0.9181  0.0700 -0.5908
19422TIP3   OH279680   3.281   6.598   4.407  0.3534  0.7019  0.7477
19422TIP3    H179681   3.191   6.623   4.388  0.5108 -0.0468 -1.1662
19422TIP3    H279682   3.275   6.548   4.489 -0.8544  1.2646  1.0229
19423TIP3   OH279683   3.142   3.448  13.048  0.0417 -0.4908 -0.0553
19423TIP3    H179684   3.181   3.518  13.100 -1.1169  0.1541 -0.0301
19423TIP3    H279685   3.192   3.449  12.966  0.6354 -0.2596  0.3012
19424TIP3   OH279686   0.146   2.949   1.059 -0.2017  0.1059 -0.0154
19424TIP3    H179687   0.076   2.945   1.124 -2.5618 -1.3793 -2.4476
19424TIP3    H279688   0.196   2.868   1.073 -0.1842  0.1965  0.4607
19425TIP3   OH279689   2.166   0.308   4.286 -0.4602  0.4248  0.2353
19425TIP3    H179690   2.238   0.364   4.259  1.2175 -2.9787 -3.3441
19425TIP3    H279691   2.098   0.320   4.219 -0.0969 -1.5339 -0.5772
19426TIP3   OH279692   2.919   6.346   2.306 -0.1613 -0.4024 -0.3678
19426TIP3    H179693   2.893   6.281   2.371 -1.2947  1.2351  0.9328
19426TIP3    H279694   2.836   6.385   2.278  0.5204  1.0224 -0.4868
19427TIP3   OH279695   3.359   5.664  11.040 -0.4912  0.0939  0.1095
19427TIP3    H179696   3.451   5.676  11.016 -0.5251  0.9916  0.3697
19427TIP3    H279697   3.311   5.680  10.959 -0.4325 -0.1632  0.0229
19428TIP3   OH279698   5.854   4.036  10.896  0.4634  0.0888 -0.2118
19428TIP3    H179699   5.903   3.984  10.959  0.4213  0.6549  0.2969
19428TIP3    H279700   5.791   3.975  10.858  3.3544 -1.4979 -2.9975
19429TIP3   OH279701   1.018   3.949   5.045  0.4428  0.1449 -0.1764
19429TIP3    H179702   1.016   4.036   5.005  0.2894  1.1126  1.8607
19429TIP3    H279703   0.932   3.939   5.086  1.4928  0.3493  2.2328
19430TIP3   OH279704   4.179   6.608  15.638  0.2387  0.1697  0.2242
19430TIP3    H179705   4.213   6.519  15.645 -0.3385 -0.0128  0.8229
19430TIP3    H279706   4.111   6.603  15.570  2.0827  0.7667 -1.7751
19431TIP3   OH279707   5.544   6.313  13.735 -1.2573 -0.3904 -0.1086
19431TIP3    H179708   5.508   6.309  13.646  2.1447 -2.4638 -1.5687
19431TIP3    H279709   5.568   6.222  13.755 -0.5926  0.2653  2.3723
19432TIP3   OH279710   2.804   1.331  11.077  0.0375 -0.2663  0.7322
19432TIP3    H179711   2.735   1.266  11.081 -0.2430  0.0078  0.4095
19432TIP3    H279712   2.787   1.389  11.152 -1.0268  0.7241 -0.2314
19433TIP3   OH279713   5.254   4.161   4.295 -0.1018  0.2324  0.3795
19433TIP3    H179714   5.207   4.171   4.211  2.3952  1.2056 -0.9890
19433TIP3    H279715   5.231   4.073   4.324 -1.0769 -0.1141 -1.2977
19434TIP3   OH279716   1.933   2.725   1.385  0.3205  0.0372 -0.0853
19434TIP3    H179717   1.868   2.739   1.316  0.5528  1.1925 -0.1027
19434TIP3    H279718   1.891   2.758   1.464  0.3419 -0.5782  0.1865
19435TIP3   OH279719   6.454   5.155  13.741  0.1267 -0.1543 -0.0108
19435TIP3    H179720   6.536   5.199  13.761  0.4036 -1.1442  1.2284
19435TIP3    H279721   6.420   5.199  13.663 -0.3586  3.2017  1.9259
19436TIP3   OH279722   3.944   6.113  17.144  0.1589  0.5890  0.2384
19436TIP3    H179723   3.909   6.153  17.224 -2.8315 -1.3576  0.0627
19436TIP3    H279724   3.934   6.181  17.078  2.9628  2.3453  1.4526
19437TIP3   OH279725   2.174   0.557  13.695 -0.4692 -0.1944  0.1815
19437TIP3    H179726   2.106   0.491  13.691 -1.5621  0.9066 -0.1175
19437TIP3    H279727   2.222   0.547  13.613  1.6165 -2.8428  1.5957
19438TIP3   OH279728   5.422   5.322  10.709  0.0022  0.7041  0.6297
19438TIP3    H179729   5.377   5.241  10.687  0.8163 -0.1863  2.0597
19438TIP3    H279730   5.370   5.391  10.667 -0.9807 -0.5070 -0.2049
19439TIP3   OH279731   0.878   4.370   3.248  0.4910 -0.3744 -0.2094
19439TIP3    H179732   0.892   4.277   3.228 -0.7872 -0.1819 -2.3324
19439TIP3    H279733   0.904   4.416   3.169  2.1537  1.2470  1.1826
19440TIP3   OH279734   0.434   6.039  15.478 -0.4655 -0.0808 -0.5937
19440TIP3    H179735   0.490   6.073  15.548 -2.3811  2.3516 -0.0977
19440TIP3    H279736   0.480   6.062  15.397  0.7461 -1.0027 -0.1858
19441TIP3   OH279737   3.945   4.169  16.812 -0.7100  0.1250  0.1088
19441TIP3    H179738   4.005   4.144  16.882 -1.4855  1.4594  1.2957
19441TIP3    H279739   3.978   4.253  16.781 -0.1334 -0.6382 -1.4699
19442TIP3   OH279740   0.362   5.341  17.252  0.4114 -0.3691 -0.7822
19442TIP3    H179741   0.370   5.405  17.182 -0.6220  0.6490  0.0018
19442TIP3    H279742   0.373   5.256  17.208  0.9137  0.2935 -1.9720
19443TIP3   OH279743   3.862   5.518  16.547  0.5067 -0.3838 -0.0746
19443TIP3    H179744   3.799   5.476  16.606 -0.0430  1.1324  0.4543
19443TIP3    H279745   3.861   5.463  16.468 -0.7636 -0.9158  0.2877
19444TIP3   OH279746   3.186   3.266  17.060  0.2092 -0.0721 -0.8875
19444TIP3    H179747   3.177   3.253  17.155  0.9808 -0.4502 -0.8627
19444TIP3    H279748   3.109   3.318  17.036 -0.5702 -0.8874 -0.2312
19445TIP3   OH279749   4.849   6.282   1.727  0.4178 -0.1431  0.2637
19445TIP3    H179750   4.838   6.369   1.765 -0.3482  0.5480 -1.4089
19445TIP3    H279751   4.810   6.289   1.639  0.1938 -2.2155  0.1361
19446TIP3   OH279752   0.675   5.892   1.952 -0.0328 -0.3595 -0.3778
19446TIP3    H179753   0.686   5.810   2.000  1.1578 -0.3210 -0.5663
19446TIP3    H279754   0.687   5.868   1.860 -0.1555 -0.0584 -0.4737
19447TIP3   OH279755   1.604   0.736  13.265 -0.0402  0.4427 -0.2120
19447TIP3    H179756   1.639   0.651  13.236  2.5304  1.5399 -0.5963
19447TIP3    H279757   1.613   0.793  13.189  1.0546  1.7982  0.8759
19448TIP3   OH279758   6.211   3.942   4.937 -0.3329 -0.0042  0.1910
19448TIP3    H179759   6.295   3.981   4.911 -1.1002  0.4493 -1.8227
19448TIP3    H279760   6.224   3.848   4.927 -0.4421  0.1295 -1.5398
19449TIP3   OH279761   2.888   4.249  14.268  0.4307  0.2176 -0.2380
19449TIP3    H179762   2.832   4.321  14.240 -0.9502 -0.0925  1.5395
19449TIP3    H279763   2.849   4.171  14.230 -0.2288  0.0373  0.7543
19450TIP3   OH279764   1.672   5.130  15.286  0.1639  0.2514  0.4922
19450TIP3    H179765   1.664   5.200  15.351 -0.2579  0.2856  0.4089
19450TIP3    H279766   1.581   5.108  15.265  0.2102  1.8948 -1.8691
19451TIP3   OH279767   5.946   3.760   0.309  0.0362 -0.5714 -0.2347
19451TIP3    H179768   5.980   3.829   0.252  1.7078 -1.0860  0.0628
19451TIP3    H279769   6.019   3.740   0.368 -1.6086 -0.0239  2.1441
19452TIP3   OH279770   6.588   2.459   2.374  0.1191 -0.6028  0.2314
19452TIP3    H179771   6.508   2.490   2.332  0.1833 -0.4233  0.2400
19452TIP3    H279772   6.567   2.371   2.405 -0.0689 -0.5627  0.2159
19453TIP3   OH279773   2.884   6.343  14.208 -0.3612  0.1064 -0.3598
19453TIP3    H179774   2.979   6.331  14.214  0.0655  1.7632 -2.5170
19453TIP3    H279775   2.851   6.257  14.179  0.3094 -0.7647  1.3482
19454TIP3   OH279776   0.077   5.290  16.659  0.0304 -0.3081  0.2450
19454TIP3    H179777   0.026   5.312  16.736 -0.4594  1.0656 -0.4499
19454TIP3    H279778   0.161   5.335  16.673 -0.3127  0.5376 -0.3246
19455TIP3   OH279779   0.106   4.069   5.714 -0.3985  0.1193 -0.4864
19455TIP3    H179780   0.129   4.158   5.688 -1.0461  0.6163  0.5779
19455TIP3    H279781   0.012   4.063   5.694 -0.3563 -0.3299 -0.5518
19456TIP3   OH279782   6.625   0.871   2.661 -0.1958  0.6214  0.2082
19456TIP3    H179783   6.700   0.813   2.678  0.2264  0.7465 -1.1087
19456TIP3    H279784   6.549   0.814   2.667  0.1075  0.2164  0.2541
19457TIP3   OH279785   2.243   4.802  16.787  0.7322 -0.6252  0.2098
19457TIP3    H179786   2.192   4.766  16.715  0.1914  0.4214  0.0442
19457TIP3    H279787   2.333   4.775  16.769  0.3914 -1.5856 -0.0730
19458TIP3   OH279788   0.099   4.821   2.493  0.1784 -0.0820  0.1339
19458TIP3    H179789   0.155   4.842   2.567  1.4984  1.9599 -1.3528
19458TIP3    H279790   0.036   4.893   2.490  0.2863 -0.0242 -0.8506
19459TIP3   OH279791   2.327   6.365   5.659  0.4810 -0.2584 -0.0371
19459TIP3    H179792   2.388   6.317   5.715  1.6543  0.5307 -0.5763
19459TIP3    H279793   2.314   6.449   5.703  0.2000 -0.2260 -0.1800
19460TIP3   OH279794   4.934   4.836   4.527 -0.0446  0.2294  0.0776
19460TIP3    H179795   4.970   4.749   4.509  0.8451  0.9049 -1.6880
19460TIP3    H279796   4.968   4.859   4.613  2.6066  0.1978 -0.8509
19461TIP3   OH279797   1.926   6.465  17.018  0.0536  0.3510  0.2339
19461TIP3    H179798   1.960   6.376  17.008 -1.3155 -0.1992  0.2127
19461TIP3    H279799   1.844   6.454  17.067  0.3730  1.7185  1.1390
19462TIP3   OH279800   1.308   5.252  16.818  0.2435  0.3051  0.1898
19462TIP3    H179801   1.294   5.267  16.911 -0.3213 -0.2198  0.2022
19462TIP3    H279802   1.252   5.177  16.797 -1.7069  2.0268 -1.1276
19463TIP3   OH279803   0.394   2.211  12.067  0.0043  0.3829  0.5463
19463TIP3    H179804   0.489   2.221  12.059 -0.1525  0.4548 -2.1071
19463TIP3    H279805   0.360   2.300  12.059 -0.3444  0.3056  1.0518
19464TIP3   OH279806   5.412   2.264   1.885  0.3901  0.3685  0.3517
19464TIP3    H179807   5.351   2.333   1.908 -1.0078 -1.0694  1.1396
19464TIP3    H279808   5.424   2.214   1.966 -0.4939 -1.6984 -0.7223
19465TIP3   OH279809   1.116   2.886   0.628 -0.1228 -0.4095 -0.1079
19465TIP3    H179810   1.102   2.937   0.707 -3.6643 -0.1612 -0.7208
19465TIP3    H279811   1.167   2.810   0.657  0.5896  0.7628  1.9012
19466TIP3   OH279812   0.289   3.153   0.046  0.5856  0.0274  0.4319
19466TIP3    H179813   0.220   3.147  -0.020  1.3444  1.0898 -0.4883
19466TIP3    H279814   0.350   3.219   0.012  0.4309  1.4760  2.6958
19467TIP3   OH279815   1.354   5.704  13.461 -0.3159 -0.0585  0.2269
19467TIP3    H179816   1.281   5.762  13.437  0.8520  1.0157 -0.8603
19467TIP3    H279817   1.311   5.621  13.485 -1.9155  0.6495 -0.0298
19468TIP3   OH279818   4.600   3.145   3.052 -0.2020 -0.2839 -0.3567
19468TIP3    H179819   4.679   3.195   3.071 -0.3621  0.7252 -2.0854
19468TIP3    H279820   4.537   3.173   3.118  1.1078 -1.8064  1.6385
19469TIP3   OH279821   0.886   6.105  11.813  0.7143  0.0755  0.6242
19469TIP3    H179822   0.856   6.172  11.874 -2.0088  0.5742 -1.0643
19469TIP3    H279823   0.947   6.151  11.756  0.6859  0.4939  0.9281
19470TIP3   OH279824   5.969   5.056   5.204  0.0083  0.3183 -0.0000
19470TIP3    H179825   5.982   5.077   5.297 -1.4677 -1.1133  0.5730
19470TIP3    H279826   6.057   5.058   5.167  0.6599  0.7002  1.4810
19471TIP3   OH279827   4.820   1.836  11.711  0.4606 -0.7029 -0.4675
19471TIP3    H179828   4.755   1.904  11.696  1.7617  1.3087  2.2060
19471TIP3    H279829   4.807   1.808  11.801  1.1577 -2.7098 -0.9342
19472TIP3   OH279830   4.152   2.091  14.889  0.0019 -0.0966 -0.2728
19472TIP3    H179831   4.126   2.041  14.967 -1.6618  0.9666 -0.0780
19472TIP3    H279832   4.147   2.028  14.817 -1.9367 -0.3060 -0.0163
19473TIP3   OH279833   3.895   4.242   1.898 -0.1695 -0.3352 -0.0997
19473TIP3    H179834   3.802   4.219   1.893  0.2159 -1.7978 -1.4323
19473TIP3    H279835   3.923   4.210   1.984 -1.3554  2.2104  1.3479
19474TIP3   OH279836   6.772   2.580   2.941 -0.1344 -0.0458  0.3297
19474TIP3    H179837   6.851   2.634   2.929  0.7476 -1.1452  0.9908
19474TIP3    H279838   6.735   2.573   2.853  1.4577 -0.8971 -0.3141
19475TIP3   OH279839   3.020   1.662   3.841 -0.3360  0.4971 -0.5485
19475TIP3    H179840   3.042   1.603   3.768 -0.4672 -0.8323  0.4480
19475TIP3    H279841   2.926   1.651   3.854  0.2032 -2.3973  2.3094
19476TIP3   OH279842   3.985   5.337  11.008  0.2264 -0.1085  0.0493
19476TIP3    H179843   3.985   5.432  10.996 -3.1300 -0.1913 -1.7095
19476TIP3    H279844   4.064   5.308  10.963  0.0955  1.6926 -1.4894
19477TIP3   OH279845   1.366   6.176   2.988  0.3641  0.1517  0.7341
19477TIP3    H179846   1.451   6.198   3.027  0.7207 -1.3842  0.8675
19477TIP3    H279847   1.337   6.099   3.036 -0.4613 -0.1606 -0.2409
19478TIP3   OH279848   1.143   5.246  11.569 -0.1327 -0.2243  0.1394
19478TIP3    H179849   1.208   5.214  11.506 -0.6820 -1.8572  0.3416
19478TIP3    H279850   1.059   5.227  11.527 -0.5381  1.9976 -0.1920
19479TIP3   OH279851   3.466   6.467   4.205  0.0211 -0.0156 -0.0202
19479TIP3    H179852   3.527   6.540   4.207  0.4853 -0.3033 -1.9933
19479TIP3    H279853   3.404   6.486   4.276 -0.2118  2.6037 -0.8070
19480TIP3   OH279854   4.929   5.181  11.002  0.0884  0.4727 -0.0840
19480TIP3    H179855   4.996   5.242  10.971  0.8957 -0.5404 -0.4197
19480TIP3    H279856   4.953   5.097  10.961 -2.1002  0.3284 -1.1943
19481TIP3   OH279857   0.191   2.869  13.458  0.6152  0.6666 -0.4444
19481TIP3    H179858   0.212   2.907  13.544  1.7789  0.5856 -0.6757
19481TIP3    H279859   0.112   2.817  13.474  0.3724  1.2675  0.4005
19482TIP3   OH279860   6.527   0.423   1.323 -0.2517 -0.1029  0.3295
19482TIP3    H179861   6.551   0.515   1.334 -1.7915  0.6027 -1.5671
19482TIP3    H279862   6.454   0.409   1.383 -1.8882  0.7826 -1.3664
19483TIP3   OH279863   4.058   1.907  14.129 -0.4147 -0.2326 -0.0782
19483TIP3    H179864   4.095   1.995  14.138 -1.7365  0.1661  2.1989
19483TIP3    H279865   4.104   1.855  14.194  0.8697 -1.4772 -1.8972
19484TIP3   OH279866   1.777   2.697   3.518 -0.1631  0.6153  0.2150
19484TIP3    H179867   1.687   2.679   3.545 -0.3963 -1.5672 -1.6988
19484TIP3    H279868   1.819   2.611   3.514  1.9341  1.5457  0.6737
19485TIP3   OH279869   4.873   0.703  14.356 -0.0046 -0.1652  0.5455
19485TIP3    H179870   4.843   0.792  14.376 -0.1741 -0.2825  0.8084
19485TIP3    H279871   4.894   0.665  14.441 -0.8274 -0.7049  0.5129
19486TIP3   OH279872   3.546   6.195   0.145 -0.2167  0.1225 -0.2084
19486TIP3    H179873   3.636   6.220   0.167 -0.4075  1.2058 -0.5767
19486TIP3    H279874   3.494   6.274   0.163 -1.1018 -0.5021  0.0425
19487TIP3   OH279875   2.748   0.744  17.021  0.2139 -0.0557 -0.3731
19487TIP3    H179876   2.664   0.789  17.009 -1.1840 -2.3906  0.0149
19487TIP3    H279877   2.771   0.713  16.933 -1.0971 -2.1937 -0.0580
19488TIP3   OH279878   0.482   3.342  13.162  0.0654 -0.0462  0.1024
19488TIP3    H179879   0.428   3.401  13.110 -0.0381 -0.8995 -0.7670
19488TIP3    H279880   0.523   3.284  13.099  0.9557 -0.2758  0.8669
19489TIP3   OH279881   1.351   0.889   5.325  0.1395 -0.2715  0.1021
19489TIP3    H179882   1.396   0.817   5.281  0.1685 -0.6377  0.7193
19489TIP3    H279883   1.418   0.955   5.339  0.6420 -1.0409  1.5176
19490TIP3   OH279884   4.642   1.804   5.697 -0.3698  0.0705 -0.4555
19490TIP3    H179885   4.668   1.886   5.740 -1.9261 -0.5287  1.7805
19490TIP3    H279886   4.571   1.830   5.637 -0.8924  0.3771  0.2838
19491TIP3   OH279887   3.812   6.237   0.008 -0.2732 -0.3752 -0.5775
19491TIP3    H179888   3.870   6.286   0.067  1.6956 -0.4357 -2.3814
19491TIP3    H279889   3.733   6.291   0.004  1.2290  1.9216 -1.2679
19492TIP3   OH279890   3.025   4.138   1.091  0.3048 -0.4821  0.1284
19492TIP3    H179891   2.950   4.196   1.107  0.6990 -0.3779  1.6677
19492TIP3    H279892   3.003   4.058   1.137 -0.1202 -1.5188 -1.7817
19493TIP3   OH279893   2.902   1.707   2.035  0.1413 -0.4087  0.0433
19493TIP3    H179894   2.854   1.747   2.108 -0.8094 -0.3308 -0.6083
19493TIP3    H279895   2.989   1.691   2.070 -0.3231 -0.4544  1.2319
19494TIP3   OH279896   1.006   0.645   0.931  0.5444  0.1084  0.8802
19494TIP3    H179897   1.056   0.710   0.883 -1.0280 -1.2764 -3.0388
19494TIP3    H279898   1.072   0.584   0.964  1.7430 -0.5453 -2.3353
19495TIP3   OH279899   0.367   0.258  14.753 -0.7487 -0.2651 -0.4235
19495TIP3    H179900   0.410   0.267  14.838 -3.9472  1.8508  1.1545
19495TIP3    H279901   0.364   0.163  14.738 -0.0833 -0.7087  1.7903
19496TIP3   OH279902   2.824   0.008  14.762  0.4766  0.2548  0.2257
19496TIP3    H179903   2.742  -0.038  14.740  1.5637 -1.7336  0.0332
19496TIP3    H279904   2.842   0.063  14.685 -0.4186  0.3289  0.0611
19497TIP3   OH279905   0.170   5.216  13.064  0.1749  0.1638  0.4064
19497TIP3    H179906   0.226   5.282  13.105  0.7670  0.9538 -1.5666
19497TIP3    H279907   0.220   5.135  13.069  0.6410  0.4483  0.3954
19498TIP3   OH279908   6.322   5.539   4.473 -0.1460 -0.2384  1.1303
19498TIP3    H179909   6.269   5.573   4.402 -0.4538 -0.8448  1.0604
19498TIP3    H279910   6.390   5.605   4.487 -0.7032  0.3705  0.9770
19499TIP3   OH279911   3.148   5.456  12.536  0.4188  0.0883  0.0545
19499TIP3    H179912   3.199   5.449  12.456  4.2342 -1.0966  2.3219
19499TIP3    H279913   3.172   5.541  12.574 -2.1948  1.1568 -0.4106
19500TIP3   OH279914   5.255   3.106   2.170 -0.0652  0.7293  0.0502
19500TIP3    H179915   5.182   3.121   2.231 -0.8495  1.9493 -1.1292
19500TIP3    H279916   5.329   3.153   2.208  0.5875 -1.7018  2.0070
19501TIP3   OH279917   3.648   2.546   5.337 -0.2402 -0.0074  0.5045
19501TIP3    H179918   3.627   2.502   5.255  0.0808  2.2603 -0.8942
19501TIP3    H279919   3.611   2.634   5.327  3.1080  1.6538  1.0897
19502TIP3   OH279920   4.404   5.297   3.470 -0.2139  0.1800 -0.1451
19502TIP3    H179921   4.415   5.218   3.523  2.4269 -1.1208 -2.3489
19502TIP3    H279922   4.336   5.274   3.406  0.8690 -0.5293 -1.0675
19503TIP3   OH279923   2.842   0.696  14.712 -0.8416  0.0743 -0.0515
19503TIP3    H179924   2.772   0.650  14.759  0.2224 -2.0637 -0.4388
19503TIP3    H279925   2.892   0.740  14.781 -2.0698  1.0113  0.2960
19504TIP3   OH279926   1.009   5.632  14.205  0.3370 -0.1497 -0.9054
19504TIP3    H179927   1.103   5.622  14.191  0.4125  1.3764 -1.5932
19504TIP3    H279928   0.975   5.542  14.202  2.0186 -0.9882  1.5306
19505TIP3   OH279929   6.556   2.179   3.243 -0.0337 -0.5028 -0.2995
19505TIP3    H179930   6.466   2.150   3.254  0.2841 -1.0353  1.1540
19505TIP3    H279931   6.564   2.199   3.150 -0.5098 -4.2849 -1.2964
19506TIP3   OH279932   2.970   0.950   0.666  0.5451  0.3769  0.1051
19506TIP3    H179933   2.915   1.028   0.657  0.6258  0.2499 -2.1384
19506TIP3    H279934   3.045   0.967   0.609  0.7117 -1.1967 -0.1825
19507TIP3   OH279935   5.771   1.175   6.537  0.0177 -0.1440  0.2982
19507TIP3    H179936   5.833   1.106   6.562 -0.2668  0.1029  1.8199
19507TIP3    H279937   5.789   1.246   6.599 -1.7845 -0.0747  0.8010
19508TIP3   OH279938   3.004   4.231  13.370  0.5129  0.1287  0.0412
19508TIP3    H179939   2.921   4.208  13.411  0.9628 -0.0011  0.8971
19508TIP3    H279940   2.983   4.306  13.313 -0.1284  0.2758  0.4622
19509TIP3   OH279941   0.402   1.643  16.517 -0.8890  0.1903 -0.5554
19509TIP3    H179942   0.456   1.670  16.592 -1.3192  0.0926 -0.2069
19509TIP3    H279943   0.313   1.643  16.551 -1.3997  2.4151 -1.6775
19510TIP3   OH279944   2.630   3.241  15.618 -0.1121  0.4300  0.3026
19510TIP3    H179945   2.617   3.203  15.705 -2.1697 -0.5207 -0.3459
19510TIP3    H279946   2.542   3.261  15.588  0.5419  0.6174 -1.6118
19511TIP3   OH279947   3.999   3.957   4.436 -0.3838  0.3929 -0.1694
19511TIP3    H179948   3.934   4.028   4.436 -0.4237  0.3585  0.4269
19511TIP3    H279949   4.052   3.974   4.358 -0.2406  1.2162  0.0933
19512TIP3   OH279950   6.152   0.889   5.603  0.0982 -0.0175  0.0838
19512TIP3    H179951   6.122   0.976   5.576 -1.5393 -0.5029  0.1906
19512TIP3    H279952   6.237   0.904   5.644  0.9727  1.1884 -2.0459
19513TIP3   OH279953   5.921   0.809   6.315 -0.7302 -0.6063  0.0426
19513TIP3    H179954   5.840   0.847   6.350 -2.6210 -1.2633 -3.2582
19513TIP3    H279955   5.981   0.810   6.389 -4.3043 -1.8884  3.2934
19514TIP3   OH279956   1.428   5.784  17.119  0.1625  0.1391 -0.6307
19514TIP3    H179957   1.460   5.697  17.142 -0.6319 -0.1189 -0.4773
19514TIP3    H279958   1.347   5.793  17.168  1.1405  1.6891  0.8167
19515TIP3   OH279959   3.782   0.128   4.686  0.1468  0.6921 -0.2020
19515TIP3    H179960   3.808   0.150   4.775 -1.8062 -1.7442  1.1065
19515TIP3    H279961   3.713   0.191   4.665 -0.7848  0.0486  0.8391
19516TIP3   OH279962   3.041   2.236   4.206  0.2078  0.1160 -0.7284
19516TIP3    H179963   3.040   2.218   4.112  2.2217  0.0241 -0.7841
19516TIP3    H279964   3.085   2.322   4.213 -0.4455  0.3954  0.0969
19517TIP3   OH279965   1.104   4.208   2.865 -0.1677  0.2418 -0.3374
19517TIP3    H179966   1.148   4.140   2.916 -0.1336 -2.0247 -3.1493
19517TIP3    H279967   1.014   4.177   2.854 -0.7207  1.6491 -0.0672
19518TIP3   OH279968   0.227   2.114   2.476 -0.0678 -0.2145 -0.1304
19518TIP3    H179969   0.163   2.185   2.471  0.8857  0.6240 -1.2481
19518TIP3    H279970   0.180   2.037   2.444 -1.1720 -0.1461  1.2730
19519TIP3   OH279971   4.651   3.857  16.930 -0.5985 -0.0914  0.2344
19519TIP3    H179972   4.688   3.944  16.915 -0.9132 -0.0140 -0.1238
19519TIP3    H279973   4.643   3.850  17.025  0.7246 -0.2792  0.3439
19520TIP3   OH279974   5.014   6.417  12.843  0.1300  0.0509 -0.7796
19520TIP3    H179975   4.983   6.482  12.905 -2.5069 -1.2410 -0.6113
19520TIP3    H279976   4.976   6.334  12.873  0.1243 -0.9037 -3.1522
19521TIP3   OH279977   0.071   1.957   0.879  0.7332 -0.4174 -0.3582
19521TIP3    H179978   0.030   1.974   0.795 -0.3205 -1.0775  0.0024
19521TIP3    H279979   0.107   1.869   0.871 -1.1205 -1.3029  0.5098
19522TIP3   OH279980   5.000   2.899  11.281 -0.2426  0.7754 -0.1749
19522TIP3    H179981   4.955   2.947  11.350 -0.6990  0.8662 -0.5301
19522TIP3    H279982   5.093   2.910  11.300 -0.3685 -0.2696  1.1618
19523TIP3   OH279983   0.033   3.498   4.247  0.2171  0.0469  0.2309
19523TIP3    H179984   0.004   3.524   4.160 -0.4437  1.2458  0.8006
19523TIP3    H279985   0.077   3.414   4.233  1.7475  1.0802 -1.5331
19524TIP3   OH279986   2.444   1.683  17.261  0.1893 -0.6886  0.0987
19524TIP3    H179987   2.383   1.730  17.316  2.7154 -0.9630  3.4772
19524TIP3    H279988   2.454   1.738  17.183 -1.5959  1.1226  1.0618
19525TIP3   OH279989   3.987   3.009   0.177  0.2310 -0.2630 -0.6148
19525TIP3    H179990   3.998   2.945   0.248 -2.8366  0.5700  0.7613
19525TIP3    H279991   4.015   3.092   0.216 -1.4840  0.2010 -0.2701
19526TIP3   OH279992   6.618   4.695  11.235 -0.2243  0.0697  0.4710
19526TIP3    H179993   6.668   4.776  11.242 -1.4766  0.9590 -0.3551
19526TIP3    H279994   6.530   4.719  11.264 -0.4282 -1.1855  0.9173
19527TIP3   OH279995   2.074   4.275  15.790  0.3695 -0.1377 -0.0125
19527TIP3    H179996   2.003   4.261  15.727  1.7075 -0.7964 -1.4139
19527TIP3    H279997   2.037   4.247  15.874 -1.0824 -0.2934 -0.6736
19528TIP3   OH279998   5.167   0.480   3.666 -0.1202  0.4598 -0.3099
19528TIP3    H179999   5.232   0.411   3.654  1.1219  1.5406  0.0779
19528TIP3    H280000   5.096   0.456   3.606  0.6017 -0.7626 -0.7132
19529TIP3   OH280001   3.506   0.428  12.477 -0.5273  0.3759  0.4374
19529TIP3    H180002   3.512   0.502  12.416 -1.9102  1.6056  1.7072
19529TIP3    H280003   3.571   0.449  12.545  0.7221 -0.7854 -0.3414
19530TIP3   OH280004   1.893   1.243   0.805  0.2643  0.4513  0.5091
19530TIP3    H180005   1.822   1.196   0.763  0.2532  0.3341  0.6570
19530TIP3    H280006   1.850   1.311   0.858  0.2651  0.4150  0.5563
19531TIP3   OH280007   6.080   6.369  15.585 -0.0479  0.1562 -0.4661
19531TIP3    H180008   6.081   6.355  15.491 -0.1748  0.5638 -0.5269
19531TIP3    H280009   5.990   6.394  15.606  0.0134  0.2114 -0.2582
19532TIP3   OH280010   1.026   6.097  15.186  0.3764  0.1414  0.3756
19532TIP3    H180011   1.107   6.108  15.236  0.8886 -0.5652 -0.2737
19532TIP3    H280012   0.992   6.012  15.215  0.6814 -0.2771 -0.4648
19533TIP3   OH280013   3.277   3.372  16.406  0.7780  0.4566 -0.3467
19533TIP3    H180014   3.298   3.291  16.358  2.1581  1.0701 -0.8554
19533TIP3    H280015   3.334   3.370  16.483  0.0559  0.4512  0.1920
19534TIP3   OH280016   2.902   1.846   6.399  0.1534 -0.2644  0.4532
19534TIP3    H180017   2.842   1.920   6.390 -1.2455 -0.9039  3.2797
19534TIP3    H280018   2.852   1.770   6.367 -0.3724 -0.6804  2.1317
19535TIP3   OH280019   4.334   1.885   2.045  0.1778  0.0618 -0.5639
19535TIP3    H180020   4.289   1.901   1.962 -0.2372 -0.0581 -0.3639
19535TIP3    H280021   4.390   1.961   2.056 -1.2163  1.0518 -0.0027
19536TIP3   OH280022   2.035   0.439   5.687 -0.0990  0.1812  0.1802
19536TIP3    H180023   2.061   0.439   5.780  0.0657 -0.3794  0.1340
19536TIP3    H280024   1.976   0.364   5.679  3.2734 -2.5590 -1.1033
19537TIP3   OH280025   3.015   0.286   5.212  0.4688  0.1904 -0.1273
19537TIP3    H180026   3.042   0.351   5.148 -1.6934  0.4898 -0.8329
19537TIP3    H280027   3.037   0.202   5.172  1.7629  0.4286  0.0529
19538TIP3   OH280028   3.326   0.994  15.964 -0.4703 -0.4501  0.1131
19538TIP3    H180029   3.380   0.966  16.038  0.7883  1.8293  0.1155
19538TIP3    H280030   3.281   1.073  15.994 -0.8832 -0.1721 -1.1527
19539TIP3   OH280031   1.802   6.558  16.121  0.6644 -0.0675 -0.3324
19539TIP3    H180032   1.819   6.464  16.112 -0.6579 -0.4599  0.8689
19539TIP3    H280033   1.785   6.570  16.214 -1.6742  0.8833 -0.7985
19540TIP3   OH280034   5.829   4.172   1.981  0.7631  0.4479 -0.2834
19540TIP3    H180035   5.890   4.240   1.950 -0.2259  0.6495 -1.8769
19540TIP3    H280036   5.835   4.103   1.916  0.2711 -0.1258  0.2701
19541TIP3   OH280037   6.531   5.824  11.998  0.0603 -0.1465 -0.0728
19541TIP3    H180038   6.463   5.864  12.052  1.0560  1.2566  0.1920
19541TIP3    H280039   6.544   5.886  11.926 -1.8047 -2.3451 -2.4743
19542TIP3   OH280040   3.042   1.661   6.790 -0.3328  0.6017  0.7346
19542TIP3    H180041   3.136   1.670   6.806  0.1262  1.9930 -2.1113
19542TIP3    H280042   3.010   1.751   6.787 -1.5899  0.1705  0.7968
19543TIP3   OH280043   4.733   2.444   4.768  0.4453 -0.1315  0.4090
19543TIP3    H180044   4.818   2.487   4.771  0.1112  0.5377  0.3362
19543TIP3    H280045   4.673   2.504   4.812  0.1830 -1.0157  1.2937
19544TIP3   OH280046   4.742   1.809   0.633  0.1756 -0.9157 -0.1272
19544TIP3    H180047   4.741   1.734   0.693  0.2473 -0.8911 -0.0942
19544TIP3    H280048   4.831   1.844   0.640 -0.0637 -0.3923  0.3991
19545TIP3   OH280049   1.526   1.454   0.900 -0.7728  0.2087 -0.1268
19545TIP3    H180050   1.501   1.369   0.865 -1.3792 -0.2500  1.3145
19545TIP3    H280051   1.621   1.451   0.904 -0.6939  0.2475 -1.5908
19546TIP3   OH280052   4.562   2.409   3.159  0.1125 -0.0680  0.5566
19546TIP3    H180053   4.518   2.480   3.113  1.3540  0.3051 -0.0940
19546TIP3    H280054   4.492   2.347   3.180 -0.6507  0.2368 -0.9424
19547TIP3   OH280055   5.032   6.415   4.002 -0.2960  0.4352 -0.3768
19547TIP3    H180056   5.032   6.389   4.095 -0.4889 -0.2771 -0.5628
19547TIP3    H280057   5.029   6.331   3.955  2.5497  0.6513 -1.0919
19548TIP3   OH280058   3.236   1.380  16.907  0.7471  0.1938  0.1554
19548TIP3    H180059   3.232   1.424  16.992 -0.4256 -0.2645  0.3539
19548TIP3    H280060   3.201   1.444  16.845  2.9253  1.0686 -0.2514
19549TIP3   OH280061   0.267   5.725   2.350 -0.4286  0.1126 -0.4497
19549TIP3    H180062   0.251   5.816   2.325  1.8385  0.8042  0.3985
19549TIP3    H280063   0.235   5.674   2.275 -3.2952  1.4093 -0.2638
19550TIP3   OH280064   0.100   0.770   1.790  0.4509 -0.2801  0.2129
19550TIP3    H180065   0.167   0.716   1.748  1.7007  1.0721  0.3927
19550TIP3    H280066   0.149   0.830   1.846 -1.0430 -0.6002  1.9698
19551TIP3   OH280067   6.544   5.967   0.826 -0.0534 -0.5469 -0.0148
19551TIP3    H180068   6.588   5.994   0.906 -0.5058  0.6573 -0.1421
19551TIP3    H280069   6.538   6.047   0.774 -1.2771 -0.9311 -0.5181
19552TIP3   OH280070   6.683   5.377  13.289 -0.4507 -0.1645  0.3399
19552TIP3    H180071   6.667   5.438  13.217 -0.4622  1.8913  1.9848
19552TIP3    H280072   6.596   5.361  13.326 -0.2470  0.2297  0.9918
19553TIP3   OH280073   6.554   1.148   6.926  0.4896 -0.5414  0.2336
19553TIP3    H180074   6.514   1.096   6.996  1.1555  0.1568  1.1492
19553TIP3    H280075   6.486   1.209   6.899 -0.3536 -1.9316 -0.9548
19554TIP3   OH280076   5.637   0.439   3.043  0.3356  0.3600  0.3196
19554TIP3    H180077   5.638   0.399   3.130 -0.9103  1.8078  1.0328
19554TIP3    H280078   5.711   0.499   3.043  3.4163 -3.0175 -1.4092
19555TIP3   OH280079   1.313   2.047   2.256 -0.5777 -0.3536  0.4424
19555TIP3    H180080   1.357   2.090   2.329 -0.2989 -0.9532  0.6410
19555TIP3    H280081   1.364   1.966   2.242 -1.8343 -1.2578  0.9232
19556TIP3   OH280082   1.764   4.808   3.174  0.2561 -0.3181  0.3039
19556TIP3    H180083   1.843   4.773   3.133  0.0191 -0.4212 -0.0663
19556TIP3    H280084   1.795   4.883   3.226  0.4821  0.1056 -0.4360
19557TIP3   OH280085   3.752   0.600   1.453 -0.3195 -0.2638  0.6623
19557TIP3    H180086   3.841   0.583   1.422  0.1768 -0.7502  2.2509
19557TIP3    H280087   3.704   0.626   1.374  0.5803 -2.4908 -0.7279
19558TIP3   OH280088   6.611   1.643  14.339 -1.1725 -0.4422 -0.2070
19558TIP3    H180089   6.542   1.584  14.308 -0.0079 -2.6029  1.0257
19558TIP3    H280090   6.692   1.594  14.324 -0.2567  0.2922  2.0117
19559TIP3   OH280091   4.851   5.992   0.234  0.1087 -0.3653  0.3976
19559TIP3    H180092   4.887   5.930   0.170  3.1891  0.9381  0.7012
19559TIP3    H280093   4.884   5.962   0.318  2.4668  2.0236  0.4660
19560TIP3   OH280094   6.437   2.338  13.761  0.5828  0.1198  0.3662
19560TIP3    H180095   6.395   2.335  13.848 -0.3435 -0.3142 -0.0746
19560TIP3    H280096   6.517   2.286  13.772  0.0620 -0.6287  0.7614
19561TIP3   OH280097   0.970   0.242  16.279 -0.1426 -0.1536  0.3103
19561TIP3    H180098   0.915   0.320  16.270 -0.6255 -0.4586  0.5767
19561TIP3    H280099   1.048   0.262  16.226  0.4029  1.0900  1.5197
19562TIP3   OH280100   3.335   0.474   0.596 -0.1138  0.0031  0.3187
19562TIP3    H180101   3.397   0.444   0.663 -0.9936  1.9540  2.1318
19562TIP3    H280102   3.287   0.545   0.638 -0.1372  1.9536 -2.6936
19563TIP3   OH280103   3.840   6.055  13.793  0.0635 -0.1400 -0.2721
19563TIP3    H180104   3.821   6.040  13.701  0.2782  0.4823 -0.4213
19563TIP3    H280105   3.919   6.003  13.810  0.3854  0.2385 -0.5990
19564TIP3   OH280106   1.918   1.509  13.812  0.4785  0.2753  0.7203
19564TIP3    H180107   1.834   1.522  13.857 -0.1151  0.0152 -0.2706
19564TIP3    H280108   1.975   1.578  13.846 -0.5335  1.2595  0.4719
19565TIP3   OH280109   0.857   4.861  16.984 -0.1363  0.0239 -0.2234
19565TIP3    H180110   0.911   4.797  16.937 -0.6838 -0.5441 -0.0819
19565TIP3    H280111   0.853   4.829  17.074 -1.0465 -0.1781 -0.3205
19566TIP3   OH280112   1.652   6.423   3.516 -0.2584 -0.4210 -0.1972
19566TIP3    H180113   1.716   6.354   3.499  2.2592  1.4077  1.2611
19566TIP3    H280114   1.575   6.376   3.548  1.5307 -2.5719  1.2743
19567TIP3   OH280115   1.700   6.435  15.826  0.2504 -0.1827 -0.0281
19567TIP3    H180116   1.792   6.422  15.847 -0.3669 -0.9832  2.4672
19567TIP3    H280117   1.682   6.526  15.852 -0.2026 -0.7825  1.9263
19568TIP3   OH280118   3.602   2.920  11.436 -0.1033 -0.2554  0.3755
19568TIP3    H180119   3.641   2.919  11.524  1.6420 -0.7642 -0.3587
19568TIP3    H280120   3.555   2.836  11.430 -0.5708 -0.0420  0.9562
19569TIP3   OH280121   5.664   1.485   0.648  0.5520 -0.4279  0.3165
19569TIP3    H180122   5.599   1.424   0.615 -0.8388  1.2045 -0.1184
19569TIP3    H280123   5.673   1.550   0.579 -0.7780  1.8604  2.1362
19570TIP3   OH280124   6.306   5.949  14.512  0.1889 -0.2447 -0.0164
19570TIP3    H180125   6.281   5.886  14.444 -1.3175 -0.6473  0.8871
19570TIP3    H280126   6.274   6.033  14.480  1.1637 -0.1034 -0.6698
19571TIP3   OH280127   5.050   4.585   4.808  0.0416  0.4086  0.4848
19571TIP3    H180128   5.063   4.637   4.729 -2.3081  0.4735  0.0728
19571TIP3    H280129   5.083   4.498   4.785 -1.2023  0.2445 -0.8565
19572TIP3   OH280130   5.026   0.515  12.809  0.0449  0.7500 -0.4613
19572TIP3    H180131   5.034   0.429  12.768  1.0914  1.0077 -0.8325
19572TIP3    H280132   4.934   0.521  12.835 -0.4627  0.2223 -2.0151
19573TIP3   OH280133   6.499   5.632  14.955  0.5421  0.4007 -0.1241
19573TIP3    H180134   6.514   5.707  14.897  0.7207  2.1639  2.0449
19573TIP3    H280135   6.414   5.649  14.995  0.5076 -0.6609  0.2897
19574TIP3   OH280136   3.657   5.434  16.899 -0.4128  0.0702 -0.3689
19574TIP3    H180137   3.573   5.472  16.873 -0.2699  0.2228 -0.6013
19574TIP3    H280138   3.722   5.499  16.873 -0.0907 -0.7195 -1.5698
19575TIP3   OH280139   0.792   5.581   5.259 -0.1045 -0.6361 -0.3719
19575TIP3    H180140   0.815   5.631   5.180 -2.1073  0.5439 -0.2863
19575TIP3    H280141   0.766   5.495   5.226 -0.4990 -0.2988 -0.9645
19576TIP3   OH280142   1.008   0.763   4.097  0.4501 -0.7315 -0.1513
19576TIP3    H180143   0.951   0.703   4.144  2.3477 -1.2528  1.6517
19576TIP3    H280144   1.029   0.832   4.161  0.2324  0.5528 -1.4165
19577TIP3   OH280145   6.587   6.032   0.187  0.0145 -0.1204  0.3702
19577TIP3    H180146   6.649   6.017   0.115 -1.1842 -3.4399 -0.1429
19577TIP3    H280147   6.638   6.078   0.253  2.1574 -0.0293 -1.2217
19578TIP3   OH280148   4.588   0.400  11.826  0.6591  0.1296 -0.2959
19578TIP3    H180149   4.613   0.314  11.861  1.6908  1.0448  1.3559
19578TIP3    H280150   4.635   0.407  11.743 -0.1940 -1.2607 -0.9447
19579TIP3   OH280151   1.999   1.548   0.952 -0.1246  0.5282  0.0214
19579TIP3    H180152   2.039   1.634   0.964 -1.3233  0.8953  1.6688
19579TIP3    H280153   1.960   1.551   0.865 -1.4865  2.2556  0.6316
19580TIP3   OH280154   0.803   0.139   5.749 -0.2221  0.4501 -0.2719
19580TIP3    H180155   0.838   0.174   5.831  0.3962  2.7645 -1.4405
19580TIP3    H280156   0.745   0.208   5.717 -2.6332 -1.5452 -0.4888
19581TIP3   OH280157   4.429   2.466   2.220  0.2139 -0.1152  0.8361
19581TIP3    H180158   4.402   2.380   2.251 -0.6370 -0.5707 -1.0209
19581TIP3    H280159   4.468   2.508   2.296 -0.1505 -1.8064  2.0079
19582TIP3   OH280160   0.418   0.552  15.554 -0.1581  0.0531  0.6869
19582TIP3    H180161   0.354   0.483  15.572 -1.2958  1.0882  0.7302
19582TIP3    H280162   0.368   0.634  15.561  1.1642  0.8927  0.6833
19583TIP3   OH280163   6.111   1.986  15.827  0.6031  0.1679  0.4402
19583TIP3    H180164   6.082   1.907  15.873 -0.3017  0.0838 -0.2430
19583TIP3    H280165   6.132   1.956  15.739 -0.1766  0.7534  0.0449
19584TIP3   OH280166   5.318   2.302  11.646 -0.2297 -0.0033  0.2989
19584TIP3    H180167   5.330   2.392  11.678  0.5760 -0.2859  0.8042
19584TIP3    H280168   5.329   2.247  11.724 -0.3692 -0.5646 -0.0761
19585TIP3   OH280169   5.883   4.820   1.066 -0.7066 -0.7701 -0.1719
19585TIP3    H180170   5.842   4.740   1.099  0.7920 -0.9797  1.3203
19585TIP3    H280171   5.930   4.856   1.142  1.5362 -0.3773 -1.6512
19586TIP3   OH280172   2.271   1.549  12.135 -0.0245  0.2717 -0.1481
19586TIP3    H180173   2.327   1.626  12.127  0.6072 -0.0319  1.1468
19586TIP3    H280174   2.203   1.575  12.197 -0.5043  0.1573 -0.6096
19587TIP3   OH280175   4.674   5.277   6.555 -0.3024  0.0313 -0.1045
19587TIP3    H180176   4.660   5.358   6.603  2.6776  0.5316  0.0967
19587TIP3    H280177   4.609   5.279   6.485 -2.7968  0.6798  2.0688
19588TIP3   OH280178   5.273   2.285  10.972  0.2249  0.4173 -0.3651
19588TIP3    H180179   5.210   2.213  10.963  1.2940 -0.4398 -1.1731
19588TIP3    H280180   5.220   2.364  10.957 -1.1671 -0.0733  1.4745
19589TIP3   OH280181   4.202   1.903  14.676 -0.1961 -0.0964 -0.2287
19589TIP3    H180182   4.184   1.866  14.590  0.0257 -1.7784  0.4184
19589TIP3    H280183   4.297   1.893  14.687 -0.4482 -1.5579  0.9090
19590TIP3   OH280184   6.366   0.510   3.513  0.2163 -0.3729 -0.2908
19590TIP3    H180185   6.444   0.457   3.501 -0.4920 -1.1232 -1.9546
19590TIP3    H280186   6.368   0.573   3.441  0.2773  0.9336  0.8031
19591TIP3   OH280187   0.955   1.430   6.867  0.5107  0.2375  0.2183
19591TIP3    H180188   1.033   1.384   6.898  0.9454  0.2757 -0.7775
19591TIP3    H280189   0.987   1.485   6.795 -0.2282  1.1305  0.5483
19592TIP3   OH280190   4.467   0.468  15.324 -0.3738 -0.6183  0.3510
19592TIP3    H180191   4.435   0.424  15.245  1.1998  1.1928 -1.4215
19592TIP3    H280192   4.389   0.501  15.367 -1.2143 -0.7896 -1.0054
19593TIP3   OH280193   1.526   4.163   2.287  0.8068 -0.2862 -0.0413
19593TIP3    H180194   1.484   4.228   2.230  0.7295  0.9182  1.3525
19593TIP3    H280195   1.548   4.211   2.367  0.0875 -2.1420  1.3328
19594TIP3   OH280196   1.019   1.366   1.380 -0.1069  0.0313  0.1710
19594TIP3    H180197   0.962   1.435   1.345  0.8037 -0.6305 -2.9984
19594TIP3    H280198   1.106   1.405   1.377  0.3501 -1.0321 -1.1939
19595TIP3   OH280199   2.441   5.232   6.400 -0.1560  0.0523 -0.4501
19595TIP3    H180200   2.432   5.326   6.415 -0.3286 -0.2515  1.7042
19595TIP3    H280201   2.351   5.200   6.393 -0.2423 -0.2577  1.4225
19596TIP3   OH280202   4.735   4.442   4.949  0.6107 -0.4432  0.4272
19596TIP3    H180203   4.779   4.360   4.929  0.4427 -0.1048 -1.4867
19596TIP3    H280204   4.782   4.476   5.026 -0.3098 -3.0161  2.2732
19597TIP3   OH280205   1.937   5.268   0.049  0.4017  0.3582  0.1528
19597TIP3    H180206   1.868   5.277   0.114 -0.4755 -1.5879 -0.4156
19597TIP3    H280207   1.914   5.188   0.001  0.3318  2.2753 -3.3577
19598TIP3   OH280208   3.534   1.516   3.034  0.0959  0.2060  0.3754
19598TIP3    H180209   3.527   1.501   3.128  0.6703  1.0943  0.5758
19598TIP3    H280210   3.597   1.450   3.004  0.2335  0.1952  0.6854
19599TIP3   OH280211   4.454   1.428   5.033  0.2696  0.0442 -0.0576
19599TIP3    H180212   4.468   1.504   5.090  2.7238  0.4703 -1.1220
19599TIP3    H280213   4.486   1.456   4.948  1.2158 -2.1709 -0.4865
19600TIP3   OH280214   5.711   0.376   0.116  0.6811 -0.0477 -0.2040
19600TIP3    H180215   5.759   0.442   0.067 -0.1455 -0.8081 -2.1470
19600TIP3    H280216   5.764   0.296   0.106  1.4059  0.1336  1.6821
19601TIP3   OH280217   3.211   3.039  13.528 -0.1995 -0.1823 -0.1968
19601TIP3    H180218   3.152   3.032  13.603 -0.4488  1.4029 -0.2019
19601TIP3    H280219   3.240   2.949  13.511 -3.2200 -1.1607 -0.7177
19602TIP3   OH280220   5.942   2.691   4.584 -0.1133 -0.9318  0.0188
19602TIP3    H180221   5.954   2.625   4.652  1.3846  1.8044  2.6543
19602TIP3    H280222   5.847   2.693   4.569 -0.3376 -2.5876  0.9249
19603TIP3   OH280223   6.512   2.769   0.921  0.4742  0.5062  0.0296
19603TIP3    H180224   6.526   2.807   0.835 -1.5623 -1.0761 -1.0767
19603TIP3    H280225   6.494   2.843   0.978 -0.9734  1.3945 -1.5185
19604TIP3   OH280226   4.931   0.372  15.042  0.0269 -0.2076 -0.0929
19604TIP3    H180227   5.001   0.337  14.987 -0.3896  0.8919 -1.3707
19604TIP3    H280228   4.976   0.407  15.119  0.8466  0.0910 -0.6898
19605TIP3   OH280229   4.152   6.750   3.000 -0.5623 -0.0936 -0.1048
19605TIP3    H180230   4.110   6.817   3.053 -0.1487 -0.3033  0.4970
19605TIP3    H280231   4.125   6.667   3.040  1.0769 -0.2210  0.8290
19606TIP3   OH280232   2.347   5.580   1.328 -0.7017 -0.1084  0.1671
19606TIP3    H180233   2.378   5.578   1.237 -0.4740 -1.9106  0.2584
19606TIP3    H280234   2.272   5.639   1.326  1.5633  3.0500 -0.3868
19607TIP3   OH280235   2.592   0.550  15.602  0.0654 -0.1187  0.1664
19607TIP3    H180236   2.595   0.631  15.653  1.0359 -0.0756  0.0736
19607TIP3    H280237   2.681   0.515  15.609 -0.1225 -0.7427 -0.4806
19608TIP3   OH280238   1.168   4.079   1.101  0.1138 -0.3821 -0.1699
19608TIP3    H180239   1.225   4.113   1.032 -0.7564  0.8971 -0.2962
19608TIP3    H280240   1.190   4.130   1.178 -3.0741  2.6537 -0.9932
19609TIP3   OH280241   2.900   1.174   5.219 -0.2824 -0.0979  0.6002
19609TIP3    H180242   2.831   1.187   5.154 -0.5158  1.9863  1.1908
19609TIP3    H280243   2.864   1.212   5.299  1.5598  1.1064  0.8990
19610TIP3   OH280244   2.141   6.612  11.172  0.3074 -0.4447 -0.0336
19610TIP3    H180245   2.211   6.559  11.135  2.7519  1.2316  1.8657
19610TIP3    H280246   2.155   6.700  11.137 -1.0126 -0.1019  0.2229
19611TIP3   OH280247   0.138   2.920  12.391 -0.5372  0.4834 -0.0031
19611TIP3    H180248   0.218   2.972  12.387  0.2998 -0.7426  0.1691
19611TIP3    H280249   0.142   2.865  12.313  0.3080 -1.6658  1.4631
19612TIP3   OH280250   0.946   5.970  16.821  0.2977  0.0596 -0.4300
19612TIP3    H180251   0.890   6.047  16.817  1.4487  1.0548  1.3026
19612TIP3    H280252   0.886   5.897  16.833 -0.7070  0.9372  0.0637
19613TIP3   OH280253   3.560   5.314  17.128 -0.1254  0.8025 -0.8581
19613TIP3    H180254   3.572   5.365  17.048 -0.1504  0.3682 -1.1401
19613TIP3    H280255   3.649   5.286  17.151  0.0370  1.8660 -0.0960
19614TIP3   OH280256   0.053   1.365   3.242  0.1284  0.1078  0.0385
19614TIP3    H180257   0.063   1.276   3.276 -1.6352  0.1405  0.7620
19614TIP3    H280258   0.081   1.360   3.151 -0.4485 -1.3214 -0.0786
19615TIP3   OH280259   4.356   5.044   3.577  0.0360  0.8218 -0.6942
19615TIP3    H180260   4.368   4.962   3.625 -0.3395  1.3684  0.3411
19615TIP3    H280261   4.305   5.019   3.500  1.1911 -0.1703 -1.1797
19616TIP3   OH280262   3.980   6.446  14.429  0.2889 -0.1899 -0.5651
19616TIP3    H180263   3.937   6.384  14.488  0.8762  0.1791  0.2661
19616TIP3    H280264   3.928   6.443  14.349  1.9871 -4.0790 -1.7868
19617TIP3   OH280265   2.970   3.548   0.091  0.3256 -0.2421 -0.9795
19617TIP3    H180266   3.021   3.619   0.053  2.4385 -1.3477 -0.3617
19617TIP3    H280267   3.018   3.523   0.170 -1.6896 -0.7557  0.1590
19618TIP3   OH280268   4.880   3.139   2.883 -0.0129  0.1555  0.7792
19618TIP3    H180269   4.793   3.123   2.919  0.1675  1.2651  1.7955
19618TIP3    H280270   4.933   3.163   2.959  1.3483 -1.1131  0.2652
19619TIP3   OH280271   5.172   6.587   3.796 -0.8044  0.1305 -0.4828
19619TIP3    H180272   5.139   6.527   3.864 -1.0616 -0.4027 -1.0702
19619TIP3    H280273   5.105   6.586   3.728 -0.3676  0.3594 -0.9250
19620TIP3   OH280274   6.683   0.172  15.017 -0.0857  0.5551  0.4322
19620TIP3    H180275   6.703   0.088  15.060  1.0849  0.8477  0.4898
19620TIP3    H280276   6.758   0.227  15.037 -0.3278  1.2633 -0.5579
19621TIP3   OH280277   2.959   3.181   5.575  0.7257 -0.1572 -0.1915
19621TIP3    H180278   2.895   3.150   5.639 -0.8803  1.8952 -0.6847
19621TIP3    H280279   3.015   3.106   5.558 -1.5701 -2.0884  0.2467
19622TIP3   OH280280   4.971   4.691   4.115  0.3820 -0.0723  0.4492
19622TIP3    H180281   4.914   4.754   4.070  2.3379  0.5006 -1.4522
19622TIP3    H280282   5.027   4.746   4.170  0.0416 -0.4938  1.2284
19623TIP3   OH280283   4.910   0.499  13.599  0.0214 -0.0107 -0.4089
19623TIP3    H180284   4.881   0.552  13.525 -2.3328  0.7086  0.9194
19623TIP3    H280285   4.834   0.495  13.657  2.0099  0.3208  2.4713
19624TIP3   OH280286   3.035   2.501   5.555 -0.0009 -0.0355 -0.9035
19624TIP3    H180287   3.117   2.454   5.570 -1.2481 -1.4984  2.3501
19624TIP3    H280288   2.967   2.434   5.562 -1.6333  1.5138 -1.0761
19625TIP3   OH280289   6.243   1.100   3.954  0.4963 -0.0644  0.2465
19625TIP3    H180290   6.206   1.107   4.042 -1.4146  0.5748 -0.5614
19625TIP3    H280291   6.247   1.006   3.938 -1.9596 -0.1840 -0.0507
19626TIP3   OH280292   2.469   3.763   2.969  0.3280  0.6255 -0.0582
19626TIP3    H180293   2.507   3.809   3.043  2.0326 -1.3198  0.3712
19626TIP3    H280294   2.377   3.750   2.994  0.6256  0.9064  1.2489
19627TIP3   OH280295   6.410   6.535  15.760  0.5654 -0.1437  0.5203
19627TIP3    H180296   6.362   6.454  15.744  2.3282 -1.4024  1.3276
19627TIP3    H280297   6.344   6.597  15.790 -0.9011 -1.1106 -0.5928
19628TIP3   OH280298   6.473   6.081   4.216 -0.3175  0.1780 -0.0913
19628TIP3    H180299   6.509   6.155   4.169  0.1762 -0.8261 -1.3427
19628TIP3    H280300   6.379   6.100   4.223 -0.0834  1.2594  0.3037
19629TIP3   OH280301   1.636   2.442  16.662 -0.9606  0.2766 -0.2800
19629TIP3    H180302   1.583   2.519  16.682  1.1581  1.6804  0.2607
19629TIP3    H280303   1.726   2.475  16.660 -0.1690 -1.7477 -2.3547
19630TIP3   OH280304   6.405   2.417  12.974  0.3859  0.4463 -1.0643
19630TIP3    H180305   6.500   2.406  12.973  0.5088  0.9913  0.6645
19630TIP3    H280306   6.386   2.456  13.060 -1.6596 -1.9788 -0.2969
19631TIP3   OH280307   1.164   0.758   5.518 -0.1714  0.2589 -0.1714
19631TIP3    H180308   1.069   0.771   5.517 -0.2432 -0.0409 -2.3645
19631TIP3    H280309   1.192   0.783   5.430  1.4395 -1.9906 -0.3827
19632TIP3   OH280310   6.147   0.994   4.611 -0.0828  0.3930  0.4871
19632TIP3    H180311   6.095   1.020   4.686  1.8577  2.2739  1.2829
19632TIP3    H280312   6.123   1.056   4.542 -2.0770 -1.5055 -0.6643
19633TIP3   OH280313   5.474   4.964   6.468 -0.0763  0.6388 -0.1206
19633TIP3    H180314   5.440   4.914   6.394 -2.7860  0.2962  1.2318
19633TIP3    H280315   5.525   4.901   6.518 -1.0418 -0.0495  0.0306
19634TIP3   OH280316   2.445   1.441  11.732 -0.0818 -0.2735 -0.5419
19634TIP3    H180317   2.462   1.466  11.823 -1.3031  1.1398 -0.6623
19634TIP3    H280318   2.430   1.346  11.736  0.7482 -0.3824  0.5815
19635TIP3   OH280319   4.804   0.912   1.005  0.0594  0.3543  0.3527
19635TIP3    H180320   4.795   0.854   1.081 -1.7833  0.5242  0.3278
19635TIP3    H280321   4.812   1.000   1.043 -2.0062  0.5728  0.4160
19636TIP3   OH280322   1.952   0.294  12.313 -0.6195  0.5063  0.1694
19636TIP3    H180323   1.980   0.383  12.289  0.1098 -0.2344 -1.9755
19636TIP3    H280324   1.857   0.299  12.319 -0.6801  1.1927 -1.0942
19637TIP3   OH280325   2.276   6.529  12.991  0.4912  0.3252  0.5407
19637TIP3    H180326   2.305   6.504  13.079 -0.2733  1.5802  1.1813
19637TIP3    H280327   2.344   6.589  12.959  0.7447 -0.0930  0.2831
19638TIP3   OH280328   5.604   3.476   2.793 -0.0624  0.5695  0.1683
19638TIP3    H180329   5.682   3.487   2.848  1.1666 -0.1893 -1.3549
19638TIP3    H280330   5.603   3.555   2.738 -1.1529  1.2144  1.0838
19639TIP3   OH280331   0.914   6.341  15.111  0.8802 -0.5613 -0.2479
19639TIP3    H180332   0.920   6.328  15.017  1.6894  1.5803 -0.5594
19639TIP3    H280333   0.946   6.259  15.149  2.1674 -0.8646 -1.8730
19640TIP3   OH280334   6.064   3.866   2.042 -0.1542 -0.1800 -0.1380
19640TIP3    H180335   6.001   3.884   2.111 -0.7035 -1.3481 -0.3113
19640TIP3    H280336   6.016   3.811   1.979  0.6019  0.1130 -0.9929
19641TIP3   OH280337   6.641   3.486  17.099 -0.0359 -0.6649 -0.0794
19641TIP3    H180338   6.629   3.460  17.190  1.1534 -1.6389 -0.1748
19641TIP3    H280339   6.570   3.548  17.082  0.4623  0.5468  1.8924
19642TIP3   OH280340   0.217   1.531  16.846 -0.8832  0.1605  0.3072
19642TIP3    H180341   0.301   1.566  16.819 -1.1123  0.6469  0.2104
19642TIP3    H280342   0.205   1.562  16.936 -1.2859  0.7120  0.0707
19643TIP3   OH280343   5.955   5.879  14.604  0.0380  0.1245  1.2650
19643TIP3    H180344   6.041   5.910  14.576 -0.5562  0.6592 -0.0519
19643TIP3    H280345   5.900   5.957  14.606 -1.5220 -0.6993 -2.2115
19644TIP3   OH280346   6.175   1.990  12.812  0.2236  0.2674 -0.2147
19644TIP3    H180347   6.175   1.970  12.905  0.5822 -0.0720 -0.2873
19644TIP3    H280348   6.116   1.926  12.773 -0.1087  0.5572 -0.1911
19645TIP3   OH280349   0.001   1.538   2.915  0.4428  0.1089 -0.6345
19645TIP3    H180350  -0.081   1.490   2.928  0.5443  0.1130  0.1133
19645TIP3    H280351  -0.005   1.611   2.977  1.0294  0.0787 -0.5416
19646TIP3   OH280352   6.245   5.997   3.409 -0.3582  0.2510  0.2554
19646TIP3    H180353   6.302   5.944   3.465 -0.3581 -1.1379 -0.9986
19646TIP3    H280354   6.224   6.074   3.462  0.3894 -0.5610  1.7946
19647TIP3   OH280355   3.382   1.946  11.503  0.3637 -0.7890 -0.6622
19647TIP3    H180356   3.326   2.008  11.549 -1.9556 -2.5689 -0.8483
19647TIP3    H280357   3.443   1.915  11.570  0.2283  0.2104 -0.0547
19648TIP3   OH280358   4.675   5.401  12.987  0.1449  0.0301 -0.2200
19648TIP3    H180359   4.734   5.369  12.920  0.2447  1.8511 -1.0770
19648TIP3    H280360   4.591   5.360  12.968  0.6081 -0.8811 -0.3195
19649TIP3   OH280361   4.924   3.014  14.027  0.1914 -0.5968 -0.7406
19649TIP3    H180362   4.971   2.931  14.013 -1.6059 -1.9023  0.4436
19649TIP3    H280363   4.895   3.040  13.940  0.0344 -1.6915 -1.0309
19650TIP3   OH280364   0.893   5.219   6.496 -0.0603 -0.1770 -0.7184
19650TIP3    H180365   0.914   5.139   6.543  0.5102  0.0294 -0.6150
19650TIP3    H280366   0.929   5.289   6.550 -1.7859  0.2683 -0.0767
19651TIP3   OH280367   2.897   0.870   2.524 -0.8570  0.1660  0.3390
19651TIP3    H180368   2.944   0.954   2.520 -0.7356  0.1134  0.6680
19651TIP3    H280369   2.897   0.847   2.616  0.5712 -1.0390  0.0742
19652TIP3   OH280370   4.822   3.098  13.335 -0.6083 -0.1689 -0.1405
19652TIP3    H180371   4.733   3.133  13.347 -0.1429  0.9312  0.2082
19652TIP3    H280372   4.830   3.032  13.403 -0.6436  0.7924  0.8357
19653TIP3   OH280373   6.660   6.771   5.895 -0.3617 -1.0311  0.6201
19653TIP3    H180374   6.633   6.743   5.982 -2.2268 -1.7389 -0.1326
19653TIP3    H280375   6.720   6.703   5.865 -0.1109 -1.0443  1.1387
19654TIP3   OH280376   3.909   1.637  14.703 -0.0412  0.1291  0.5032
19654TIP3    H180377   3.948   1.721  14.679 -0.2967 -0.2463 -1.3597
19654TIP3    H280378   3.843   1.659  14.768  1.0592  1.1441  1.3152
19655TIP3   OH280379   1.654   5.688  14.557  0.8169  0.1861  0.2265
19655TIP3    H180380   1.664   5.640  14.475 -0.5751 -1.5128  0.9824
19655TIP3    H280381   1.741   5.722  14.577  1.4159 -0.3594 -1.3538
19656TIP3   OH280382   6.028   3.961   1.581 -0.1344  0.4887  0.2569
19656TIP3    H180383   6.089   3.890   1.559 -0.5321  0.6312 -1.4109
19656TIP3    H280384   6.069   4.040   1.547 -0.4239  0.8426  0.7163
19657TIP3   OH280385   2.334   2.682   5.860  0.0785 -0.0809 -0.2391
19657TIP3    H180386   2.414   2.699   5.810  0.1424 -0.0372 -0.1216
19657TIP3    H280387   2.364   2.674   5.951 -0.0268 -0.2386 -0.2181
19658TIP3   OH280388   4.498   3.442   3.056  0.1272 -0.1734 -0.0354
19658TIP3    H180389   4.496   3.520   3.112 -0.3298  0.4670 -0.9284
19658TIP3    H280390   4.494   3.369   3.117  1.0004  0.4895  0.8488
19659TIP3   OH280391   2.790   3.840  10.658  0.7467  0.2495 -0.2172
19659TIP3    H180392   2.698   3.825  10.639  0.4089  0.4411  1.1564
19659TIP3    H280393   2.824   3.754  10.684  1.7657 -0.5086 -3.6350
19660TIP3   OH280394   2.544   0.139  14.023 -0.1706  0.3382 -0.1461
19660TIP3    H180395   2.637   0.115  14.018 -0.1665  0.1329  0.8278
19660TIP3    H280396   2.513   0.131  13.933  0.0662 -2.3988 -0.0705
19661TIP3   OH280397   3.175   1.102  12.999  0.5582  0.5191 -0.4118
19661TIP3    H180398   3.212   1.189  12.984  0.3196  0.8951  1.0735
19661TIP3    H280399   3.245   1.052  13.041  0.4765  0.1913 -0.6594
19662TIP3   OH280400   6.652   3.712  11.000  0.2178  0.1179  0.0404
19662TIP3    H180401   6.575   3.758  11.034 -0.4633  1.5534 -3.0109
19662TIP3    H280402   6.652   3.628  11.045 -1.4217  1.1913  2.2343
19663TIP3   OH280403   2.256   4.644   3.902  0.2292  0.2738 -0.2464
19663TIP3    H180404   2.221   4.637   3.991  1.1139 -1.6889  0.0144
19663TIP3    H280405   2.302   4.561   3.888  1.8543  1.3504 -1.7979
19664TIP3   OH280406   0.174   4.668   3.684 -0.0258 -0.5105 -0.0679
19664TIP3    H180407   0.171   4.604   3.613  0.0804 -2.6277  1.6973
19664TIP3    H280408   0.239   4.632   3.745 -2.2459 -0.4552  2.5255
19665TIP3   OH280409   2.078   0.552   2.906 -0.0214  0.3010 -0.4372
19665TIP3    H180410   1.998   0.601   2.926  0.0742  1.0700 -1.8116
19665TIP3    H280411   2.048   0.465   2.882 -0.3498  0.2254  0.2384
19666TIP3   OH280412   3.073   2.338   2.987  0.2400  0.0444  0.1034
19666TIP3    H180413   3.007   2.269   2.981 -0.9536  1.0806  0.6738
19666TIP3    H280414   3.128   2.326   2.910 -0.4398 -1.0388 -0.2297
19667TIP3   OH280415   2.095   1.911   1.692  0.5849  1.1248  0.0214
19667TIP3    H180416   2.069   1.844   1.628 -0.6244  2.2713 -0.7407
19667TIP3    H280417   2.118   1.987   1.639  1.0971  1.5947  0.9016
19668TIP3   OH280418   4.287   6.650  17.240  0.3980 -0.2405  0.2027
19668TIP3    H180419   4.201   6.628  17.206 -0.1229  0.6254  0.9308
19668TIP3    H280420   4.272   6.723  17.300  1.6287 -0.0986  0.3706
19669TIP3   OH280421   3.606   2.089   5.403 -0.5476  0.2411 -0.3417
19669TIP3    H180422   3.568   2.126   5.482  0.2682 -2.7457  1.5979
19669TIP3    H280423   3.701   2.097   5.417 -0.3765 -1.5924 -0.2993
19670TIP3   OH280424   6.569   4.256  16.424 -0.4556 -0.4672  0.0187
19670TIP3    H180425   6.620   4.309  16.485 -0.3117 -0.3894 -0.1664
19670TIP3    H280426   6.594   4.166  16.443  1.6230 -0.3423 -1.6857
19671TIP3   OH280427   0.658   4.951  13.422 -0.1384 -0.2291 -0.0491
19671TIP3    H180428   0.649   4.984  13.511  0.2428  0.2982 -0.2054
19671TIP3    H280429   0.745   4.910  13.420 -0.6941 -1.4899  0.2152
19672TIP3   OH280430   0.548   3.094  13.010  0.4876  0.0137  0.0761
19672TIP3    H180431   0.535   3.002  13.031  1.5091 -0.5311 -1.5075
19672TIP3    H280432   0.500   3.108  12.928  1.9332  0.3559 -0.7542
19673TIP3   OH280433   1.412   5.635   2.641 -0.8465 -0.0399 -0.3746
19673TIP3    H180434   1.410   5.655   2.735 -2.9916 -0.4833 -0.2898
19673TIP3    H280435   1.448   5.714   2.601 -2.0571  1.0738  0.6339
19674TIP3   OH280436   6.626   2.608  16.806 -0.3031 -0.7571 -0.2224
19674TIP3    H180437   6.638   2.690  16.855  0.7805 -0.7727 -0.4463
19674TIP3    H280438   6.531   2.595  16.805 -0.7582  1.8572 -2.3711
19675TIP3   OH280439   1.579   6.411   2.953 -0.2815 -0.2267  0.6544
19675TIP3    H180440   1.555   6.437   2.864  0.0775  0.6171  0.7923
19675TIP3    H280441   1.503   6.436   3.006 -0.3698 -0.4475  0.6337
19676TIP3   OH280442   2.425   3.090   4.628  0.0750 -0.5354 -0.1463
19676TIP3    H180443   2.494   3.087   4.695  0.6062 -0.4474 -0.6778
19676TIP3    H280444   2.365   3.019   4.651 -0.3882  0.2310  1.0957
19677TIP3   OH280445   4.238   5.395  11.352 -0.0605  0.1021  0.0944
19677TIP3    H180446   4.208   5.305  11.334 -0.8108  0.2187  0.7141
19677TIP3    H280447   4.329   5.384  11.381 -0.1940 -0.4761  0.3132
19678TIP3   OH280448   2.444   3.137   0.736  0.5524 -0.2919  0.6474
19678TIP3    H180449   2.435   3.128   0.831  1.7303 -1.4355  0.6728
19678TIP3    H280450   2.531   3.102   0.716  1.0585  1.5373 -0.6540
19679TIP3   OH280451   3.764   4.849  16.275  0.2701 -0.1353 -0.2240
19679TIP3    H180452   3.795   4.938  16.286 -0.2084  0.0337 -0.2030
19679TIP3    H280453   3.682   4.845  16.324 -0.0654 -0.3837 -0.7879
19680TIP3   OH280454   3.544   0.608   6.276  0.1266 -0.7676  0.0353
19680TIP3    H180455   3.623   0.647   6.239 -0.5887  0.9824  0.2503
19680TIP3    H280456   3.493   0.582   6.199  0.5599 -1.1989 -0.1141
19681TIP3   OH280457   0.844   1.033   0.884  0.2157  0.0732 -0.3941
19681TIP3    H180458   0.927   1.032   0.932  0.1731 -1.6312 -0.2770
19681TIP3    H280459   0.792   0.964   0.925 -1.0104  0.6532 -0.9121
19682TIP3   OH280460   2.032   2.930  16.862  0.0293  0.1346  0.4870
19682TIP3    H180461   1.944   2.962  16.883 -1.3509 -2.8607 -0.1544
19682TIP3    H280462   2.026   2.903  16.770  0.9347 -1.9715  0.9795
19683TIP3   OH280463   0.157   0.140   6.667  0.5610 -0.3639  0.0014
19683TIP3    H180464   0.099   0.190   6.725  0.4074  1.3879 -1.5524
19683TIP3    H280465   0.242   0.143   6.710  0.7473  2.0261 -0.3791
19684TIP3   OH280466   0.598   4.358  16.431 -0.3173  0.6311  0.1125
19684TIP3    H180467   0.565   4.446  16.418 -0.5002  0.5565  0.0714
19684TIP3    H280468   0.692   4.369  16.446 -0.4488  0.8877  0.7604
19685TIP3   OH280469   3.555   3.540   3.938  0.7690 -0.0255 -0.1240
19685TIP3    H180470   3.592   3.495   3.862  0.6663  0.3557 -0.4027
19685TIP3    H280471   3.617   3.611   3.957 -0.4010  1.4134 -1.3711
19686TIP3   OH280472   2.614   4.130   4.049 -0.0411  0.6696  0.7889
19686TIP3    H180473   2.598   4.039   4.023  0.5685 -0.3190  3.5518
19686TIP3    H280474   2.526   4.170   4.053 -0.3688  0.0234  0.2588
19687TIP3   OH280475   4.665   2.266  16.830  0.0661 -0.4281  0.3336
19687TIP3    H180476   4.753   2.247  16.798 -0.0915  0.1620 -0.4868
19687TIP3    H280477   4.607   2.217  16.771 -0.1550 -0.9947  1.0061
19688TIP3   OH280478   5.234   3.633   3.271  1.0845  0.5714 -0.1139
19688TIP3    H180479   5.192   3.697   3.214 -1.4573 -0.7219  0.1646
19688TIP3    H280480   5.281   3.575   3.211 -2.0925 -1.1753 -1.1783
19689TIP3   OH280481   0.759   4.200  16.098 -0.0353 -0.4371 -0.3963
19689TIP3    H180482   0.778   4.128  16.158 -2.6569 -1.5813 -0.7862
19689TIP3    H280483   0.727   4.158  16.018 -0.5901  1.1254 -1.0466
19690TIP3   OH280484   4.363   2.170   2.733 -0.1353 -0.3937 -0.0510
19690TIP3    H180485   4.321   2.139   2.653 -1.6549 -1.8395  1.2228
19690TIP3    H280486   4.294   2.166   2.799  0.8320  1.5927  1.1765
19691TIP3   OH280487   1.409   5.122   1.996  0.3552  0.1064  0.4003
19691TIP3    H180488   1.479   5.178   2.031 -0.6325  0.6726  1.5538
19691TIP3    H280489   1.366   5.085   2.074 -1.8600  1.3275 -0.1389
19692TIP3   OH280490   1.793   0.689   0.518  0.3219  0.6290  0.5565
19692TIP3    H180491   1.733   0.706   0.445 -0.9952 -1.4588  1.0827
19692TIP3    H280492   1.860   0.631   0.482  1.6760  2.3124  0.1867
19693TIP3   OH280493   2.178   5.495   2.990 -0.1648 -0.1499 -0.2972
19693TIP3    H180494   2.177   5.549   3.069 -2.0428 -0.8852  0.2217
19693TIP3    H280495   2.135   5.413   3.015 -1.7790 -0.0117 -2.3095
19694TIP3   OH280496   3.556   1.127  13.811  0.2033 -0.4057  0.3349
19694TIP3    H180497   3.646   1.154  13.831  1.2874 -2.2225 -1.5866
19694TIP3    H280498   3.502   1.202  13.835  2.3789  1.2894  0.2598
19695TIP3   OH280499   6.432   4.188   5.557  0.3013 -0.4711  0.0382
19695TIP3    H180500   6.363   4.180   5.623 -0.6561 -1.5237 -1.0492
19695TIP3    H280501   6.387   4.179   5.473  1.2837  2.2370 -0.8861
19696TIP3   OH280502   5.726   6.757   4.655  1.0622 -0.6728 -0.0422
19696TIP3    H180503   5.787   6.741   4.583 -0.1836  0.9831 -1.5650
19696TIP3    H280504   5.640   6.759   4.613  0.1386 -0.9982  1.7427
19697TIP3   OH280505   5.377   3.742  11.949  0.6050 -0.5440  0.0407
19697TIP3    H180506   5.424   3.746  11.866 -0.2373 -1.4255 -0.4802
19697TIP3    H280507   5.398   3.826  11.991 -0.8649  0.9830 -2.0823
19698TIP3   OH280508   1.251   2.537  14.685  0.2113 -0.1651 -0.2926
19698TIP3    H180509   1.244   2.562  14.777 -0.1543  1.9029 -0.8375
19698TIP3    H280510   1.319   2.594  14.650 -1.2128  0.6996 -1.7862
19699TIP3   OH280511   5.928   2.676   2.662 -0.1647  0.3971  0.3184
19699TIP3    H180512   5.835   2.699   2.658 -1.3477 -2.3367  4.5143
19699TIP3    H280513   5.936   2.597   2.609 -0.0746  0.9733 -0.5309
19700TIP3   OH280514   1.544   3.840   5.143 -0.1938 -0.3022 -0.4385
19700TIP3    H180515   1.479   3.872   5.081 -0.5397 -0.6768 -0.2706
19700TIP3    H280516   1.555   3.747   5.121 -0.6811 -0.5564  0.3726
19701TIP3   OH280517   1.381   0.195  16.223  0.2810  0.2350 -0.0126
19701TIP3    H180518   1.429   0.277  16.238  0.5038  0.0313  0.4130
19701TIP3    H280519   1.441   0.143  16.169 -0.5130  0.9608 -1.6543
19702TIP3   OH280520   3.171   4.574  14.408 -0.3982 -0.2498 -0.0839
19702TIP3    H180521   3.185   4.600  14.317  1.7300 -0.4007  0.1515
19702TIP3    H280522   3.142   4.483  14.403  1.1260 -0.7405 -0.6036
19703TIP3   OH280523   1.192   6.212  13.845  0.4417 -0.3093  0.2951
19703TIP3    H180524   1.236   6.291  13.814 -1.5247  0.2990 -1.0941
19703TIP3    H280525   1.251   6.177  13.912  2.4443  1.0881 -0.6338
19704TIP3   OH280526   0.942   5.604  11.816 -0.4349 -0.6504  0.1885
19704TIP3    H180527   1.021   5.558  11.785 -0.5864 -0.4455 -0.5262
19704TIP3    H280528   0.949   5.602  11.911 -0.7259 -2.6564  0.2070
19705TIP3   OH280529   1.757   1.505  15.048 -0.0141  0.2802 -0.3487
19705TIP3    H180530   1.791   1.444  15.114 -1.8904 -1.5539 -0.9690
19705TIP3    H280531   1.814   1.491  14.971  0.4109  0.3287 -0.0463
19706TIP3   OH280532   5.512   0.227  13.482 -0.7693 -0.3329  0.1373
19706TIP3    H180533   5.507   0.295  13.415 -0.7708  0.1926  0.6623
19706TIP3    H280534   5.557   0.269  13.556 -0.2663 -1.0720  0.2568
19707TIP3   OH280535   1.834   0.415  10.994  0.1713 -0.2553 -0.2548
19707TIP3    H180536   1.894   0.412  10.920  0.2028 -0.9538 -0.2089
19707TIP3    H280537   1.796   0.327  10.998 -2.5852  0.7415 -1.6775
19708TIP3   OH280538   5.798   0.003   0.566 -0.1745  0.4722  0.1810
19708TIP3    H180539   5.732   0.057   0.609 -0.3894 -0.3707  0.9348
19708TIP3    H280540   5.748  -0.061   0.516 -0.0095 -1.1457  1.9549
19709TIP3   OH280541   2.348   0.895   5.667 -0.5280 -0.3789 -0.2943
19709TIP3    H180542   2.425   0.843   5.645  1.3400  1.7973  0.6409
19709TIP3    H280543   2.311   0.851   5.744 -0.1934 -1.4127 -0.7061
19710TIP3   OH280544   4.975   4.597  15.027  0.5369 -0.4707 -0.4203
19710TIP3    H180545   5.001   4.688  15.044  1.0936 -0.8343  0.7834
19710TIP3    H280546   4.880   4.601  15.019  0.5954  0.2873 -0.9297
19711TIP3   OH280547   3.828   5.677  14.352 -0.3207  0.4984 -0.0488
19711TIP3    H180548   3.776   5.713  14.424 -0.2727  0.9394 -0.2342
19711TIP3    H280549   3.914   5.716  14.363  0.1634 -0.6931  0.6174
19712TIP3   OH280550   3.718   0.060  11.872  0.6493 -0.0238  0.1823
19712TIP3    H180551   3.761  -0.015  11.912 -1.5161 -1.5493 -0.2202
19712TIP3    H280552   3.632   0.064  11.914 -0.3698  0.4476 -1.8506
19713TIP3   OH280553   2.748   4.262   0.226 -0.8522  0.2410 -0.0192
19713TIP3    H180554   2.717   4.319   0.155 -1.4212  0.3637  0.3223
19713TIP3    H280555   2.822   4.310   0.265  1.0351 -0.8790 -2.0156
19714TIP3   OH280556   0.527   3.201   4.605 -0.5523  0.0967 -0.1178
19714TIP3    H180557   0.552   3.210   4.513 -2.6589  0.3025 -0.7165
19714TIP3    H280558   0.464   3.130   4.606 -0.6167  0.1537  1.1729
19715TIP3   OH280559   5.757   4.847   4.647  0.2404  0.3217  0.6685
19715TIP3    H180560   5.672   4.866   4.609  0.5371  1.1319  0.3860
19715TIP3    H280561   5.805   4.802   4.578 -0.5814 -1.8565  1.4544
19716TIP3   OH280562   3.946   4.839  17.109 -0.6979  0.5726 -0.1102
19716TIP3    H180563   4.034   4.876  17.114 -0.0563 -0.9386  0.4667
19716TIP3    H280564   3.938   4.808  17.019 -0.4861  0.3761 -0.0628
19717TIP3   OH280565   6.351   0.292  16.091  0.3537 -0.3085 -0.2148
19717TIP3    H180566   6.323   0.325  16.006 -0.7646 -1.1691 -0.2087
19717TIP3    H280567   6.270   0.275  16.139  0.9567  1.3108  1.5179
19718TIP3   OH280568   5.353   5.020   3.294 -0.1649 -0.1084 -0.7715
19718TIP3    H180569   5.375   4.986   3.380 -0.1635  1.8538  0.0572
19718TIP3    H280570   5.285   4.962   3.261  0.5320 -1.4555  0.1150
19719TIP3   OH280571   4.963   4.244  10.829 -0.1005  0.2073 -0.2983
19719TIP3    H180572   5.036   4.192  10.862  2.3284  3.1927 -0.4761
19719TIP3    H280573   4.955   4.219  10.737  0.6375 -0.2014 -0.2556
19720TIP3   OH280574   2.665   3.909  11.376 -0.1509 -1.0493 -0.2513
19720TIP3    H180575   2.669   3.998  11.411  1.0744 -1.1495 -0.0938
19720TIP3    H280576   2.731   3.906  11.308  0.6813 -2.1675  0.5564
19721TIP3   OH280577   5.262   4.015  16.638  0.3062 -0.1058  0.2674
19721TIP3    H180578   5.355   4.024  16.618  0.1283  1.0730 -0.0984
19721TIP3    H280579   5.218   4.070  16.573 -0.8490 -2.5257 -1.1702
19722TIP3   OH280580   6.291   3.928   4.492  0.5612  0.5818  0.2595
19722TIP3    H180581   6.261   4.001   4.546  0.7250  0.3656  0.6403
19722TIP3    H280582   6.228   3.858   4.510 -1.1523  1.3895 -2.0055
19723TIP3   OH280583   4.928   4.382  16.133  0.0146 -0.2757  0.1159
19723TIP3    H180584   4.886   4.298  16.153 -0.0132 -0.4313 -0.5925
19723TIP3    H280585   4.872   4.447  16.176  0.3658 -0.6523  1.1860
19724TIP3   OH280586   0.714   5.926  16.448  0.4095 -0.5542 -0.2888
19724TIP3    H180587   0.802   5.888  16.453  0.5517 -0.2807 -0.6246
19724TIP3    H280588   0.656   5.855  16.473  0.7192 -0.7753 -0.1848
19725TIP3   OH280589   2.951   5.769  13.519  0.5555 -0.3935 -0.3744
19725TIP3    H180590   2.986   5.821  13.592  0.1955 -0.5194 -0.1104
19725TIP3    H280591   2.858   5.791  13.516  0.4608 -0.7950 -0.4552
19726TIP3   OH280592   1.177   0.436   0.434 -0.2921  0.0930 -0.4942
19726TIP3    H180593   1.120   0.502   0.473  0.0381  1.0573 -1.5802
19726TIP3    H280594   1.165   0.446   0.339 -1.4280 -2.4992 -0.7166
19727TIP3   OH280595   1.217   1.956   2.006 -0.1784  0.7776 -0.0283
19727TIP3    H180596   1.248   2.004   2.083 -0.8218 -1.1677  1.5388
19727TIP3    H280597   1.280   1.884   1.996 -0.5493  0.5488 -0.8459
19728TIP3   OH280598   2.189   2.760   6.148 -0.1884  0.0594  0.0527
19728TIP3    H180599   2.171   2.847   6.113  0.4298 -0.3192 -1.2456
19728TIP3    H280600   2.150   2.700   6.085 -1.0754 -0.6146  1.2056
19729TIP3   OH280601   3.606   2.280  14.891  0.7891  0.3707  0.3562
19729TIP3    H180602   3.538   2.347  14.883  2.3316  1.8224 -1.2238
19729TIP3    H280603   3.559   2.197  14.876 -0.3975  1.4389 -2.5286
19730TIP3   OH280604   0.601   1.590  15.090 -0.0507  0.3988 -0.1994
19730TIP3    H180605   0.525   1.594  15.032 -0.5562 -1.1499  0.3290
19730TIP3    H280606   0.676   1.596  15.031 -0.5678  0.4247 -0.8652
19731TIP3   OH280607   1.172   3.989   2.158  0.0161 -0.4275 -0.4669
19731TIP3    H180608   1.171   3.897   2.187 -2.3152 -1.0226 -2.1599
19731TIP3    H280609   1.250   4.026   2.201 -0.3299 -2.5089  2.2809
19732TIP3   OH280610   2.774   0.093  11.591  0.3104  0.5392  0.7912
19732TIP3    H180611   2.743   0.002  11.584 -0.8824  0.8686  1.6443
19732TIP3    H280612   2.869   0.084  11.599  0.2683 -0.6082  0.2968
19733TIP3   OH280613   3.770   5.962  13.065 -0.1144 -0.2656  0.7339
19733TIP3    H180614   3.805   5.936  12.980 -1.0355 -0.5604  0.4279
19733TIP3    H280615   3.776   6.058  13.065  1.0129 -0.3315  0.8447
19734TIP3   OH280616   0.380   0.663   4.711 -0.3582  0.2053 -0.0134
19734TIP3    H180617   0.289   0.691   4.723 -0.8739  0.0210 -2.7931
19734TIP3    H280618   0.377   0.568   4.723 -0.7838  0.0646 -1.0667
19735TIP3   OH280619   1.635   0.296  10.802  0.4308  0.0512 -1.1059
19735TIP3    H180620   1.657   0.252  10.884 -0.1840  0.2363 -0.8355
19735TIP3    H280621   1.683   0.247  10.735  1.2243  0.1231 -0.6000
19736TIP3   OH280622   5.905   0.144  13.608 -0.0578  0.6808 -0.1702
19736TIP3    H180623   5.937   0.234  13.607 -0.0257  0.6630 -0.5713
19736TIP3    H280624   5.861   0.132  13.524 -0.1964  0.3705 -0.0562
19737TIP3   OH280625   3.275   1.965   0.685  0.0334  0.2258  0.0833
19737TIP3    H180626   3.293   1.933   0.773  0.5263 -0.3676 -0.2248
19737TIP3    H280627   3.268   1.886   0.632 -1.5825  0.5056 -0.1817
19738TIP3   OH280628   5.843   4.671  10.251 -0.3015 -0.0592 -0.3387
19738TIP3    H180629   5.912   4.686  10.186  0.1348  1.2420  0.3921
19738TIP3    H280630   5.821   4.578  10.242 -0.0069  0.0094 -2.0961
19739TIP3   OH280631   3.250   2.742   2.164 -0.1636 -0.0379 -0.2579
19739TIP3    H180632   3.208   2.812   2.113 -0.4686 -1.2033 -1.6703
19739TIP3    H280633   3.330   2.722   2.115  0.4795  0.0483  0.7334
19740TIP3   OH280634   5.246   2.302  13.487  0.0229 -0.3939 -0.3358
19740TIP3    H180635   5.199   2.286  13.405  1.7220 -2.0897 -1.0555
19740TIP3    H280636   5.335   2.323  13.460  0.4911 -0.4353  1.0873
19741TIP3   OH280637   6.494   1.726  11.033  0.1065 -0.4707  0.3429
19741TIP3    H180638   6.515   1.667  10.960  0.2094 -1.1679  0.9367
19741TIP3    H280639   6.535   1.809  11.008 -0.4378 -0.5012 -0.7158
19742TIP3   OH280640   2.093   2.312  13.377  0.2026 -0.3568 -0.0608
19742TIP3    H180641   2.019   2.301  13.438 -0.0836  1.6485  0.0262
19742TIP3    H280642   2.163   2.258  13.414 -0.1627  0.3386  1.7485
19743TIP3   OH280643   2.838   6.065   0.257 -0.4103 -0.2323  0.5666
19743TIP3    H180644   2.819   5.989   0.201 -2.1128  1.6098 -1.5276
19743TIP3    H280645   2.827   6.032   0.346 -0.2931 -2.6352 -0.2321
19744TIP3   OH280646   3.175   0.345   4.896 -0.2030 -0.0543  0.5173
19744TIP3    H180647   3.168   0.255   4.929 -2.3464 -0.0421  0.2303
19744TIP3    H280648   3.102   0.353   4.835  1.2321  1.2268 -1.1297
19745TIP3   OH280649   4.159   5.383  17.207  0.0113 -0.7990  0.0278
19745TIP3    H180650   4.250   5.369  17.179  0.1336 -1.6868  0.7858
19745TIP3    H280651   4.138   5.472  17.179 -0.1325 -1.8074 -3.4295
19746TIP3   OH280652   6.355   5.036  14.659 -0.1243 -0.5780  1.2413
19746TIP3    H180653   6.269   5.064  14.628  0.6849 -0.3145 -0.9667
19746TIP3    H280654   6.405   5.118  14.665  0.8957 -1.0090 -0.7100
19747TIP3   OH280655   6.296   0.034  11.329 -0.3406 -1.0579 -0.0191
19747TIP3    H180656   6.325  -0.002  11.245 -3.4791 -2.1878 -0.7358
19747TIP3    H280657   6.306   0.129  11.318 -0.7366 -1.1702 -1.7317
19748TIP3   OH280658   0.625   3.879   0.249  0.5811 -0.1332 -0.4003
19748TIP3    H180659   0.597   3.790   0.230 -0.1826  0.1294 -0.5384
19748TIP3    H280660   0.544   3.929   0.257  0.9571  0.3418  0.7299
19749TIP3   OH280661   3.272   3.738  16.013  0.1996  0.2327  0.1718
19749TIP3    H180662   3.239   3.696  16.092  1.1275  0.0737  0.4870
19749TIP3    H280663   3.255   3.674  15.943  1.0793 -0.4563  0.5572
19750TIP3   OH280664   5.039   1.545  16.968  0.1534  0.2999 -0.4191
19750TIP3    H180665   5.107   1.551  16.901  0.5794 -2.3591 -0.3356
19750TIP3    H280666   5.084   1.509  17.045 -1.6466 -4.1373 -1.1598
19751TIP3   OH280667   1.823   3.070   3.449  0.2463 -0.0911  0.0152
19751TIP3    H180668   1.842   3.022   3.530  0.3243 -0.9045 -0.4740
19751TIP3    H280669   1.833   3.005   3.379 -0.6987  0.3702 -0.5790
19752TIP3   OH280670   4.614   5.568   4.247 -0.4957  0.8514  0.0805
19752TIP3    H180671   4.585   5.589   4.336 -1.3778 -1.7319  0.4902
19752TIP3    H280672   4.543   5.598   4.191 -1.1846  0.0933  0.5245
19753TIP3   OH280673   5.890   3.680   4.041  0.1149  0.3592 -0.8502
19753TIP3    H180674   5.875   3.690   3.947 -1.2844  1.2817 -0.5612
19753TIP3    H280675   5.842   3.753   4.080 -1.2972 -1.3316  0.7248
19754TIP3   OH280676   4.378   0.543  12.314  0.1034  0.0912 -0.1642
19754TIP3    H180677   4.378   0.563  12.407  0.6433 -1.5009  0.1955
19754TIP3    H280678   4.406   0.625  12.273  3.3719 -0.1124  1.3397
19755TIP3   OH280679   5.321   5.980   3.786 -0.2981  0.0324  0.6781
19755TIP3    H180680   5.315   5.911   3.852  1.5263 -0.8591 -0.0300
19755TIP3    H280681   5.230   6.001   3.765 -1.0118 -3.4720 -0.4027
19756TIP3   OH280682   2.403   3.490  14.525  0.1181  0.1779  0.1512
19756TIP3    H180683   2.489   3.516  14.559  0.4663 -0.0325 -0.5543
19756TIP3    H280684   2.347   3.567  14.540  0.7444  0.7719 -0.5029
19757TIP3   OH280685   0.369   5.281   2.941 -0.2490 -0.0777 -0.1563
19757TIP3    H180686   0.416   5.257   2.861 -0.3023  0.2014 -0.2751
19757TIP3    H280687   0.377   5.377   2.945 -2.3786  0.1865 -1.1716
19758TIP3   OH280688   6.160   6.459   2.329 -0.1114  0.1952 -0.1909
19758TIP3    H180689   6.099   6.441   2.400 -1.3122 -0.2014 -1.2863
19758TIP3    H280690   6.198   6.373   2.309 -0.4896  0.1275 -0.6442
19759TIP3   OH280691   1.660   0.149  11.429  0.2394  0.3134  0.4253
19759TIP3    H180692   1.705   0.234  11.423  0.4934  0.1675  0.2437
19759TIP3    H280693   1.570   0.171  11.454  0.5368  0.5735  1.2936
19760TIP3   OH280694   4.975   0.020  14.123 -0.4556  0.0881  0.4074
19760TIP3    H180695   5.052  -0.022  14.084 -1.6472 -2.2593  0.3862
19760TIP3    H280696   4.962   0.099  14.071  1.2689 -0.0639 -0.3142
19761TIP3   OH280697   4.029   0.819   0.815  0.1616 -0.0416  0.0560
19761TIP3    H180698   4.093   0.859   0.874 -0.4986  0.5242  0.4140
19761TIP3    H280699   4.050   0.725   0.816 -0.2355 -0.1401  1.7248
19762TIP3   OH280700   4.499   3.525   5.412  0.4926  0.4414 -0.1010
19762TIP3    H180701   4.467   3.602   5.459  1.1877  0.6205  0.1018
19762TIP3    H280702   4.585   3.508   5.451 -0.6475 -1.9491  1.5733
19763TIP3   OH280703   1.672   1.557  13.919 -0.0724  0.5713  0.2259
19763TIP3    H180704   1.628   1.613  13.982 -0.6361  0.7156 -0.2923
19763TIP3    H280705   1.623   1.475  13.921 -1.4650  1.3012 -1.5960
19764TIP3   OH280706   3.665   2.614   0.554  0.5413 -0.1744  0.5297
19764TIP3    H180707   3.647   2.661   0.635  0.8848  1.0786 -0.0949
19764TIP3    H280708   3.635   2.524   0.571 -0.3724  0.3178  1.6678
19765TIP3   OH280709   3.924   0.463  13.293  0.3236  0.5339  0.8523
19765TIP3    H180710   3.906   0.396  13.359  1.6091  0.1240  0.8208
19765TIP3    H280711   3.838   0.488  13.260 -0.1717 -1.6891  0.3048
19766TIP3   OH280712   4.995   1.662   4.619 -0.6379 -0.9437  0.1044
19766TIP3    H180713   4.979   1.738   4.675  0.4214 -0.8071  0.2399
19766TIP3    H280714   4.921   1.604   4.636 -1.0462 -0.2935  0.5972
19767TIP3   OH280715   6.245   4.324   2.074 -0.0876 -0.1668  0.0551
19767TIP3    H180716   6.280   4.240   2.103 -2.0924 -1.1055 -0.0674
19767TIP3    H280717   6.224   4.371   2.155  0.9310  0.1982  0.1222
19768TIP3   OH280718   1.757   0.981  11.923 -0.0685 -0.2873 -0.5345
19768TIP3    H180719   1.830   1.034  11.953  0.9455 -0.9422 -1.7698
19768TIP3    H280720   1.772   0.894  11.961 -1.8126  0.2601  1.6233
19769TIP3   OH280721   1.414   5.960  13.116  0.9025 -0.0889 -0.4686
19769TIP3    H180722   1.408   6.016  13.039  2.0004 -0.3635 -0.7717
19769TIP3    H280723   1.506   5.936  13.121  1.0985  0.9806  1.6983
19770TIP3   OH280724   4.328   0.536   1.277  0.1488 -0.0943  0.0358
19770TIP3    H180725   4.325   0.630   1.296  1.5098 -0.3356  1.5813
19770TIP3    H280726   4.415   0.508   1.304  1.0190 -1.2350 -3.3322
19771TIP3   OH280727   3.755   4.090   4.411 -0.4932 -0.4885 -0.1967
19771TIP3    H180728   3.695   4.017   4.393 -0.4955 -0.4489 -0.3550
19771TIP3    H280729   3.729   4.122   4.498 -1.0398 -0.1468 -0.4792
19772TIP3   OH280730   1.577   3.064  15.014 -0.4214  0.4580  0.1176
19772TIP3    H180731   1.622   3.125  14.956  1.7081 -1.3073 -0.2509
19772TIP3    H280732   1.600   3.094  15.102  0.2381  0.4662 -0.0496
19773TIP3   OH280733   1.888   5.674  12.634 -0.1760  0.3234 -0.2053
19773TIP3    H180734   1.901   5.729  12.557 -0.5877  0.9384  0.1586
19773TIP3    H280735   1.971   5.627  12.643 -0.1337  0.2223 -1.0373
19774TIP3   OH280736   0.810   5.194  14.080  0.1202 -0.5009  0.5378
19774TIP3    H180737   0.839   5.260  14.017  1.8144 -2.1763 -0.5321
19774TIP3    H280738   0.714   5.198  14.076  0.0847 -1.5390 -3.3181
19775TIP3   OH280739   2.664   6.037   5.392 -0.2170  0.2137  0.2871
19775TIP3    H180740   2.675   6.024   5.298 -0.4333  0.1041  0.2760
19775TIP3    H280741   2.752   6.054   5.425  0.5366 -3.7008  0.7125
19776TIP3   OH280742   4.353   6.391   1.528 -0.0563 -0.0162  0.2453
19776TIP3    H180743   4.306   6.460   1.481  0.2226  0.2179  0.3045
19776TIP3    H280744   4.305   6.311   1.508  0.8120 -0.1378 -1.5241
19777TIP3   OH280745   4.425   0.379  16.505  0.0008 -0.4639  0.5724
19777TIP3    H180746   4.483   0.317  16.549  0.0985 -1.2919 -0.6606
19777TIP3    H280747   4.362   0.405  16.572  0.1853 -1.6226  1.2271
19778TIP3   OH280748   4.635   4.110  14.473  0.3394  0.4365  0.2698
19778TIP3    H180749   4.705   4.096  14.536  0.2063 -0.7314  0.1885
19778TIP3    H280750   4.620   4.204  14.474  3.4900  1.1057 -1.4008
19779TIP3   OH280751   6.353   3.088   0.525 -0.0653  0.2798 -0.7000
19779TIP3    H180752   6.391   3.016   0.474 -1.3617  0.1343 -1.4949
19779TIP3    H280753   6.303   3.044   0.594 -0.1304  0.4450 -0.6428
19780TIP3   OH280754   3.087   6.453  13.036 -0.5576  0.4596  0.1177
19780TIP3    H180755   3.079   6.531  13.091  2.2237 -0.2097  1.6967
19780TIP3    H280756   3.023   6.392  13.073  0.2416  0.5398  1.7344
19781TIP3   OH280757   0.935   0.721  16.031  0.0352 -0.1784 -0.3464
19781TIP3    H180758   0.982   0.688  16.107  0.7052  0.7340 -0.3490
19781TIP3    H280759   0.851   0.674  16.032  0.9530 -1.9221 -0.4104
19782TIP3   OH280760   1.368   3.203   1.611 -0.3951 -0.5512  0.2514
19782TIP3    H180761   1.437   3.269   1.622 -2.7321  2.2463 -0.5671
19782TIP3    H280762   1.391   3.134   1.673  3.3545 -0.0269 -0.3510
19783TIP3   OH280763   0.117   0.441   4.656  0.6781  0.1540 -0.2198
19783TIP3    H180764   0.068   0.448   4.738  0.8413  0.0719 -0.1136
19783TIP3    H280765   0.146   0.530   4.637 -0.0272  0.3042 -0.6056
19784TIP3   OH280766   2.771   1.346   2.914 -0.4057  0.0399 -0.1514
19784TIP3    H180767   2.714   1.394   2.855  0.1471 -0.8527 -1.4763
19784TIP3    H280768   2.820   1.413   2.962 -0.5125  0.7969 -1.0833
19785TIP3   OH280769   1.387   6.651  14.813  0.5779  0.6527 -0.2294
19785TIP3    H180770   1.418   6.561  14.806  2.0349  1.2002 -1.3953
19785TIP3    H280771   1.404   6.689  14.727 -1.0487  1.7487 -0.1195
19786TIP3   OH280772   0.007   1.248  12.988 -0.3206  0.0603  0.4239
19786TIP3    H180773   0.053   1.234  13.070 -1.1644  0.6180  1.0027
19786TIP3    H280774   0.054   1.321  12.947 -0.6303  0.5765  0.9775
19787TIP3   OH280775   5.249   4.451   5.820  0.4969  0.1269  0.1151
19787TIP3    H180776   5.242   4.360   5.849  1.0175  0.6478  2.0569
19787TIP3    H280777   5.326   4.453   5.763  0.5435 -0.6333  0.1477
19788TIP3   OH280778   5.606   6.131   3.571  0.0187  0.2488  0.4566
19788TIP3    H180779   5.582   6.174   3.489 -1.2174 -0.0611  0.6368
19788TIP3    H280780   5.696   6.102   3.557 -0.6639 -1.2134 -1.4251
19789TIP3   OH280781   6.494   3.107  14.134  0.1495 -0.6742 -0.5377
19789TIP3    H180782   6.409   3.097  14.092 -0.7572  2.2078  0.4044
19789TIP3    H280783   6.557   3.092  14.063 -1.0088 -3.5644 -1.0979
19790TIP3   OH280784   1.733   6.405  15.475  0.0666 -0.6633  0.3471
19790TIP3    H180785   1.733   6.324  15.527 -2.0058 -1.2484 -0.4550
19790TIP3    H280786   1.760   6.377  15.388  1.5087 -0.0457  0.5617
19791TIP3   OH280787   4.298   4.312  12.416  0.2927  0.1125  0.1223
19791TIP3    H180788   4.324   4.259  12.491  1.0760 -0.7394 -0.7167
19791TIP3    H280789   4.366   4.379  12.409  0.5675 -0.1952 -0.1951
19792TIP3   OH280790   4.495   0.793  13.275  0.0776  0.4739 -0.1776
19792TIP3    H180791   4.551   0.822  13.202  0.1720  0.1787 -0.2239
19792TIP3    H280792   4.434   0.731  13.235  1.2072 -0.9948  0.2841
19793TIP3   OH280793   3.351   1.260   5.099 -0.4367 -0.1650 -0.3588
19793TIP3    H180794   3.445   1.242   5.094 -0.6516 -1.6026  0.3171
19793TIP3    H280795   3.341   1.314   5.178 -0.0960  0.8028 -0.9520
19794TIP3   OH280796   0.174   1.493  11.688 -0.2109  0.2676 -0.3014
19794TIP3    H180797   0.152   1.507  11.596 -0.3017  2.4037 -0.0218
19794TIP3    H280798   0.191   1.581  11.722 -0.9434 -0.3730  1.9213
19795TIP3   OH280799   5.881   0.487  13.258 -0.6399 -0.2396 -0.0282
19795TIP3    H180800   5.886   0.544  13.334 -1.4208  0.3737 -0.4117
19795TIP3    H280801   5.972   0.464  13.238 -0.5139 -2.8354  2.8256
19796TIP3   OH280802   0.303   2.256   1.784  1.2053 -0.2924  0.2915
19796TIP3    H180803   0.213   2.269   1.754  1.9532 -0.6548 -2.3329
19796TIP3    H280804   0.308   2.162   1.803  0.6755 -0.0287  1.9524
19797TIP3   OH280805   5.668   6.539  15.299  0.2846 -0.3283  0.6310
19797TIP3    H180806   5.707   6.588  15.226  0.5389  0.9728  1.6000
19797TIP3    H280807   5.649   6.453  15.262  0.5379  0.2422 -0.9286
19798TIP3   OH280808   1.968   2.774   1.028 -0.0954  0.2711 -0.3239
19798TIP3    H180809   2.054   2.738   1.049 -0.5563 -0.5212  0.2853
19798TIP3    H280810   1.956   2.846   1.090 -1.1818 -1.6529  1.8667
19799TIP3   OH280811   2.689   2.444   2.122 -0.5732 -0.3699  0.2878
19799TIP3    H180812   2.782   2.422   2.134 -0.6017 -0.6690 -0.0077
19799TIP3    H280813   2.673   2.426   2.029 -1.0992 -0.9850  0.4905
19800TIP3   OH280814   3.836   0.084  14.861  0.1831  0.2198 -0.1411
19800TIP3    H180815   3.923   0.080  14.821  0.6547 -1.5184  0.9516
19800TIP3    H280816   3.852   0.076  14.955 -1.2108 -2.5153 -0.0376
19801TIP3   OH280817   1.943   1.280  14.243  0.1112  0.3835 -0.0157
19801TIP3    H180818   1.926   1.186  14.233 -0.3224  0.5667 -1.1715
19801TIP3    H280819   2.026   1.284  14.291 -0.0972 -0.5811  0.4474
19802TIP3   OH280820   6.203   4.392  16.098  0.3241 -0.3121 -0.0900
19802TIP3    H180821   6.121   4.426  16.063  0.1220 -1.7804 -1.1694
19802TIP3    H280822   6.213   4.436  16.183 -1.0330  0.6707 -0.3956
19803TIP3   OH280823   6.594   0.256   3.599 -0.0402  0.2430  1.4359
19803TIP3    H180824   6.544   0.175   3.610  0.1890 -0.0190  0.6264
19803TIP3    H280825   6.589   0.299   3.684  0.1686 -0.8080  1.9932
19804TIP3   OH280826   2.756   5.986  13.270  0.0289  0.0364 -0.3022
19804TIP3    H180827   2.738   6.001  13.177  0.3688  1.3244 -0.1834
19804TIP3    H280828   2.720   6.064  13.314  0.9281  0.0012  0.5251
19805TIP3   OH280829   3.924   6.395   3.552 -0.5222  0.2698  0.1229
19805TIP3    H180830   3.901   6.308   3.521 -0.3203  0.2589  0.0008
19805TIP3    H280831   4.020   6.395   3.554 -0.5340  0.2050  0.9300
19806TIP3   OH280832   2.869   1.832  14.409  0.1238  0.0718  0.0239
19806TIP3    H180833   2.909   1.747  14.429  1.2052  0.8985  1.6375
19806TIP3    H280834   2.910   1.893  14.471  1.1684  2.2596 -2.5480
19807TIP3   OH280835   1.810   2.583   5.250 -0.5269 -0.0935 -0.1600
19807TIP3    H180836   1.813   2.488   5.265  0.1096  0.0586  0.7286
19807TIP3    H280837   1.872   2.597   5.178 -0.9989 -0.4042 -0.6370
19808TIP3   OH280838   4.063   0.950  14.640 -0.0451 -0.1038 -0.2448
19808TIP3    H180839   4.007   0.985  14.571 -0.1778 -0.5361 -0.3573
19808TIP3    H280840   4.112   1.026  14.672 -0.4421  0.2139 -0.3816
19809TIP3   OH280841   2.031   1.527   4.433  0.2132  0.3607 -0.1834
19809TIP3    H180842   2.021   1.433   4.423  1.7744  0.0933  0.5646
19809TIP3    H280843   1.979   1.548   4.511 -1.3662  0.4000 -1.1960
19810TIP3   OH280844   4.578   5.258   4.253  0.3974  0.0861 -0.1677
19810TIP3    H180845   4.568   5.213   4.337  2.5619  1.1289  0.7172
19810TIP3    H280846   4.585   5.351   4.276  0.7858  0.4156 -1.5270
19811TIP3   OH280847   3.383   0.830   5.091 -0.5356  0.7149 -0.6790
19811TIP3    H180848   3.411   0.772   5.021  0.0310  1.5495 -1.1548
19811TIP3    H280849   3.291   0.807   5.105  0.3152 -2.2203  1.0676
19812TIP3   OH280850   0.009   5.982  16.867  0.6463  0.3432 -0.5709
19812TIP3    H180851  -0.040   6.059  16.896  0.0916  0.1145 -0.9035
19812TIP3    H280852   0.050   5.949  16.947 -0.3104  0.1278 -0.1560
19813TIP3   OH280853   0.448   5.065  15.688 -0.2664  0.5388 -0.4310
19813TIP3    H180854   0.462   4.989  15.631  0.9597  0.2353  0.2492
19813TIP3    H280855   0.431   5.137  15.627  1.7716  0.3920 -1.2795
19814TIP3   OH280856   5.059   3.611  15.331  0.1529 -0.0726  0.1343
19814TIP3    H180857   5.142   3.617  15.284 -0.5236 -1.0984 -1.2877
19814TIP3    H280858   5.067   3.673  15.403  3.6347 -2.7136  2.3968
19815TIP3   OH280859   4.764   5.065   4.921  0.0180  0.7639  0.1805
19815TIP3    H180860   4.787   4.998   4.857  1.9445  2.2252 -0.7575
19815TIP3    H280861   4.804   5.036   5.003 -2.5230 -1.1546  0.8565
19816TIP3   OH280862   4.444   1.990  15.114  0.1323 -0.3962 -0.4900
19816TIP3    H180863   4.433   1.991  15.019 -1.3683 -1.6848 -0.3665
19816TIP3    H280864   4.490   1.909  15.133  1.5425  0.4418 -0.1814
19817TIP3   OH280865   0.780   4.095  14.042 -0.0815 -0.3348 -0.3150
19817TIP3    H180866   0.818   4.017  14.000  0.4683  0.7224 -1.8959
19817TIP3    H280867   0.709   4.121  13.983 -0.4744  0.1960  0.3778
19818TIP3   OH280868   0.803   1.710   2.831 -0.4705 -0.2237  0.0803
19818TIP3    H180869   0.870   1.776   2.817 -1.6196  0.6317 -1.7054
19818TIP3    H280870   0.852   1.630   2.852  1.2089  0.0788 -2.3319
19819TIP3   OH280871   0.276   4.383  12.233 -0.0088  0.1280  0.1971
19819TIP3    H180872   0.211   4.354  12.169 -0.7690 -1.6623  1.6661
19819TIP3    H280873   0.295   4.474  12.209 -0.1990 -0.4672 -2.5512
19820TIP3   OH280874   1.456   4.259  16.280  0.1754 -0.1259 -0.0140
19820TIP3    H180875   1.430   4.315  16.353  0.4010 -1.4347  1.1168
19820TIP3    H280876   1.540   4.294  16.251  0.0600  0.4307  0.3101
19821TIP3   OH280877   4.534   3.465  11.926 -0.4896 -0.1118  0.1591
19821TIP3    H180878   4.559   3.534  11.988  0.7615 -0.9694  0.6240
19821TIP3    H280879   4.575   3.491  11.843 -0.8236  0.1961  0.0882
19822TIP3   OH280880   0.713   3.352   4.875  0.1861 -0.0084  0.6063
19822TIP3    H180881   0.768   3.428   4.856  0.0942  0.3786  1.8000
19822TIP3    H280882   0.725   3.294   4.800  1.6241  0.4056  0.4968
19823TIP3   OH280883   5.935   6.636   2.283  0.3228 -0.1397  0.1902
19823TIP3    H180884   6.019   6.593   2.268 -0.0687 -0.8091 -0.1274
19823TIP3    H280885   5.873   6.587   2.229 -0.4354 -0.2366  1.1316
19824TIP3   OH280886   5.644   3.711  10.814  0.0020  0.3040 -0.6983
19824TIP3    H180887   5.585   3.775  10.854  0.5593 -0.5401  1.6465
19824TIP3    H280888   5.601   3.627  10.827  0.0577  0.0059 -2.2455
19825TIP3   OH280889   0.879   2.711   5.432 -0.2926 -0.1585 -0.2589
19825TIP3    H180890   0.906   2.794   5.472  0.4465 -0.8139  0.6488
19825TIP3    H280891   0.914   2.715   5.343  1.6758 -0.3798  0.4467
19826TIP3   OH280892   3.703   1.981  12.174  0.4638 -0.0096  0.0704
19826TIP3    H180893   3.643   2.035  12.226 -1.0883 -2.2024  0.7039
19826TIP3    H280894   3.757   1.935  12.238  2.4912  1.4501 -0.4833
19827TIP3   OH280895   3.363   6.160   0.592  0.0808  0.0987 -0.2822
19827TIP3    H180896   3.342   6.123   0.677 -1.1529 -0.4480 -0.8020
19827TIP3    H280897   3.279   6.185   0.554  0.6385  0.7032 -1.1734
19828TIP3   OH280898   6.678   5.946   5.998  0.0210 -0.3691 -0.0887
19828TIP3    H180899   6.743   6.016   5.984  0.1759 -0.8775 -2.2775
19828TIP3    H280900   6.636   5.969   6.081  0.9981  1.5799 -0.0619
19829TIP3   OH280901   1.465   5.091  13.427 -0.2547 -0.2010  0.4682
19829TIP3    H180902   1.385   5.143  13.433  0.6280  1.2660  0.0192
19829TIP3    H280903   1.455   5.040  13.347 -0.6777  0.1018  0.3259
19830TIP3   OH280904   1.427   3.088  12.515 -0.3301 -0.8118 -0.6536
19830TIP3    H180905   1.350   3.048  12.555  0.4986 -0.3793  1.5118
19830TIP3    H280906   1.436   3.172  12.561  2.0019 -1.3159 -0.0759
19831TIP3   OH280907   4.249   0.045  12.432  0.6198  0.1088  0.1592
19831TIP3    H180908   4.222  -0.047  12.433 -0.4048  0.3927  0.4442
19831TIP3    H280909   4.342   0.043  12.410  0.4227 -0.9474 -0.6727
19832TIP3   OH280910   0.031   5.574   4.184 -0.2511  0.3033  0.2786
19832TIP3    H180911   0.076   5.633   4.123  0.0075  0.0991  0.2715
19832TIP3    H280912   0.044   5.613   4.270 -0.9140  0.7803  0.1684
19833TIP3   OH280913   3.112   4.271  16.754 -0.2191 -0.7224  0.2675
19833TIP3    H180914   3.093   4.262  16.847 -3.7625  0.3901 -0.1689
19833TIP3    H280915   3.173   4.345  16.749 -1.5592  0.5683  1.6807
19834TIP3   OH280916   4.039   4.841  16.833  0.1234  0.1949  0.0224
19834TIP3    H180917   4.070   4.752  16.848 -1.8331 -0.7535 -1.1480
19834TIP3    H280918   4.090   4.895  16.893  0.5661 -1.8474  1.5855
19835TIP3   OH280919   3.581   5.201   5.331  0.5288 -0.0401 -0.0384
19835TIP3    H180920   3.548   5.280   5.288 -2.5943  0.2579  2.5158
19835TIP3    H280921   3.544   5.129   5.280 -0.9405  0.2697  0.5338
19836TIP3   OH280922   4.941   3.029   0.998  0.1246  0.0929 -0.1221
19836TIP3    H180923   4.899   3.096   1.051 -0.3840  0.7033 -1.2628
19836TIP3    H280924   4.878   3.010   0.928  0.1727 -1.7161  0.2714
19837TIP3   OH280925   6.256   6.746   2.214  0.1767 -0.4349  0.3512
19837TIP3    H180926   6.229   6.728   2.304 -2.2862  3.5594  0.6290
19837TIP3    H280927   6.223   6.672   2.163 -2.9144 -0.4318  2.1325
19838TIP3   OH280928   1.879   4.806   3.877  0.4740  0.0033 -0.0729
19838TIP3    H180929   1.826   4.822   3.956 -2.2587  1.8655 -2.0827
19838TIP3    H280930   1.964   4.844   3.897  0.5153 -1.3009  2.6234
19839TIP3   OH280931   4.850   1.135   1.198  0.0318  0.4858 -0.1134
19839TIP3    H180932   4.927   1.188   1.179  0.1428  0.6555  0.7636
19839TIP3    H280933   4.831   1.153   1.291  0.6533 -1.7161  0.4930
19840TIP3   OH280934   5.096   5.382  16.175  0.2660 -0.5715  0.7689
19840TIP3    H180935   5.010   5.340  16.180 -0.6424  1.2964  1.6968
19840TIP3    H280936   5.089   5.442  16.100  1.0602 -1.0015  0.3338
19841TIP3   OH280937   0.577   4.845  16.651  0.1852  0.5173 -1.0450
19841TIP3    H180938   0.579   4.819  16.743 -0.8357  1.2677 -0.7875
19841TIP3    H280939   0.669   4.850  16.625  0.4767 -2.8486 -1.0045
19842TIP3   OH280940   6.447   6.074  10.802  0.2649 -0.4624 -0.5868
19842TIP3    H180941   6.386   6.000  10.804  1.4823 -1.4941 -0.4069
19842TIP3    H280942   6.431   6.116  10.718  0.6889 -1.9492 -1.4581
19843TIP3   OH280943   1.774   4.206  17.184  0.1153 -0.2363  0.0964
19843TIP3    H180944   1.744   4.182  17.271  1.5467 -1.1298  0.3912
19843TIP3    H280945   1.868   4.189  17.186  0.3640  0.7711 -1.2900
19844TIP3   OH280946   5.370   2.576  11.767  0.4982 -0.3963  0.2418
19844TIP3    H180947   5.446   2.626  11.735 -0.6172  1.3505  0.2090
19844TIP3    H280948   5.366   2.597  11.860  0.4599 -1.0790  0.4014
19845TIP3   OH280949   0.498   1.919  13.091  0.2478  0.0546 -0.3314
19845TIP3    H180950   0.448   1.936  13.170  1.0031 -0.4165  0.2730
19845TIP3    H280951   0.434   1.923  13.020 -0.4488  0.4405  0.3042
19846TIP3   OH280952   2.189   5.240  11.915 -0.1763  0.2627 -0.1267
19846TIP3    H180953   2.186   5.262  11.822  2.0107  1.5547  0.0411
19846TIP3    H280954   2.163   5.320  11.960  1.7224  0.6076  0.4063
19847TIP3   OH280955   5.049   2.333  12.423 -0.3344 -0.0871 -0.3690
19847TIP3    H180956   5.051   2.338  12.327  0.6095  0.4945 -0.3289
19847TIP3    H280957   5.141   2.332  12.449 -0.5220  2.2110  0.6342
19848TIP3   OH280958   1.195   6.128  15.911  0.0898  0.2835 -0.4869
19848TIP3    H180959   1.111   6.083  15.896 -0.2669  1.1111 -1.0013
19848TIP3    H280960   1.175   6.194  15.977  0.7744 -0.7355  0.7969
19849TIP3   OH280961   3.737   3.583  15.637 -0.8192  1.1198 -0.4898
19849TIP3    H180962   3.803   3.617  15.697 -2.2185  0.5095  1.5171
19849TIP3    H280963   3.785   3.558  15.559  1.4963 -0.3757  1.3117
19850TIP3   OH280964   0.462   5.906   1.209 -0.0708  0.7817 -0.1105
19850TIP3    H180965   0.402   5.883   1.280  0.8495 -0.9183  0.1559
19850TIP3    H280966   0.496   5.992   1.233 -0.7938  0.8295  0.7863
19851TIP3   OH280967   2.416   1.700   0.875  0.4081  0.7671 -0.4861
19851TIP3    H180968   2.464   1.769   0.830  0.7274 -0.1911 -1.6572
19851TIP3    H280969   2.421   1.625   0.817  0.6478 -0.4712  1.0566
19852TIP3   OH280970   1.653   5.890   1.165 -0.1590 -0.4805 -0.3971
19852TIP3    H180971   1.561   5.866   1.154 -0.1638 -0.6330 -0.0521
19852TIP3    H280972   1.685   5.831   1.234 -0.3016  0.8358  0.8270
19853TIP3   OH280973   5.469   0.691  11.447 -0.3404  0.2721 -0.5088
19853TIP3    H180974   5.384   0.698  11.489  0.8232 -1.7779  2.4871
19853TIP3    H280975   5.486   0.779  11.413 -3.0270  1.0630 -0.0240
19854TIP3   OH280976   0.367   6.666  15.650 -0.4544 -0.4217 -0.1876
19854TIP3    H180977   0.347   6.758  15.633  0.0760  0.5292  3.4053
19854TIP3    H280978   0.460   6.665  15.673 -0.1777 -2.0651 -1.2155
19855TIP3   OH280979   0.254   2.362  15.079 -0.3404 -0.4667  0.3817
19855TIP3    H180980   0.257   2.382  15.173  0.8906 -1.3615  0.5605
19855TIP3    H280981   0.346   2.348  15.055 -0.5235  0.7789 -1.2058
19856TIP3   OH280982   1.584   1.757  15.930 -0.1196 -0.5194  0.3829
19856TIP3    H180983   1.511   1.728  15.875 -0.7515  2.2470 -0.4159
19856TIP3    H280984   1.551   1.752  16.019 -1.2513  0.4600  0.0481
19857TIP3   OH280985   3.321   2.199   0.258  0.0056  0.8650  0.0387
19857TIP3    H180986   3.364   2.194   0.343  0.1846  0.3546 -0.0752
19857TIP3    H280987   3.371   2.139   0.202 -1.4959 -0.5977  0.1991
19858TIP3   OH280988   5.180   5.776   1.461 -0.3211  0.2055 -0.0606
19858TIP3    H180989   5.167   5.711   1.392 -1.3307 -1.9849  2.0746
19858TIP3    H280990   5.092   5.796   1.493  0.1093  1.3668  0.4549
19859TIP3   OH280991   5.601   1.723  16.527  0.6192  0.5456 -0.1771
19859TIP3    H180992   5.529   1.664  16.549  2.0159 -0.5414  1.7903
19859TIP3    H280993   5.559   1.800  16.490 -1.5749  0.0977  1.2406
19860TIP3   OH280994   2.547   2.947  13.178  0.2929  0.0535 -0.0637
19860TIP3    H180995   2.505   2.891  13.243 -1.5637  2.4429  0.9494
19860TIP3    H280996   2.618   2.990  13.225  2.1440 -1.7892 -1.0114
19861TIP3   OH280997   3.977   6.440   0.989 -0.2417 -0.4492  0.4660
19861TIP3    H180998   3.980   6.380   0.914 -0.1133  1.6789 -1.3402
19861TIP3    H280999   3.955   6.384   1.063 -3.1417 -2.2790 -1.5681
19862TIP3   OH281000   5.177   2.968  12.764 -0.1564 -0.0900 -0.0207
19862TIP3    H181001   5.084   2.944  12.758 -0.1436  0.0777 -1.1933
19862TIP3    H281002   5.177   3.048  12.818 -0.6481 -0.3169  0.3255
19863TIP3   OH281003   5.210   6.641  17.306  0.0722  0.1860  0.8484
19863TIP3    H181004   5.301   6.668  17.298  0.2428 -0.4766  0.4775
19863TIP3    H281005   5.202   6.608  17.396  0.2270  0.1462  0.8474
19864TIP3   OH281006   0.673   2.569  11.240  0.0503  0.2272  0.2158
19864TIP3    H181007   0.716   2.509  11.300  0.1568 -0.3248 -0.3968
19864TIP3    H281008   0.660   2.649  11.291 -2.1353 -1.0208  1.8039
19865TIP3   OH281009   0.126   4.457   5.200 -0.3086 -0.5137  0.3023
19865TIP3    H181010   0.041   4.489   5.171 -0.8611 -2.1050  0.0987
19865TIP3    H281011   0.106   4.395   5.270  0.6254 -1.5815 -0.3480
19866TIP3   OH281012   4.916   5.887   3.371  0.1918 -0.4621 -0.1858
19866TIP3    H181013   4.972   5.838   3.310 -0.3472  1.0248 -1.9463
19866TIP3    H281014   4.949   5.977   3.367 -1.2026  0.0773  0.1282
19867TIP3   OH281015   1.738   6.162  14.571 -0.1554 -0.0229  0.2051
19867TIP3    H181016   1.795   6.202  14.505 -1.9363  3.2790  0.4946
19867TIP3    H281017   1.655   6.149  14.526 -0.3938 -1.0432  0.8979
19868TIP3   OH281018   1.137   3.645   0.683 -0.1514  0.8269  0.3541
19868TIP3    H181019   1.178   3.718   0.730  1.1763  1.5544 -1.7806
19868TIP3    H281020   1.164   3.567   0.731  1.7164  1.4834  0.4498
19869TIP3   OH281021   4.293   1.153   0.511  0.6130  0.2805 -0.3721
19869TIP3    H181022   4.322   1.200   0.589 -1.0883  2.2451 -0.8444
19869TIP3    H281023   4.225   1.093   0.543  0.6672  0.3228 -0.1765
19870TIP3   OH281024   2.684   2.464   6.165 -0.2588 -0.5785  0.4335
19870TIP3    H181025   2.679   2.391   6.228  0.6155  1.0833  2.5866
19870TIP3    H281026   2.741   2.528   6.209 -1.4014  1.6145 -1.1354
19871TIP3   OH281027   4.708   2.670  12.463  0.3215 -0.0394  0.3682
19871TIP3    H181028   4.767   2.598  12.440 -0.2028 -1.0261  1.9690
19871TIP3    H281029   4.664   2.692  12.380  0.1738 -1.8511 -0.0709
19872TIP3   OH281030   3.213   0.619  16.873  0.3172  0.2862 -0.1646
19872TIP3    H181031   3.172   0.629  16.959 -0.8455 -0.6311 -0.5844
19872TIP3    H281032   3.291   0.566  16.890  0.1334  0.1748  0.3440
19873TIP3   OH281033   3.582   5.311   1.198 -0.8798 -0.1811  0.4792
19873TIP3    H181034   3.528   5.330   1.275 -1.5014  1.6527 -0.3419
19873TIP3    H281035   3.551   5.226   1.167 -2.3101  0.1543  0.8881
19874TIP3   OH281036   4.501   4.712  11.444  0.1340  0.0168  0.3013
19874TIP3    H181037   4.526   4.758  11.364  0.5570 -0.0062  0.4202
19874TIP3    H281038   4.581   4.670  11.474 -0.5086 -1.9498 -0.5477
19875TIP3   OH281039   4.797   0.517  12.914 -0.0987  0.2242 -0.5963
19875TIP3    H181040   4.792   0.541  13.007 -0.1828  1.2217 -0.8505
19875TIP3    H281041   4.717   0.467  12.898  0.7826 -1.5675  0.3008
19876TIP3   OH281042   5.803   5.574  17.282  0.8407 -0.2177  0.1647
19876TIP3    H181043   5.879   5.521  17.258  1.2621  0.0980  0.7951
19876TIP3    H281044   5.823   5.662  17.250 -0.3817 -0.6408 -1.9798
19877TIP3   OH281045   5.977   3.149   3.271 -0.1329 -0.1436 -0.6013
19877TIP3    H181046   6.064   3.187   3.274 -0.5912  0.8792  0.7684
19877TIP3    H281047   5.990   3.060   3.238  1.4592 -0.1163 -0.0929
19878TIP3   OH281048   3.919   5.002   4.554 -0.0697  0.1364 -0.5018
19878TIP3    H181049   3.903   5.049   4.637 -0.7167  1.6604 -1.4348
19878TIP3    H281050   3.978   5.059   4.506  0.4758 -0.8482 -1.0151
19879TIP3   OH281051   0.468   1.162  12.458 -0.0592  0.3467  0.6403
19879TIP3    H181052   0.455   1.203  12.372  2.1602  0.9559  0.5346
19879TIP3    H281053   0.399   1.199  12.513 -2.2439 -0.8878 -1.0888
19880TIP3   OH281054   4.109   2.721  12.271  0.1117 -0.3176  0.0137
19880TIP3    H181055   4.106   2.741  12.178 -1.0156  0.4712  0.2022
19880TIP3    H281056   4.173   2.650  12.278  0.8429  0.1949 -1.2398
19881TIP3   OH281057   4.930   4.062  15.432  0.7015 -0.5310  0.1248
19881TIP3    H181058   5.005   4.003  15.435  0.4571 -0.9128 -0.8291
19881TIP3    H281059   4.858   4.008  15.398  0.0242 -0.1371  0.8752
19882TIP3   OH281060   5.753   1.204  16.244 -0.4105  0.6679 -0.4607
19882TIP3    H181061   5.732   1.276  16.304 -0.1568  0.2210  0.1803
19882TIP3    H281062   5.841   1.177  16.269 -0.0952  0.8116 -1.3878
19883TIP3   OH281063   6.638   0.650  12.373  0.2701 -0.6875  0.7474
19883TIP3    H181064   6.732   0.663  12.380  0.4784  0.3639 -2.3226
19883TIP3    H281065   6.628   0.557  12.354  0.6669 -0.8378  1.2593
19884TIP3   OH281066   2.914   6.051  14.404  0.3140  0.3067  0.2679
19884TIP3    H181067   2.897   5.964  14.441 -0.2535 -0.6264 -1.9941
19884TIP3    H281068   3.009   6.051  14.388  0.3167  0.1126  0.2806
19885TIP3   OH281069   6.158   4.238   0.352 -0.7070 -0.1102 -0.0880
19885TIP3    H181070   6.249   4.253   0.329 -0.1748 -2.2602  0.3754
19885TIP3    H281071   6.131   4.317   0.398  1.0623  0.3656  0.2057
19886TIP3   OH281072   6.754   3.116  15.997  0.2694  0.1656  0.0988
19886TIP3    H181073   6.786   3.204  15.978  0.6151  0.1668  0.6743
19886TIP3    H281074   6.830   3.060  15.981  0.2465  0.0475  0.4177
19887TIP3   OH281075   0.790   1.446   1.883  0.0690 -0.2970 -0.5496
19887TIP3    H181076   0.817   1.424   1.794  1.7785 -0.2192 -0.0713
19887TIP3    H281077   0.848   1.395   1.939  0.4403  1.2653  0.5346
19888TIP3   OH281078   0.776   6.533  13.653  0.4374 -0.1899 -0.2680
19888TIP3    H181079   0.713   6.473  13.614  0.8944 -0.5556 -0.4545
19888TIP3    H281080   0.759   6.617  13.610 -2.8822  0.9374  2.7175
19889TIP3   OH281081   1.680   4.567   0.821  1.0811 -0.0618 -0.1004
19889TIP3    H181082   1.761   4.570   0.871 -0.2906 -0.3446  2.3071
19889TIP3    H281083   1.655   4.659   0.810  1.6617  0.0218 -0.7768
19890TIP3   OH281084   4.551   4.416  12.708  0.0187  0.6472  0.4383
19890TIP3    H181085   4.491   4.488  12.727 -0.8342  1.0577 -3.0814
19890TIP3    H281086   4.493   4.340  12.699  0.4991  0.2548  0.6219
19891TIP3   OH281087   4.479   2.657   5.945  0.3811  0.0072  0.4160
19891TIP3    H181088   4.447   2.586   5.888  1.9465 -0.0484 -0.4725
19891TIP3    H281089   4.453   2.737   5.900 -1.8368  0.0672  1.6780
19892TIP3   OH281090   3.624   5.326  11.926  0.4855 -0.5505 -0.1483
19892TIP3    H181091   3.602   5.278  12.006 -0.1819  0.8723  0.5518
19892TIP3    H281092   3.636   5.416  11.954  0.9670 -0.1486 -1.5507
19893TIP3   OH281093   5.068   1.923  11.627  0.1186  0.1728  0.0748
19893TIP3    H181094   4.985   1.877  11.638 -0.1466  0.5598 -0.2735
19893TIP3    H281095   5.056   2.007  11.672  0.1229  0.4531 -0.4335
19894TIP3   OH281096   6.150   6.719   5.360 -0.2408 -0.3077 -0.5335
19894TIP3    H181097   6.110   6.804   5.341 -1.9693 -0.8244  0.6525
19894TIP3    H281098   6.207   6.703   5.284 -0.3860  1.5766 -1.1012
19895TIP3   OH281099   5.031   1.631  15.899 -0.1622 -0.1450  0.2115
19895TIP3    H181100   5.103   1.580  15.935  0.4126  0.4423 -0.1009
19895TIP3    H281101   5.072   1.708  15.861 -1.0873  0.9894  1.4076
19896TIP3   OH281102   0.088   0.903  13.298  0.3940 -0.1735  0.1573
19896TIP3    H181103   0.084   0.862  13.211 -1.3020  0.2494 -0.0071
19896TIP3    H281104  -0.000   0.938  13.312  0.6797 -0.0832  1.9892
19897TIP3   OH281105   0.081   2.364   2.457  0.2851  0.0176  0.1906
19897TIP3    H181106   0.151   2.388   2.397  0.9802 -2.5772 -0.1830
19897TIP3    H281107   0.003   2.358   2.402  0.4815 -0.3062 -0.0597
19898TIP3   OH281108   0.518   6.548  14.913 -0.1506 -0.1296 -0.1596
19898TIP3    H181109   0.423   6.559  14.907 -0.1810  0.2104  0.8051
19898TIP3    H281110   0.533   6.457  14.888 -0.7615 -0.2673 -0.0320
19899TIP3   OH281111   5.351   0.886  16.942  0.0120 -0.1093  0.0214
19899TIP3    H181112   5.297   0.860  17.017 -0.6154  0.6055 -0.1740
19899TIP3    H281113   5.440   0.882  16.975 -0.2867  0.6744  0.9664
19900TIP3   OH281114   6.111   2.282  16.952 -0.0462  0.0315  0.0981
19900TIP3    H181115   6.087   2.220  16.884 -0.4268 -1.1575  1.2929
19900TIP3    H281116   6.099   2.368  16.911  0.0875 -0.6575 -1.4379
19901TIP3   OH281117   3.703   5.110   0.505 -0.4885  0.3781  0.2178
19901TIP3    H181118   3.626   5.105   0.562 -0.3467 -1.7695  0.2923
19901TIP3    H281119   3.753   5.031   0.525  1.6688  1.6169  0.0154
19902TIP3   OH281120   0.720   6.482   3.839  0.7696  0.1105  0.5391
19902TIP3    H181121   0.694   6.564   3.797  1.2482  0.5755  1.1238
19902TIP3    H281122   0.760   6.430   3.768  0.9048  0.5825  0.2637
19903TIP3   OH281123   4.982   0.037   2.629  0.4498  0.6803 -0.5684
19903TIP3    H181124   4.897   0.054   2.669  0.5134 -2.0363  1.0011
19903TIP3    H281125   5.041   0.102   2.668 -0.4417  1.0324  0.2152
19904TIP3   OH281126   3.632   6.408  16.015  0.0224  0.2407  0.1176
19904TIP3    H181127   3.587   6.399  15.931  1.3511  1.8186 -0.8162
19904TIP3    H281128   3.699   6.339  16.014  1.1947  1.3351 -0.9498
19905TIP3   OH281129   1.935   0.755  14.153 -0.6430  0.2402 -0.1000
19905TIP3    H181130   1.880   0.684  14.186  0.5310 -0.0755  1.2859
19905TIP3    H281131   1.959   0.728  14.065  0.4470 -1.5375  0.6793
19906TIP3   OH281132   1.575   5.083   5.041  0.0567  0.2605 -0.8498
19906TIP3    H181133   1.503   5.066   4.981 -0.1236 -0.8434 -0.3548
19906TIP3    H281134   1.636   5.011   5.026  0.7531  0.8255 -0.7984
19907TIP3   OH281135   2.609   3.770  11.644  0.0922  0.3545  0.4626
19907TIP3    H181136   2.659   3.782  11.725  2.3332 -1.5871 -0.5057
19907TIP3    H281137   2.663   3.811  11.576  0.4951 -1.8332 -0.6280
19908TIP3   OH281138   0.050   3.554  12.407  0.0920 -0.1864  0.1238
19908TIP3    H181139   0.074   3.581  12.496 -1.1988  0.0407  0.4267
19908TIP3    H281140   0.132   3.522  12.369  0.6673 -0.3199  1.4015
19909TIP3   OH281141   2.461   3.191  13.317  0.1391  0.1898  0.1441
19909TIP3    H181142   2.458   3.176  13.222  2.2560 -0.7695  0.1887
19909TIP3    H281143   2.490   3.108  13.354 -1.1223  0.3944  1.7300
19910TIP3   OH281144   2.603   0.724  11.088  0.0436  0.0160  0.1180
19910TIP3    H181145   2.631   0.662  11.020 -0.8543  0.1537 -0.3923
19910TIP3    H281146   2.508   0.728  11.079  0.0986  1.5811  0.0454
19911TIP3   OH281147   6.316   6.210  15.578 -0.1658 -0.9625  0.3146
19911TIP3    H181148   6.278   6.133  15.619 -1.2346  0.1580  1.5164
19911TIP3    H281149   6.251   6.279  15.591  0.1027 -0.1831 -2.0083
19912TIP3   OH281150   1.566   2.831  12.231  0.2101  0.2240 -0.3692
19912TIP3    H181151   1.600   2.772  12.163  0.9457 -0.4907  0.5832
19912TIP3    H281152   1.486   2.868  12.193  1.6248  1.3564 -2.3795
19913TIP3   OH281153   4.826   3.248  12.497  0.2915 -0.1362  0.4452
19913TIP3    H181154   4.849   3.316  12.433  1.5201 -0.7475  0.2095
19913TIP3    H281155   4.766   3.292  12.557 -0.4505  0.6196 -0.7896
19914TIP3   OH281156   6.019   4.658  14.739 -0.0711 -0.0242 -0.3032
19914TIP3    H181157   6.091   4.690  14.793 -1.0051  0.4964  0.6736
19914TIP3    H281158   6.046   4.569  14.713  0.8900  0.1481  0.0704
19915TIP3   OH281159   0.127   1.794  11.981  0.3123  0.0700 -0.0205
19915TIP3    H181160   0.211   1.811  11.938  1.2367  0.4379  1.8425
19915TIP3    H281161   0.149   1.783  12.073 -1.5980 -0.7172  0.3828
19916TIP3   OH281162   2.589   5.215   2.207 -0.1110 -0.0934  0.4063
19916TIP3    H181163   2.558   5.302   2.182  2.1125  0.8878  0.8544
19916TIP3    H281164   2.562   5.159   2.134 -2.5320  0.7039  0.6137
19917TIP3   OH281165   4.136   0.518   2.824  0.2260  0.8832  0.4946
19917TIP3    H181166   4.155   0.443   2.881 -1.1447 -0.0452 -0.2335
19917TIP3    H281167   4.147   0.594   2.881  0.2450  0.0537  1.6382
19918TIP3   OH281168   1.724   1.787  13.047 -1.0611  0.1141 -0.1091
19918TIP3    H181169   1.653   1.844  13.077 -1.0750  0.1281 -0.1696
19918TIP3    H281170   1.788   1.845  13.007 -0.8888  0.1322  0.1855
19919TIP3   OH281171   2.059   6.421   1.793  0.3215 -0.2910  0.1130
19919TIP3    H181172   1.988   6.403   1.855  2.2186 -1.2326  2.1539
19919TIP3    H281173   2.098   6.502   1.824 -1.5727  1.9117 -2.7739
19920TIP3   OH281174   2.656   2.579   5.487  0.6215  0.5877 -0.5577
19920TIP3    H181175   2.732   2.633   5.509 -0.3433  2.1399 -0.9198
19920TIP3    H281176   2.678   2.540   5.402  1.0282  0.9670 -0.6286
19921TIP3   OH281177   5.857   1.922  12.363  0.0457  0.1309  0.2449
19921TIP3    H181178   5.837   1.922  12.457 -1.9890  0.4151 -0.1583
19921TIP3    H281179   5.809   1.848  12.328 -0.2288  0.7686 -0.7705
19922TIP3   OH281180   4.321   3.251  14.299  0.2281 -0.2106  0.2751
19922TIP3    H181181   4.257   3.285  14.236  2.2142  1.7065 -0.8662
19922TIP3    H281182   4.360   3.175  14.255  1.6223  1.1316 -0.9619
19923TIP3   OH281183   3.157   1.276   5.493 -0.0864 -0.0809 -0.1913
19923TIP3    H181184   3.073   1.234   5.476 -0.0803  0.0268 -0.4952
19923TIP3    H281185   3.219   1.203   5.503 -0.0663 -0.1437 -0.7624
19924TIP3   OH281186   1.147   3.614  11.803  0.1688 -0.3621  0.2433
19924TIP3    H181187   1.074   3.592  11.746  0.8709 -1.9349 -0.0906
19924TIP3    H281188   1.220   3.629  11.744  0.4177  0.0145  0.6416
19925TIP3   OH281189   6.186   1.774   3.967 -0.1882 -0.0125 -0.0538
19925TIP3    H181190   6.214   1.760   3.877  0.8480 -1.1891  0.4297
19925TIP3    H281191   6.267   1.777   4.018 -0.6474  2.2360  0.6630
19926TIP3   OH281192   2.308   3.842  13.434 -0.1760 -0.5411 -0.0466
19926TIP3    H181193   2.270   3.795  13.359  0.4448 -1.3267  0.1175
19926TIP3    H281194   2.314   3.776  13.503 -0.9662  0.2362  0.7959
19927TIP3   OH281195   5.098   4.266   1.325 -0.2354  0.1445 -0.1908
19927TIP3    H181196   5.102   4.356   1.356 -0.4659 -0.5769  2.1993
19927TIP3    H281197   5.010   4.236   1.350 -0.5300 -0.4616 -1.8435
19928TIP3   OH281198   0.530   1.979  16.196 -0.2749 -0.0467  0.1857
19928TIP3    H181199   0.567   1.901  16.238  1.3398  0.6737  0.1752
19928TIP3    H281200   0.527   1.957  16.103  0.5181  0.0252  0.1390
19929TIP3   OH281201   0.806   2.504  12.975  0.1217  0.2839 -0.1654
19929TIP3    H181202   0.900   2.500  12.954  0.0753  1.5177 -0.6186
19929TIP3    H281203   0.803   2.544  13.062  0.0110  0.0933 -0.0789
19930TIP3   OH281204   4.555   0.662  14.594  0.1452 -0.7108  0.1172
19930TIP3    H181205   4.636   0.658  14.644  0.5036 -0.3069 -0.4193
19930TIP3    H281206   4.582   0.646  14.503  0.2965  3.5074 -0.7758
19931TIP3   OH281207   4.933   5.965   5.344 -0.3958  0.6516 -0.1072
19931TIP3    H181208   4.916   6.029   5.274 -1.1874  0.6645  0.0931
19931TIP3    H281209   4.869   5.986   5.411 -0.7295 -0.4262 -0.0810
19932TIP3   OH281210   2.196   1.219   5.558 -0.2530  0.2673 -0.4730
19932TIP3    H181211   2.192   1.247   5.467 -0.7781 -3.7251 -1.8457
19932TIP3    H281212   2.109   1.238   5.593 -0.8922 -0.5262 -1.6057
19933TIP3   OH281213   6.451   6.517   1.200  0.6438 -0.1134  0.3252
19933TIP3    H181214   6.396   6.527   1.122 -0.1979 -0.8907  0.7872
19933TIP3    H281215   6.389   6.514   1.272  1.4230  0.7131  1.0455
19934TIP3   OH281216   1.091   6.515  14.893 -0.2484  0.0349  0.4693
19934TIP3    H181217   1.025   6.528  14.824  0.3263  0.4922 -0.0085
19934TIP3    H281218   1.047   6.541  14.973  0.0208  2.5903 -0.1241
19935TIP3   OH281219   5.051   2.041  16.152  0.4779 -0.1991  0.3960
19935TIP3    H181220   5.036   1.949  16.130  1.6587 -1.1651  3.2228
19935TIP3    H281221   4.983   2.061  16.216 -0.2803  1.2084 -0.7964
19936TIP3   OH281222   3.704   4.554  17.248  0.5017 -0.2576 -0.4535
19936TIP3    H181223   3.651   4.480  17.277 -0.0919  0.7149  1.0683
19936TIP3    H281224   3.758   4.575  17.323  1.3339  0.2794 -1.1903
19937TIP3   OH281225   1.158   3.044  17.020  0.0953 -0.3152 -0.3134
19937TIP3    H181226   1.207   2.962  17.018  3.1540  1.3037  1.4764
19937TIP3    H281227   1.126   3.051  17.110 -1.3057 -0.1143 -0.7974
19938TIP3   OH281228   5.037   5.048   4.377  0.3102  0.1360 -0.0502
19938TIP3    H181229   5.004   4.976   4.430 -0.7249  0.5897 -0.0385
19938TIP3    H281230   5.095   5.006   4.313  0.6211 -0.5548  0.6641
19939TIP3   OH281231   4.327   0.947   3.382 -0.1799 -0.2509 -0.5584
19939TIP3    H181232   4.267   1.008   3.424  0.4724  0.2073 -0.2708
19939TIP3    H281233   4.323   0.969   3.289 -0.9358 -0.6524 -0.6232
19940TIP3   OH281234   4.520   2.124  15.871  0.1526 -0.1686 -0.2087
19940TIP3    H181235   4.594   2.183  15.856  0.0317 -0.0903 -0.4963
19940TIP3    H281236   4.478   2.159  15.950 -0.9430  1.1995 -1.3323
19941TIP3   OH281237   0.941   0.789  17.194 -0.3647  0.4254 -0.0930
19941TIP3    H181238   0.986   0.705  17.186 -1.3150 -0.0698 -0.3524
19941TIP3    H281239   0.959   0.818  17.284 -0.8110 -0.5273  0.3182
19942TIP3   OH281240   4.935   2.703   2.569  0.3822 -0.7271 -0.4445
19942TIP3    H181241   4.938   2.745   2.655  0.7255  0.5745 -1.0599
19942TIP3    H281242   4.877   2.758   2.517  0.4728 -1.2858 -1.1548
19943TIP3   OH281243   1.852   5.048  12.482  0.7563  0.1215 -0.1462
19943TIP3    H181244   1.761   5.022  12.495  0.2450  0.9726 -1.6772
19943TIP3    H281245   1.903   4.968  12.497 -0.0176  0.0257  2.4925
19944TIP3   OH281246   3.007   0.427   2.036 -0.0534  0.1987  0.6148
19944TIP3    H181247   2.916   0.451   2.054  0.0788 -0.5364  2.5099
19944TIP3    H281248   3.051   0.510   2.019 -1.2267  0.4853 -1.2596
19945TIP3   OH281249   3.124   1.129   0.864  0.3378 -0.0932  0.5655
19945TIP3    H181250   3.039   1.159   0.831  0.7237  0.7204  0.2812
19945TIP3    H281251   3.125   1.035   0.846  0.3774  0.2393 -1.4489
19946TIP3   OH281252   5.737   2.730  10.537  0.4605  0.3259 -0.4752
19946TIP3    H181253   5.700   2.706  10.622  1.4713  0.0357 -0.1122
19946TIP3    H281254   5.672   2.790  10.500  0.0732  0.5701  0.5557
19947TIP3   OH281255   6.179   6.284  17.021 -0.1770 -0.3896 -0.1091
19947TIP3    H181256   6.146   6.302  16.933 -1.4444  0.8842  0.5956
19947TIP3    H281257   6.148   6.196  17.041  1.6701 -1.4724 -1.5850
19948TIP3   OH281258   6.625   5.692  12.343  0.5274  0.0327 -0.1879
19948TIP3    H181259   6.547   5.747  12.347  1.3458  1.1991  0.3167
19948TIP3    H281260   6.632   5.669  12.250  0.8768  1.9124 -0.6888
19949TIP3   OH281261   5.321   3.410  11.002  0.3036 -0.5011  0.0090
19949TIP3    H181262   5.312   3.422  11.097 -1.8927 -1.4977 -0.0231
19949TIP3    H281263   5.317   3.315  10.990 -0.0277 -0.3507 -1.1228
19950TIP3   OH281264   1.462   4.859   0.635  0.1584  0.6257  0.0177
19950TIP3    H181265   1.557   4.871   0.641  0.4736  1.2810 -3.6952
19950TIP3    H281266   1.429   4.946   0.614 -0.6941 -0.2023 -2.4475
19951TIP3   OH281267   1.460   2.836   2.034 -0.2973 -0.3433 -0.3712
19951TIP3    H181268   1.413   2.755   2.012  1.1728 -1.4868  0.5981
19951TIP3    H281269   1.550   2.819   2.008 -0.0028  1.0955 -0.3552
19952TIP3   OH281270   6.227   5.129   5.416  0.1884  0.3068 -0.1929
19952TIP3    H181271   6.284   5.202   5.395 -0.5394  0.9851  0.1603
19952TIP3    H281272   6.146   5.169   5.447 -0.7829 -0.6096 -1.4022
19953TIP3   OH281273   5.369   3.363   1.901 -0.1727  0.0290 -0.0952
19953TIP3    H181274   5.409   3.381   1.816  1.5660  0.1457  0.7107
19953TIP3    H281275   5.433   3.307   1.946 -2.2635 -2.3348  0.1262
19954TIP3   OH281276   5.501   4.858  14.570  0.3710 -0.0397  0.3377
19954TIP3    H181277   5.557   4.894  14.639 -0.5020  0.0491  1.0208
19954TIP3    H281278   5.446   4.794  14.615 -0.9770  0.8125 -0.0459
19955TIP3   OH281279   0.421   3.776   5.029  0.2593 -0.0299 -0.1067
19955TIP3    H181280   0.515   3.781   5.013  0.1187 -1.1793 -1.5368
19955TIP3    H281281   0.394   3.867   5.041  1.7695  0.2077  2.0120
19956TIP3   OH281282   2.906   3.719  11.417 -0.6796  0.2898 -0.2145
19956TIP3    H181283   2.977   3.733  11.354 -0.9413  1.0438 -0.3618
19956TIP3    H281284   2.826   3.717  11.364 -0.9104  1.0108  0.0896
19957TIP3   OH281285   1.898   0.182  15.918  0.0937 -0.3615 -0.1595
19957TIP3    H181286   1.901   0.094  15.882  0.1065  0.3986 -2.1382
19957TIP3    H281287   1.820   0.221  15.880  0.5499  0.7551  0.0125
19958TIP3   OH281288   0.642   3.574  11.570  0.0684  0.3696 -0.7117
19958TIP3    H181289   0.559   3.618  11.586  0.1363  0.5413 -0.8306
19958TIP3    H281290   0.639   3.548  11.478 -1.0787 -2.2048 -0.0396
19959TIP3   OH281291   2.042   4.777  17.009 -0.3750  0.7300 -0.2327
19959TIP3    H181292   2.104   4.771  16.936  1.1252  0.1747  1.0439
19959TIP3    H281293   1.976   4.839  16.978  0.3557  0.7303 -1.9501
19960TIP3   OH281294   3.318   3.772   1.983  0.2385  0.1424 -0.3579
19960TIP3    H181295   3.403   3.738   2.012 -0.2109  1.3400  2.8138
19960TIP3    H281296   3.331   3.866   1.972 -0.5527  0.2747 -0.2790
19961TIP3   OH281297   0.256   0.691  13.818  0.0869  0.1745 -0.0221
19961TIP3    H181298   0.182   0.638  13.847  1.1986 -1.3919  0.1036
19961TIP3    H281299   0.222   0.742  13.745 -1.8461  1.6313  1.7600
19962TIP3   OH281300   4.356   4.750   0.407  0.3911  0.2683 -0.3739
19962TIP3    H181301   4.360   4.786   0.319  2.0282  1.1886  0.0237
19962TIP3    H281302   4.432   4.789   0.452 -1.3997  1.3031  1.9752
19963TIP3   OH281303   1.699   2.382  12.343  0.1877  0.2312  0.3743
19963TIP3    H181304   1.664   2.453  12.398  0.1011  0.3262  0.1967
19963TIP3    H281305   1.732   2.425  12.265  0.7460  0.1413  0.5610
19964LIG      O81306   1.607   4.892  16.151  0.2399  0.5067  0.3149
19964LIG      N81307   2.014   4.776  16.195 -0.1013 -0.0319 -0.5285
19964LIG     C181308   1.640   5.118  16.217  0.2298 -0.0106 -0.5026
19964LIG     C281309   1.699   4.999  16.145 -0.0405  0.2173  0.8640
19964LIG     C381310   1.735   5.247  16.213 -0.6693  0.5195  0.4346
19964LIG     C481311   1.496   5.149  16.191  0.2674 -0.3370  0.2726
19964LIG     C581312   1.839   4.946  16.211  0.3500  0.5726  0.1114
19964LIG     C681313   1.684   5.350  16.311  0.6205 -0.3947  0.1207
19964LIG     C781314   1.448   5.257  16.285 -0.1022  0.0166 -0.3563
19964LIG     C881315   1.536   5.384  16.269 -0.7270  0.0699  0.5061
19964LIG     C981316   1.879   4.806  16.163 -0.9669  0.6641  0.2339
19964LIG    C1081317   1.726   5.037  15.990 -0.6121 -0.2538  0.0098
19964LIG    C1181318   2.058   4.633  16.181  0.4859 -0.0716  0.4887
19964LIG    C1281319   2.116   4.866  16.133 -0.3095 -0.1988  0.5894
19964LIG    C1381320   2.050   4.604  16.025  0.0328 -0.0685 -0.2531
19964LIG    C1481321   2.119   4.838  15.979  0.1862 -0.5336  0.5132
19964LIG    C1581322   2.139   4.693  15.938  1.0488 -0.6268 -0.2745
19964LIG    C1681323   1.857   5.087  15.949  0.7040  0.2553 -0.0240
19964LIG    C1781324   1.625   5.032  15.890 -0.0038 -0.1066 -0.6568
19964LIG    C1881325   1.878   5.113  15.813 -0.4834  0.3327  0.0087
19964LIG    C1981326   1.653   5.058  15.756 -0.2806 -0.0458 -0.1898
19964LIG    C2081327   1.778   5.104  15.715 -0.1653  0.5373 -0.9430
19964LIG     H181328   1.641   5.091  16.324 -2.1093  0.4002 -0.3093
19964LIG     H281329   1.734   5.278  16.106  1.3170 -0.8475 -0.0366
19964LIG     H381330   1.839   5.231  16.248  0.0530 -0.6829 -1.9687
19964LIG     H481331   1.440   5.059  16.225 -1.7718  1.1656  1.1193
19964LIG     H581332   1.473   5.170  16.085  0.0342 -0.1952  0.3504
19964LIG     H681333   1.823   4.933  16.320 -2.8962  0.4581 -0.2797
19964LIG     H781334   1.912   5.028  16.196  1.1228  0.1544  1.4536
19964LIG     H881335   1.751   5.438  16.316 -1.2285  1.0407  1.5049
19964LIG     H981336   1.666   5.306  16.411 -0.4104  4.7924  2.6103
19964LIG    H1081337   1.458   5.224  16.391  1.1542  0.1772 -0.4081
19964LIG    H1181338   1.344   5.287  16.261 -0.3883  0.4692  1.3506
19964LIG    H1281339   1.541   5.412  16.161  1.5202  0.5775  0.7004
19964LIG    H1381340   1.515   5.472  16.335  0.8904 -0.8617  2.3547
19964LIG    H1481341   1.820   4.735  16.224  0.4602 -0.7332  0.0364
19964LIG    H1581342   1.849   4.796  16.056 -0.8677 -0.7603  0.3209
19964LIG    H1681343   1.992   4.574  16.249  0.7003 -1.9569 -0.8501
19964LIG    H1781344   2.163   4.610  16.206  1.0933 -0.4954 -2.2066
19964LIG    H1881345   2.216   4.836  16.169 -0.6600 -1.0436  0.8889
19964LIG    H1981346   2.099   4.976  16.141 -0.5459 -0.2528  0.8506
19964LIG    H2081347   1.576   4.894  16.242 -1.1359  1.4375 -0.1446
19964LIG    H2181348   1.946   4.620  15.989 -0.4216 -0.2405  0.9165
19964LIG    H2281349   2.073   4.496  16.014 -2.2331 -1.1448  3.4727
19964LIG    H2381350   2.199   4.901  15.934  0.2719 -1.6982 -1.0434
19964LIG    H2481351   2.022   4.873  15.936  0.9311 -0.2054 -0.9501
19964LIG    H2581352   2.131   4.679  15.829  0.0145  0.5167 -0.3684
19964LIG    H2681353   2.240   4.658  15.970  0.7741 -2.0720 -0.9231
19964LIG    H2781354   1.938   5.109  16.017  1.3144  2.1281 -1.2484
19964LIG    H2881355   1.526   4.999  15.916  0.5951 -0.0411  1.9278
19964LIG    H2981356   1.981   5.138  15.793 -0.2749  1.2741  2.0318
19964LIG    H3081357   1.577   5.042  15.681 -0.5797 -2.6132  0.5723
19964LIG    H3181358   1.803   5.119  15.611  0.5085  3.4279 -0.4387
   6.77457   6.77457  17.34468
